Title
81321
    1CHL1    C3    1   1.712   4.063  10.203 -0.2914 -0.1338 -0.4691
    1CHL1    H3    2   1.798   4.047  10.134  0.1441  1.2176 -0.2653
    1CHL1    O3    3   1.754   4.049  10.339  0.3677 -0.0312  0.2499
    1CHL1   H3'    4   1.688   3.988  10.371 -0.5876  0.6635 -0.3757
    1CHL1    C4    5   1.651   4.206  10.171  0.4204  0.9378 -0.0820
    1CHL1   H4A    6   1.561   4.240  10.226  1.5690 -0.3393  2.6605
    1CHL1   H4B    7   1.736   4.268  10.206  0.6142  0.8152 -0.3342
    1CHL1    C5    8   1.638   4.206  10.020  0.2776  1.3026  0.5073
    1CHL1    C6    9   1.698   4.291   9.941 -0.3128  0.0020 -0.7171
    1CHL1    H6   10   1.758   4.370   9.989 -0.7984 -0.4773  0.7199
    1CHL1    C7   11   1.679   4.303   9.795 -0.2590 -0.2887 -0.4544
    1CHL1   H7A   12   1.671   4.413   9.781 -0.7894  0.0349  2.2951
    1CHL1   H7B   13   1.770   4.270   9.740 -0.7121  2.2291 -2.8626
    1CHL1    C8   14   1.559   4.222   9.742 -0.5324 -0.2167 -0.5623
    1CHL1    H8   15   1.468   4.281   9.766 -0.2762 -0.5992  1.4063
    1CHL1   C14   16   1.567   4.210   9.592 -0.0075  0.8489 -0.6972
    1CHL1   H14   17   1.666   4.162   9.577  0.1913  0.4496  1.7434
    1CHL1   C15   18   1.591   4.332   9.499  0.6237  0.2329  0.0874
    1CHL1  H15A   19   1.511   4.405   9.525 -1.0443 -1.7240  0.5599
    1CHL1  H15B   20   1.696   4.369   9.511  0.7992 -0.2199 -0.0516
    1CHL1   C16   21   1.566   4.275   9.361  0.0355  0.2632  0.5145
    1CHL1  H16A   22   1.496   4.341   9.305  1.4132  0.3033 -1.1957
    1CHL1  H16B   23   1.664   4.282   9.309 -0.7623 -1.4713 -1.2719
    1CHL1   C17   24   1.507   4.131   9.371 -0.2568 -0.4708 -0.1145
    1CHL1   H17   25   1.595   4.066   9.350  2.4322  3.0110 -0.0497
    1CHL1   C13   26   1.466   4.118   9.516  0.6362  0.0544  0.4821
    1CHL1   C18   27   1.332   4.173   9.541 -0.1915 -0.0119 -0.4052
    1CHL1  H18A   28   1.318   4.195   9.649 -0.3468 -1.6232 -0.0948
    1CHL1  H18B   29   1.321   4.271   9.489 -1.0000  0.2101  0.1807
    1CHL1  H18C   30   1.247   4.112   9.502  0.8477 -0.5806 -1.8454
    1CHL1   C12   31   1.482   3.978   9.579 -0.4496 -0.7800 -0.1202
    1CHL1  H12A   32   1.407   3.909   9.534 -2.1138 -0.5475  2.1517
    1CHL1  H12B   33   1.585   3.940   9.567  0.0712  0.7914 -0.7326
    1CHL1   C11   34   1.457   3.985   9.729 -0.1456  0.0210  0.0158
    1CHL1  H11A   35   1.350   4.012   9.743 -0.1200 -0.1675  0.5620
    1CHL1  H11B   36   1.474   3.885   9.773 -0.8778  0.3065  0.9645
    1CHL1    C9   37   1.558   4.078   9.802 -0.0388 -0.5870 -0.3206
    1CHL1    H9   38   1.655   4.026   9.787 -0.8990 -1.6572 -2.4030
    1CHL1   C10   39   1.551   4.086   9.955 -0.0479 -0.0452 -0.0651
    1CHL1   C19   40   1.407   4.117   9.987 -0.3040 -0.7256 -0.6138
    1CHL1  H19A   41   1.375   4.206   9.929  1.5080 -0.1627 -0.8116
    1CHL1  H19B   42   1.338   4.036   9.955 -2.1500  1.0440 -1.1621
    1CHL1  H19C   43   1.391   4.145  10.093 -2.8815  0.9532 -1.4144
    1CHL1    C1   44   1.585   3.949  10.024 -0.1429  0.1418  0.2029
    1CHL1   H1A   45   1.500   3.881  10.002  1.5181 -2.2412  0.9130
    1CHL1   H1B   46   1.682   3.910   9.984 -0.2949  1.0131 -1.0315
    1CHL1    C2   47   1.607   3.946  10.173 -0.0845 -0.0141  0.5152
    1CHL1   H2A   48   1.646   3.846  10.202  1.7762  0.5822  0.1558
    1CHL1   H2B   49   1.509   3.970  10.220 -0.0953  0.4709  0.2478
    1CHL1   C20   50   1.419   4.106   9.251  0.4787 -0.2214  0.3543
    1CHL1   H20   51   1.333   4.177   9.251  0.7059  0.1282 -2.8943
    1CHL1   C21   52   1.359   3.964   9.258  0.0072 -0.6399 -0.1427
    1CHL1  H21A   53   1.307   3.938   9.353 -0.2997 -0.7985 -0.3551
    1CHL1  H21B   54   1.443   3.895   9.238  1.5249  1.2533 -0.4568
    1CHL1  H21C   55   1.278   3.943   9.185 -0.1447 -2.5925  0.5723
    1CHL1   C22   56   1.510   4.121   9.125 -0.3538  0.2947  0.6707
    1CHL1  H22A   57   1.564   4.218   9.124 -0.8936  0.5902  0.0195
    1CHL1  H22B   58   1.592   4.047   9.122  1.4387  2.3098 -1.1199
    1CHL1   C23   59   1.436   4.091   8.991 -0.1843  0.1548 -0.0377
    1CHL1  H23A   60   1.391   3.990   8.979  0.3288 -0.3192  1.8653
    1CHL1  H23B   61   1.352   4.162   8.975 -0.6373 -0.1948  0.7472
    1CHL1   C24   62   1.528   4.104   8.869  0.3092  0.6433 -0.6290
    1CHL1  H24A   63   1.553   4.212   8.865 -0.5855  0.8697 -0.3223
    1CHL1  H24B   64   1.621   4.045   8.885 -0.3519 -0.2538 -0.0106
    1CHL1   C25   65   1.456   4.060   8.733  1.1497 -0.2842 -0.5508
    1CHL1   H25   66   1.435   3.951   8.740 -0.4683  0.0282 -0.2846
    1CHL1   C26   67   1.320   4.128   8.705  0.4438  0.1052 -0.4347
    1CHL1  H26A   68   1.242   4.103   8.781  0.6749  2.8769  0.7818
    1CHL1  H26B   69   1.326   4.238   8.697  2.7739 -0.1444 -2.5511
    1CHL1  H26C   70   1.284   4.090   8.607 -0.3255  0.4481 -0.2916
    1CHL1   C27   71   1.549   4.085   8.617  0.5513 -0.1244  0.2801
    1CHL1  H27A   72   1.506   4.046   8.523  1.2068 -2.8643  1.0618
    1CHL1  H27B   73   1.562   4.196   8.620 -1.2269  0.0573  1.7854
    1CHL1  H27C   74   1.651   4.043   8.632  0.7180 -0.3211 -1.3355
    2CHL1    C3   75   2.525   1.924   9.955  0.2719 -0.6481 -1.2036
    2CHL1    H3   76   2.633   1.948   9.953  0.7624 -2.8170 -2.8657
    2CHL1    O3   77   2.472   1.937  10.086  0.2072 -0.3490 -0.0595
    2CHL1   H3'   78   2.492   1.853  10.127 -2.2484 -0.7700  0.3013
    2CHL1    C4   79   2.447   2.015   9.863 -0.7155 -0.7058  0.4705
    2CHL1   H4A   80   2.342   1.982   9.875 -0.5801 -0.6638  1.8525
    2CHL1   H4B   81   2.458   2.123   9.886  2.2909 -1.0321  0.7318
    2CHL1    C5   82   2.489   1.996   9.721 -0.3355  0.1721 -0.4838
    2CHL1    C6   83   2.534   2.103   9.649  0.1887 -0.1951  0.1279
    2CHL1    H6   84   2.522   2.204   9.692  1.8988  0.8527 -1.7245
    2CHL1    C7   85   2.576   2.090   9.508  0.1190  1.0838  0.3485
    2CHL1   H7A   86   2.546   2.173   9.442  1.6193 -0.5167 -2.4319
    2CHL1   H7B   87   2.687   2.086   9.506  0.0951 -0.0000  0.8270
    2CHL1    C8   88   2.526   1.960   9.439 -0.3836 -0.8100 -0.5383
    2CHL1    H8   89   2.418   1.984   9.427 -1.0712 -3.0998  0.8252
    2CHL1   C14   90   2.602   1.936   9.315  0.6230  0.1879 -1.0131
    2CHL1   H14   91   2.702   1.905   9.353  0.1474  1.2523  1.1758
    2CHL1   C15   92   2.621   2.053   9.213  0.7590  0.4190  0.5097
    2CHL1  H15A   93   2.522   2.103   9.202  1.4497  1.7737  0.3604
    2CHL1  H15B   94   2.694   2.135   9.229 -0.4658  1.5807  0.1920
    2CHL1   C16   95   2.643   1.977   9.085 -0.2100  0.6538  0.2300
    2CHL1  H16A   96   2.573   2.016   9.008  1.2398 -1.4701 -2.2191
    2CHL1  H16B   97   2.744   2.004   9.048  0.0992 -1.1403 -0.3009
    2CHL1   C17   98   2.637   1.821   9.105  0.2149  0.3204  0.2878
    2CHL1   H17   99   2.743   1.802   9.133  0.6767  1.1824 -0.8187
    2CHL1   C13  100   2.554   1.817   9.234  0.2362  0.0569 -0.4583
    2CHL1   C18  101   2.398   1.835   9.194  0.2634 -0.2646  0.1447
    2CHL1  H18A  102   2.379   1.918   9.124 -0.3458 -0.8528 -0.3887
    2CHL1  H18B  103   2.363   1.750   9.133  2.7855 -0.5298 -1.0037
    2CHL1  H18C  104   2.350   1.848   9.294 -0.2473 -1.8928  0.1352
    2CHL1   C12  105   2.578   1.688   9.324  0.2898 -0.2986  0.8343
    2CHL1  H12A  106   2.541   1.595   9.274 -1.9640  1.0486 -0.0812
    2CHL1  H12B  107   2.687   1.682   9.343  0.5307 -0.2443 -0.4960
    2CHL1   C11  108   2.502   1.698   9.459  0.8214  0.0405 -0.5611
    2CHL1  H11A  109   2.392   1.710   9.449  0.7849  0.0991 -0.0831
    2CHL1  H11B  110   2.532   1.617   9.528  0.5035 -0.2297 -0.7379
    2CHL1    C9  111   2.543   1.832   9.530 -0.4337 -0.7806  0.2345
    2CHL1    H9  112   2.652   1.822   9.550 -0.9903 -1.0591  3.3430
    2CHL1   C10  113   2.478   1.850   9.673  0.3529 -0.2728 -0.0126
    2CHL1   C19  114   2.317   1.827   9.669 -0.2371  0.4624  0.3957
    2CHL1  H19A  115   2.283   1.724   9.645  2.0549  0.2220 -2.0732
    2CHL1  H19B  116   2.268   1.862   9.762 -0.0910  0.7960  0.3491
    2CHL1  H19C  117   2.278   1.889   9.586 -0.5318 -0.5491 -0.2283
    2CHL1    C1  118   2.542   1.755   9.771  0.5332 -0.0933 -0.0585
    2CHL1   H1A  119   2.510   1.650   9.755  2.5036 -0.7724  0.2965
    2CHL1   H1B  120   2.652   1.749   9.760  0.8199 -0.7290  2.9005
    2CHL1    C2  121   2.505   1.775   9.923 -0.7077 -0.1188  0.4183
    2CHL1   H2A  122   2.540   1.705  10.002 -2.2296 -0.4517  0.7941
    2CHL1   H2B  123   2.397   1.753   9.926 -1.1218  1.4097 -2.1568
    2CHL1   C20  124   2.600   1.750   8.975 -0.0212 -0.9527  0.2485
    2CHL1   H20  125   2.496   1.773   8.944  0.4164 -2.0707 -2.1892
    2CHL1   C21  126   2.600   1.597   9.000 -0.0026  0.0701  0.4610
    2CHL1  H21A  127   2.696   1.564   9.046 -0.0143  0.0555  0.4735
    2CHL1  H21B  128   2.578   1.533   8.911 -1.9567 -0.8809  1.6039
    2CHL1  H21C  129   2.509   1.577   9.061  0.1856  0.2486  0.7994
    2CHL1   C22  130   2.688   1.782   8.851 -0.0146 -0.4691  0.7263
    2CHL1  H22A  131   2.637   1.752   8.757  1.5219  2.3261 -1.0384
    2CHL1  H22B  132   2.703   1.892   8.843 -1.6708 -0.3657 -1.3631
    2CHL1   C23  133   2.824   1.710   8.849  0.1108 -1.2036 -0.4559
    2CHL1  H23A  134   2.870   1.737   8.946  0.7439 -1.0082 -0.8027
    2CHL1  H23B  135   2.817   1.600   8.840 -1.1336 -0.9361 -3.2086
    2CHL1   C24  136   2.914   1.752   8.733  0.0237  0.4314  0.1326
    2CHL1  H24A  137   2.933   1.862   8.735 -0.6522  0.6662 -3.0155
    2CHL1  H24B  138   3.014   1.706   8.730  0.2294  0.9417 -2.0865
    2CHL1   C25  139   2.857   1.751   8.592  0.3146 -0.1913  0.7328
    2CHL1   H25  140   2.777   1.828   8.591 -0.1353 -0.6615 -0.4216
    2CHL1   C26  141   2.959   1.795   8.491 -0.1539  0.6548  0.8950
    2CHL1  H26A  142   2.921   1.811   8.388 -0.5389  1.5168  1.1671
    2CHL1  H26B  143   2.995   1.897   8.517  0.9478  1.3946 -3.1506
    2CHL1  H26C  144   3.044   1.723   8.492 -1.4996 -0.9650  1.0009
    2CHL1   C27  145   2.802   1.619   8.542 -0.5970  0.7197 -0.2127
    2CHL1  H27A  146   2.883   1.543   8.539 -0.7278  0.4831  1.7697
    2CHL1  H27B  147   2.720   1.584   8.608  0.5130 -0.0261  0.7841
    2CHL1  H27C  148   2.771   1.630   8.436  1.4814  1.6510 -0.7577
    3CHL1    C3  149   3.177   1.632  10.332  0.3204 -0.2680  0.2942
    3CHL1    H3  150   3.282   1.611  10.305  0.4152 -1.2237  1.3597
    3CHL1    O3  151   3.168   1.644  10.472  0.3642  0.5755 -0.0303
    3CHL1   H3'  152   3.077   1.623  10.494  0.1169  0.1515 -1.4177
    3CHL1    C4  153   3.124   1.762  10.268  0.0868  0.7288  0.5005
    3CHL1   H4A  154   3.021   1.777  10.306 -0.0984 -3.1060  1.7757
    3CHL1   H4B  155   3.192   1.837  10.315  0.2339 -0.0396  1.5371
    3CHL1    C5  156   3.121   1.760  10.117 -0.5245 -0.0640  0.9681
    3CHL1    C6  157   3.183   1.854  10.043  0.5632 -0.6243 -0.4110
    3CHL1    H6  158   3.238   1.936  10.092  1.6154 -2.2881  1.2489
    3CHL1    C7  159   3.175   1.860   9.891  0.1723 -0.6373 -0.0796
    3CHL1   H7A  160   3.129   1.958   9.867  2.0623  0.1571 -0.5255
    3CHL1   H7B  161   3.282   1.844   9.869  0.2599 -0.5484  0.2733
    3CHL1    C8  162   3.077   1.756   9.831  0.4413 -0.3524 -0.0922
    3CHL1    H8  163   2.972   1.790   9.838  0.4155 -0.2746 -0.8573
    3CHL1   C14  164   3.111   1.736   9.686 -0.5169  0.1193  0.5382
    3CHL1   H14  165   3.220   1.720   9.671 -0.8970 -0.4949 -1.9048
    3CHL1   C15  166   3.082   1.860   9.596 -0.1765  0.0472 -0.2178
    3CHL1  H15A  167   2.974   1.884   9.607 -0.3501 -1.2018  0.9072
    3CHL1  H15B  168   3.136   1.955   9.618 -0.5524  0.3674 -0.6661
    3CHL1   C16  169   3.097   1.810   9.452  0.4524  0.7769 -0.3448
    3CHL1  H16A  170   3.016   1.845   9.385 -0.3651  0.6089  0.5536
    3CHL1  H16B  171   3.191   1.848   9.406  0.0823  0.5252 -1.3246
    3CHL1   C17  172   3.103   1.650   9.467  0.3542 -0.1571  0.0165
    3CHL1   H17  173   3.210   1.620   9.467  0.8661  1.6047  0.1152
    3CHL1   C13  174   3.042   1.622   9.610 -0.4067 -0.3299  1.3420
    3CHL1   C18  175   2.890   1.643   9.599  0.6114 -0.0281  0.5646
    3CHL1  H18A  176   2.858   1.729   9.537  0.7685  0.7769  1.5817
    3CHL1  H18B  177   2.846   1.553   9.551 -0.8095  2.0818 -2.2243
    3CHL1  H18C  178   2.842   1.637   9.699  0.4446 -0.3488  0.4651
    3CHL1   C12  179   3.062   1.485   9.682 -0.1903  0.0033  0.2356
    3CHL1  H12A  180   3.003   1.410   9.626 -0.4622 -0.2677  0.8797
    3CHL1  H12B  181   3.169   1.458   9.670 -0.5134 -0.4233 -1.8374
    3CHL1   C11  182   3.026   1.497   9.831  0.1713  0.8063  0.5044
    3CHL1  H11A  183   2.916   1.509   9.838  0.1020  0.6185 -0.1602
    3CHL1  H11B  184   3.057   1.403   9.882  0.0493  0.8956  0.7401
    3CHL1    C9  185   3.095   1.620   9.901 -0.3363  0.2064 -0.2760
    3CHL1    H9  186   3.203   1.598   9.900 -0.1114  1.3419 -1.4037
    3CHL1   C10  187   3.053   1.639  10.049  0.4783  0.0501 -0.1901
    3CHL1   C19  188   2.906   1.670  10.064  0.2443 -0.1844 -0.1159
    3CHL1  H19A  189   2.846   1.600  10.001  0.1535 -1.6252  1.5324
    3CHL1  H19B  190   2.872   1.660  10.170  0.9066 -2.2758 -0.0813
    3CHL1  H19C  191   2.885   1.774  10.031 -0.0162 -0.4486 -0.7916
    3CHL1    C1  192   3.090   1.513  10.131  0.6027 -0.0284  0.3630
    3CHL1   H1A  193   3.024   1.429  10.099  0.4081  1.1886 -2.5578
    3CHL1   H1B  194   3.192   1.486  10.095 -0.1301 -1.3509 -0.7729
    3CHL1    C2  195   3.094   1.519  10.281  0.0591 -0.6935  0.0017
    3CHL1   H2A  196   3.125   1.421  10.324 -0.6854 -0.7310  0.4724
    3CHL1   H2B  197   2.993   1.536  10.324  0.5350  1.2865  0.3630
    3CHL1   C20  198   3.032   1.590   9.339 -0.7107  0.6613  0.7593
    3CHL1   H20  199   2.922   1.605   9.339 -0.9642 -1.1576  1.1551
    3CHL1   C21  200   3.046   1.438   9.354  0.7386  0.0007  0.2613
    3CHL1  H21A  201   2.970   1.426   9.434  0.1487 -1.7853 -0.5319
    3CHL1  H21B  202   3.145   1.407   9.395  0.3754 -3.9377 -1.5476
    3CHL1  H21C  203   3.032   1.376   9.262 -1.4359  3.7087 -2.0206
    3CHL1   C22  204   3.096   1.642   9.206 -0.4293 -0.3550  0.1709
    3CHL1  H22A  205   3.059   1.578   9.124 -1.2646 -0.4749  0.6297
    3CHL1  H22B  206   3.059   1.744   9.181 -1.1271 -0.6199  0.1181
    3CHL1   C23  207   3.249   1.630   9.198  0.1580 -0.2326  0.3096
    3CHL1  H23A  208   3.306   1.708   9.253 -1.1541  1.7837 -1.1093
    3CHL1  H23B  209   3.285   1.530   9.230 -1.0344 -1.8208 -3.1470
    3CHL1   C24  210   3.306   1.624   9.059 -0.2292  0.2939  0.5516
    3CHL1  H24A  211   3.417   1.619   9.071 -0.3366  0.5729  1.7535
    3CHL1  H24B  212   3.274   1.531   9.008  2.1116 -0.2196 -0.0675
    3CHL1   C25  213   3.260   1.742   8.964 -0.9323 -0.3989  0.0410
    3CHL1   H25  214   3.152   1.758   8.987 -1.1859  0.3582 -1.5753
    3CHL1   C26  215   3.335   1.877   8.988  0.1952  0.1506  0.1498
    3CHL1  H26A  216   3.329   1.905   9.095 -0.1028  0.4011  0.0655
    3CHL1  H26B  217   3.444   1.870   8.967  0.6975  0.0694  2.6155
    3CHL1  H26C  218   3.292   1.951   8.917 -4.4572 -2.4678  0.0113
    3CHL1   C27  219   3.289   1.704   8.819 -0.2235 -0.4881 -0.5929
    3CHL1  H27A  220   3.250   1.787   8.756 -0.5219  2.2935  3.0819
    3CHL1  H27B  221   3.399   1.704   8.804 -0.7582  0.4891 -5.4145
    3CHL1  H27C  222   3.242   1.607   8.791  0.6935 -1.4170  0.9902
    4CHL1    C3  223   3.384   3.445  10.634 -0.0857  0.9209 -0.6082
    4CHL1    H3  224   3.273   3.440  10.631 -0.0905  0.1870  0.3523
    4CHL1    O3  225   3.421   3.444  10.777 -0.3011  0.5913  0.5889
    4CHL1   H3'  226   3.515   3.466  10.778 -0.1330 -0.1302  1.3064
    4CHL1    C4  227   3.444   3.316  10.579 -0.3775  0.4144  0.3225
    4CHL1   H4A  228   3.551   3.318  10.609 -0.7969  0.9267  1.8020
    4CHL1   H4B  229   3.396   3.235  10.638 -2.3940  1.1929 -0.1966
    4CHL1    C5  230   3.413   3.300  10.431  0.1710  0.3997  0.0316
    4CHL1    C6  231   3.369   3.185  10.385  0.2900 -0.1889 -0.4556
    4CHL1    H6  232   3.373   3.096  10.450  0.7152  0.7580  0.8475
    4CHL1    C7  233   3.337   3.161  10.245  0.4587 -1.0355  0.2077
    4CHL1   H7A  234   3.401   3.082  10.202  0.1272 -2.3381  2.0721
    4CHL1   H7B  235   3.232   3.125  10.240 -0.0974  0.5880 -0.3984
    4CHL1    C8  236   3.358   3.276  10.148 -0.4035 -0.6282 -0.5886
    4CHL1    H8  237   3.456   3.280  10.097 -0.1087  3.9928  0.1980
    4CHL1   C14  238   3.244   3.269  10.046  0.2122  0.1891  0.2864
    4CHL1   H14  239   3.149   3.270  10.105  0.6089 -1.5979  0.9761
    4CHL1   C15  240   3.238   3.138   9.963 -0.1836 -0.3283  0.2751
    4CHL1  H15A  241   3.341   3.105   9.937 -0.3634  1.2856 -2.7254
    4CHL1  H15B  242   3.176   3.058  10.009  1.3351 -1.0928  1.0422
    4CHL1   C16  243   3.170   3.173   9.828 -0.1298 -0.5378 -1.1908
    4CHL1  H16A  244   3.236   3.159   9.739  1.3681 -0.1557 -0.1533
    4CHL1  H16B  245   3.071   3.124   9.822 -0.3741  0.0416 -2.0555
    4CHL1   C17  246   3.140   3.329   9.842  0.1368 -0.5625  0.5313
    4CHL1   H17  247   3.047   3.339   9.904  1.3162  3.7956  1.8065
    4CHL1   C13  248   3.249   3.382   9.939 -0.2277 -1.1330  0.4247
    4CHL1   C18  249   3.384   3.383   9.859  0.7004 -0.6280 -0.4597
    4CHL1  H18A  250   3.387   3.472   9.793 -1.2859 -0.0317  0.2209
    4CHL1  H18B  251   3.464   3.401   9.933 -1.9552 -1.4365  2.7670
    4CHL1  H18C  252   3.413   3.292   9.801 -0.0108 -0.8478 -0.4781
    4CHL1   C12  253   3.237   3.527  10.003 -0.0457  0.4657  0.3176
    4CHL1  H12A  254   3.269   3.595   9.921 -1.0294 -2.0596 -2.2781
    4CHL1  H12B  255   3.131   3.546  10.029 -0.3513  1.2854 -1.4427
    4CHL1   C11  256   3.323   3.537  10.124 -0.0050  0.1030 -0.4592
    4CHL1  H11A  257   3.427   3.555  10.091  0.5156  1.8730  1.9753
    4CHL1  H11B  258   3.285   3.628  10.175 -1.1082 -0.0361 -1.0191
    4CHL1    C9  259   3.334   3.411  10.223 -0.1345  0.5269  0.4333
    4CHL1    H9  260   3.230   3.400  10.261  0.6814 -1.0468  2.3285
    4CHL1   C10  261   3.417   3.433  10.351  0.5357  0.0772  0.0612
    4CHL1   C19  262   3.571   3.456  10.314 -0.4923 -0.5187 -0.4610
    4CHL1  H19A  263   3.633   3.435  10.403 -0.8206  0.8391  0.0923
    4CHL1  H19B  264   3.612   3.387  10.237  0.8279  0.4526 -0.6361
    4CHL1  H19C  265   3.580   3.561  10.277  0.7328  0.0695  1.4630
    4CHL1    C1  266   3.366   3.561  10.424  0.0474  0.7258  0.2248
    4CHL1   H1A  267   3.375   3.657  10.369 -0.1826  0.4773 -0.2494
    4CHL1   H1B  268   3.256   3.548  10.437  0.0304  0.5195 -0.1280
    4CHL1    C2  269   3.430   3.569  10.567 -0.1828  0.3887 -0.5335
    4CHL1   H2A  270   3.400   3.655  10.631 -0.7972 -0.9871  1.0272
    4CHL1   H2B  271   3.541   3.566  10.575 -0.2447 -1.3896 -0.2079
    4CHL1   C20  272   3.108   3.399   9.705 -0.2250 -0.1392 -0.4613
    4CHL1   H20  273   3.203   3.409   9.649 -0.5571  2.3140 -0.6170
    4CHL1   C21  274   3.052   3.543   9.732  0.2290  0.1803  0.4642
    4CHL1  H21A  275   2.959   3.539   9.792 -0.4671  0.4436 -0.5759
    4CHL1  H21B  276   3.040   3.591   9.632 -1.2630  0.3860  0.7437
    4CHL1  H21C  277   3.137   3.593   9.783  1.3071 -0.8775 -0.2595
    4CHL1   C22  278   3.005   3.323   9.611  0.4530  0.3921  0.0993
    4CHL1  H22A  279   3.002   3.214   9.634 -1.3741  0.4436  0.1313
    4CHL1  H22B  280   2.904   3.363   9.630  0.7271  0.9827  0.3125
    4CHL1   C23  281   3.029   3.363   9.457  0.2004 -0.2242  0.3898
    4CHL1  H23A  282   3.067   3.468   9.457  1.6298 -0.7168 -1.3941
    4CHL1  H23B  283   3.110   3.297   9.420  3.2212  2.9564  1.0278
    4CHL1   C24  284   2.904   3.341   9.371  0.0974 -0.0748  0.9772
    4CHL1  H24A  285   2.831   3.420   9.400 -1.5894 -0.2789 -2.4268
    4CHL1  H24B  286   2.930   3.354   9.264 -2.3213  0.8550  0.4632
    4CHL1   C25  287   2.841   3.201   9.380  0.1815  0.0643  0.0807
    4CHL1   H25  288   2.873   3.164   9.480  3.0517  0.3952 -0.6634
    4CHL1   C26  289   2.687   3.200   9.371  1.0566 -0.1530 -0.4176
    4CHL1  H26A  290   2.653   3.274   9.447 -2.4975 -0.0482 -1.9860
    4CHL1  H26B  291   2.643   3.237   9.276  0.6169 -2.2251 -1.0297
    4CHL1  H26C  292   2.648   3.099   9.393  0.7968  0.2264  0.9343
    4CHL1   C27  293   2.902   3.114   9.272 -0.3696  0.4802  0.2442
    4CHL1  H27A  294   2.867   3.125   9.167 -0.2397  0.8420  0.2397
    4CHL1  H27B  295   3.011   3.131   9.263 -0.2450 -0.4831 -0.2242
    4CHL1  H27C  296   2.880   3.010   9.305  0.3095  0.4357  0.5599
    5CHL1    C3  297   3.307   1.199  10.131  0.4247 -0.0277 -0.7616
    5CHL1    H3  298   3.225   1.273  10.133 -1.3491 -1.9783  0.5031
    5CHL1    O3  299   3.317   1.166  10.272 -0.8203  0.1483 -0.2089
    5CHL1   H3'  300   3.253   1.094  10.276 -0.2491 -0.4675 -1.6591
    5CHL1    C4  301   3.266   1.074  10.060 -0.6522  0.8526  0.5710
    5CHL1   H4A  302   3.333   0.987  10.075 -2.1173 -0.4029  0.0166
    5CHL1   H4B  303   3.168   1.041  10.101  0.6051 -1.7038  1.5800
    5CHL1    C5  304   3.256   1.091   9.908 -0.2678  0.0326 -0.8417
    5CHL1    C6  305   3.143   1.062   9.840 -0.1294  0.0500 -0.0827
    5CHL1    H6  306   3.062   1.019   9.903 -1.6671  1.3571 -1.1227
    5CHL1    C7  307   3.138   1.057   9.690  0.0044  0.4335  0.1533
    5CHL1   H7A  308   3.084   0.964   9.664 -0.9637 -0.3907  4.5792
    5CHL1   H7B  309   3.071   1.142   9.665 -1.0644 -0.3959  0.1961
    5CHL1    C8  310   3.269   1.069   9.613  0.2845  0.2560 -0.7986
    5CHL1    H8  311   3.321   0.972   9.627  1.2276  0.7673 -0.7135
    5CHL1   C14  312   3.249   1.111   9.469  0.3066 -0.0873  0.0179
    5CHL1   H14  313   3.193   1.207   9.472  0.8961  0.3319 -1.5230
    5CHL1   C15  314   3.166   1.014   9.380 -0.0672  0.0228  0.0486
    5CHL1  H15A  315   3.195   0.908   9.396  2.4784  1.0527  2.6848
    5CHL1  H15B  316   3.055   1.017   9.388 -0.1058 -2.6388  1.0787
    5CHL1   C16  317   3.211   1.058   9.234 -0.1608  0.5299 -0.2473
    5CHL1  H16A  318   3.227   0.971   9.167  0.6292  0.3373  0.1849
    5CHL1  H16B  319   3.123   1.109   9.190 -0.2939  1.8959  1.5219
    5CHL1   C17  320   3.330   1.160   9.246  0.1309 -0.0188  1.0158
    5CHL1   H17  321   3.291   1.263   9.254  1.1850  0.4375  0.4180
    5CHL1   C13  322   3.380   1.135   9.392 -0.3587  0.1600  0.1837
    5CHL1   C18  323   3.470   1.005   9.391 -0.3747  0.5979  0.0309
    5CHL1  H18A  324   3.426   0.922   9.332  1.0682  0.2899 -0.6191
    5CHL1  H18B  325   3.562   1.028   9.335 -0.9525  0.4733 -0.9810
    5CHL1  H18C  326   3.480   0.954   9.490  0.5103 -0.2017 -0.4680
    5CHL1   C12  327   3.445   1.258   9.461 -0.0639 -0.1011  0.2443
    5CHL1  H12A  328   3.536   1.295   9.409 -2.5324  1.0368 -3.4930
    5CHL1  H12B  329   3.384   1.350   9.456 -0.0871 -0.1897 -1.4938
    5CHL1   C11  330   3.474   1.224   9.613  0.4384  0.1527 -0.5434
    5CHL1  H11A  331   3.554   1.148   9.598  1.1163  0.9025 -0.7499
    5CHL1  H11B  332   3.527   1.308   9.663 -1.6838  1.8770 -1.1390
    5CHL1    C9  333   3.350   1.179   9.687 -0.5096  0.3383 -0.6726
    5CHL1    H9  334   3.280   1.265   9.698 -2.4373 -1.3500  0.5371
    5CHL1   C10  335   3.383   1.138   9.837 -0.2415 -0.0887  0.8225
    5CHL1   C19  336   3.488   1.023   9.837  0.1126 -0.4935  0.3234
    5CHL1  H19A  337   3.585   1.065   9.801  0.1757 -1.2209 -0.3830
    5CHL1  H19B  338   3.501   0.989   9.942 -0.0118  0.3503  0.6120
    5CHL1  H19C  339   3.454   0.935   9.778 -0.7012 -0.3238  0.5461
    5CHL1    C1  340   3.429   1.267   9.927 -0.3882 -0.4840  0.3510
    5CHL1   H1A  341   3.530   1.296   9.890 -0.8796 -0.7042 -1.2066
    5CHL1   H1B  342   3.357   1.352   9.922 -0.3994 -0.4288  1.4478
    5CHL1    C2  343   3.440   1.247  10.080 -0.6694  0.6066 -0.6699
    5CHL1   H2A  344   3.472   1.338  10.134  2.7767 -1.5598  1.0589
    5CHL1   H2B  345   3.517   1.169  10.096 -1.6820 -0.0242  1.2875
    5CHL1   C20  346   3.425   1.152   9.119 -0.6299 -0.0194  0.7514
    5CHL1   H20  347   3.523   1.193   9.151 -0.5562  0.0863  0.3931
    5CHL1   C21  348   3.356   1.250   9.018  0.3168  0.1527  0.0535
    5CHL1  H21A  349   3.368   1.356   9.051 -1.0123  0.4343 -0.3509
    5CHL1  H21B  350   3.249   1.223   9.015  0.3363 -0.0234  0.7467
    5CHL1  H21C  351   3.396   1.243   8.915 -3.1444  0.1908 -1.3559
    5CHL1   C22  352   3.444   1.015   9.046 -0.2226 -0.1001 -0.3986
    5CHL1  H22A  353   3.476   0.938   9.120 -1.9014  0.8481  1.3493
    5CHL1  H22B  354   3.348   0.990   8.995 -0.0384  1.5102 -1.5710
    5CHL1   C23  355   3.550   1.023   8.936 -0.1344 -0.3270  0.6777
    5CHL1  H23A  356   3.514   1.081   8.848  1.1009 -1.1883 -0.4071
    5CHL1  H23B  357   3.649   1.066   8.963  1.3639 -2.1194 -1.7181
    5CHL1   C24  358   3.583   0.881   8.877  0.1350 -0.1057 -0.0266
    5CHL1  H24A  359   3.627   0.829   8.965  0.4052  0.0968 -0.0420
    5CHL1  H24B  360   3.492   0.827   8.843 -0.9640  0.7615  1.4525
    5CHL1   C25  361   3.674   0.880   8.757  0.0445 -0.0237  0.4551
    5CHL1   H25  362   3.644   0.953   8.680  1.4913  1.8747  1.6559
    5CHL1   C26  363   3.814   0.929   8.789 -0.6007 -0.0516 -0.2990
    5CHL1  H26A  364   3.875   0.912   8.698  0.4356  2.1887 -0.0569
    5CHL1  H26B  365   3.826   1.037   8.812  0.4664 -0.2679  0.2440
    5CHL1  H26C  366   3.855   0.879   8.880 -1.3988  1.8624  1.1530
    5CHL1   C27  367   3.673   0.738   8.684 -0.2297 -0.2471 -0.4737
    5CHL1  H27A  368   3.571   0.704   8.655 -0.0431 -2.5711  1.3826
    5CHL1  H27B  369   3.748   0.737   8.602 -0.0147  1.0261 -0.2954
    5CHL1  H27C  370   3.709   0.662   8.758 -0.1251  0.2415 -0.0206
    6CHL1    C3  371   1.952   5.287  10.452 -0.4206  0.7699 -0.6257
    6CHL1    H3  372   2.058   5.321  10.444 -0.4556  0.6066 -1.8921
    6CHL1    O3  373   1.927   5.267  10.591  0.2478  0.2891  0.0227
    6CHL1   H3'  374   1.998   5.205  10.605 -0.7142 -1.0124 -0.7201
    6CHL1    C4  375   1.864   5.400  10.396 -0.9234 -0.1911  0.5178
    6CHL1   H4A  376   1.764   5.375  10.436 -0.0087 -1.5410  1.9870
    6CHL1   H4B  377   1.898   5.491  10.451 -0.2507 -0.4375  0.5187
    6CHL1    C5  378   1.879   5.411  10.241  0.1372  0.3104 -0.3679
    6CHL1    C6  379   1.903   5.528  10.181  0.2372  0.0442 -0.9397
    6CHL1    H6  380   1.904   5.615  10.249 -2.2695 -1.5333  1.2132
    6CHL1    C7  381   1.929   5.541  10.037 -0.4666 -0.4344 -0.2779
    6CHL1   H7A  382   1.876   5.627   9.991  0.1747  0.3670  0.4474
    6CHL1   H7B  383   2.034   5.570  10.015 -1.0083  1.1920 -0.7599
    6CHL1    C8  384   1.884   5.419   9.946 -0.0546  0.4012 -0.5389
    6CHL1    H8  385   1.773   5.415   9.950 -0.0309 -0.5169 -0.5372
    6CHL1   C14  386   1.932   5.429   9.804 -0.0003 -0.1645  0.7899
    6CHL1   H14  387   2.042   5.415   9.801  0.4321  3.1009 -1.6057
    6CHL1   C15  388   1.890   5.553   9.736  0.3533  0.0464  0.1528
    6CHL1  H15A  389   1.790   5.582   9.775  1.2418  0.3154  2.3037
    6CHL1  H15B  390   1.950   5.645   9.756  0.9220 -0.1129 -0.7709
    6CHL1   C16  391   1.880   5.514   9.588 -1.0847 -0.3105  0.2745
    6CHL1  H16A  392   1.780   5.526   9.542 -1.3210  1.5382  1.2492
    6CHL1  H16B  393   1.941   5.580   9.523 -1.5395 -0.8447 -0.7026
    6CHL1   C17  394   1.928   5.365   9.578 -0.1142 -0.6002  0.4745
    6CHL1   H17  395   2.038   5.373   9.574 -0.2561  0.5318 -1.6773
    6CHL1   C13  396   1.879   5.316   9.717 -0.2382  0.2953  0.1194
    6CHL1   C18  397   1.720   5.313   9.716  0.3416 -0.1320  0.0602
    6CHL1  H18A  398   1.673   5.231   9.658 -2.7194  1.2658  0.4557
    6CHL1  H18B  399   1.687   5.306   9.822  0.2790 -1.2193 -0.0300
    6CHL1  H18C  400   1.682   5.412   9.681  0.7237 -0.4447 -1.2593
    6CHL1   C12  401   1.924   5.183   9.775 -1.0858  0.4042 -0.0138
    6CHL1  H12A  402   1.889   5.093   9.720  0.2845  0.2646 -0.6675
    6CHL1  H12B  403   2.035   5.181   9.770 -1.1108  2.3393 -1.8196
    6CHL1   C11  404   1.894   5.165   9.923 -0.2921  1.0466  0.1585
    6CHL1  H11A  405   1.785   5.143   9.928  0.1885 -1.3848  0.7565
    6CHL1  H11B  406   1.947   5.075   9.962  0.4818  0.4208 -2.2270
    6CHL1    C9  407   1.931   5.290  10.013 -0.5836 -0.5894  0.3345
    6CHL1    H9  408   2.042   5.292  10.013 -0.5090 -1.5783 -2.5108
    6CHL1   C10  409   1.883   5.277  10.163  0.4017  0.7732  0.6644
    6CHL1   C19  410   1.738   5.221  10.169  0.5198  0.0329 -0.1554
    6CHL1  H19A  411   1.660   5.272  10.109 -1.8772 -2.1894  1.0003
    6CHL1  H19B  412   1.736   5.117  10.132  1.7744  0.9671 -3.0593
    6CHL1  H19C  413   1.697   5.227  10.272  0.6756  1.2766 -0.1583
    6CHL1    C1  414   1.974   5.175  10.234  0.6489 -0.4584  0.4951
    6CHL1   H1A  415   1.959   5.074  10.189 -0.8066 -0.0380  0.0360
    6CHL1   H1B  416   2.081   5.205  10.227 -0.0944  2.4757  0.9193
    6CHL1    C2  417   1.935   5.150  10.384 -1.0090  0.2084 -0.1793
    6CHL1   H2A  418   2.004   5.073  10.425  0.6246  0.5815 -2.1340
    6CHL1   H2B  419   1.829   5.118  10.389 -0.9865 -0.0514 -1.0832
    6CHL1   C20  420   1.887   5.294   9.453  0.1900  0.2095 -0.1217
    6CHL1   H20  421   1.777   5.275   9.460 -0.0705  0.3182 -3.4648
    6CHL1   C21  422   1.959   5.152   9.437 -0.7136 -0.8576  1.5250
    6CHL1  H21A  423   2.049   5.164   9.373 -0.4356 -1.0370  1.8828
    6CHL1  H21B  424   1.898   5.073   9.390  2.0270 -1.1714 -1.6007
    6CHL1  H21C  425   1.999   5.120   9.536  0.9250 -2.9095  0.2343
    6CHL1   C22  426   1.904   5.376   9.326  0.2356  0.1547 -0.0717
    6CHL1  H22A  427   1.850   5.472   9.336 -2.3555 -1.1073 -1.4490
    6CHL1  H22B  428   2.010   5.396   9.300  0.5107 -2.4024 -1.0554
    6CHL1   C23  429   1.845   5.298   9.208  0.4853  0.2196 -0.6900
    6CHL1  H23A  430   1.936   5.245   9.173 -0.0793 -0.6706 -0.8365
    6CHL1  H23B  431   1.757   5.235   9.233  0.5929  0.4928  0.4318
    6CHL1   C24  432   1.801   5.396   9.091 -0.1487 -0.0476 -0.5229
    6CHL1  H24A  433   1.723   5.461   9.136  1.4151  0.3315  1.6919
    6CHL1  H24B  434   1.887   5.461   9.063 -0.8964  1.8735  1.5565
    6CHL1   C25  435   1.741   5.324   8.966 -0.4258 -0.3520  1.0564
    6CHL1   H25  436   1.808   5.236   8.954  1.1060  0.7115  1.7009
    6CHL1   C26  437   1.597   5.282   8.995  0.1951 -0.6686 -0.0278
    6CHL1  H26A  438   1.590   5.204   9.073  1.0039 -1.7551 -1.0050
    6CHL1  H26B  439   1.534   5.366   9.029  2.0697 -0.6001  3.5243
    6CHL1  H26C  440   1.562   5.233   8.901  1.1846  1.0246 -1.3197
    6CHL1   C27  441   1.743   5.413   8.834  0.4811 -0.5471  1.1652
    6CHL1  H27A  442   1.683   5.507   8.837  3.6814  1.7068 -2.0413
    6CHL1  H27B  443   1.847   5.435   8.803  1.2831 -0.6120  3.6485
    6CHL1  H27C  444   1.702   5.362   8.744 -1.5112  1.8083  0.6755
    7CHL1    C3  445   4.413   1.841  10.367  0.4802 -0.0528  0.5951
    7CHL1    H3  446   4.307   1.841  10.331  0.7576  0.1331 -0.2460
    7CHL1    O3  447   4.425   1.816  10.507  0.1852  0.5464  0.0206
    7CHL1   H3'  448   4.378   1.733  10.516  0.9787 -0.0641 -1.3460
    7CHL1    C4  449   4.486   1.742  10.278  0.8140  0.3665  0.0859
    7CHL1   H4A  450   4.587   1.758  10.320  0.8444  1.0038 -0.2379
    7CHL1   H4B  451   4.451   1.637  10.294 -0.0961  0.7913  0.9887
    7CHL1    C5  452   4.472   1.780  10.133  0.4005 -0.3560  0.0046
    7CHL1    C6  453   4.407   1.697  10.048  0.0931 -0.2902 -0.9549
    7CHL1    H6  454   4.360   1.606  10.088 -0.5481 -0.3870 -1.8960
    7CHL1    C7  455   4.402   1.719   9.899  0.1351 -0.3607 -0.1273
    7CHL1   H7A  456   4.419   1.624   9.846 -0.4325 -0.0902 -0.7974
    7CHL1   H7B  457   4.304   1.762   9.870  0.9501  1.1778 -0.6881
    7CHL1    C8  458   4.504   1.827   9.859  0.3162 -0.3846  0.2706
    7CHL1    H8  459   4.604   1.780   9.852  1.5704  2.2081  0.3095
    7CHL1   C14  460   4.475   1.876   9.706  0.0720 -0.9172  0.4496
    7CHL1   H14  461   4.372   1.916   9.714 -0.0390 -1.2008  0.4682
    7CHL1   C15  462   4.474   1.775   9.597 -0.2680  0.1144  0.3696
    7CHL1  H15A  463   4.552   1.699   9.617  1.2811  1.6916  0.5143
    7CHL1  H15B  464   4.373   1.728   9.595 -1.1880  2.0808 -1.0411
    7CHL1   C16  465   4.490   1.856   9.469 -0.3815  0.4522 -0.0274
    7CHL1  H16A  466   4.585   1.835   9.415 -0.5973 -0.1248 -0.1898
    7CHL1  H16B  467   4.410   1.838   9.394  2.3622 -2.8943 -2.3163
    7CHL1   C17  468   4.502   2.006   9.514  0.4940 -0.1724  0.5053
    7CHL1   H17  469   4.401   2.051   9.519  0.6194  0.1171  0.4587
    7CHL1   C13  470   4.554   1.994   9.654 -0.4286 -1.0469  0.0865
    7CHL1   C18  471   4.702   1.952   9.661  0.2013  0.4164 -0.7108
    7CHL1  H18A  472   4.736   1.935   9.765 -1.3683 -0.7256 -0.3653
    7CHL1  H18B  473   4.721   1.854   9.613 -1.3472  0.1379 -0.7938
    7CHL1  H18C  474   4.772   2.023   9.612 -1.3225  2.0897 -0.5055
    7CHL1   C12  475   4.533   2.118   9.754  0.4691 -0.2922 -0.5840
    7CHL1  H12A  476   4.595   2.203   9.715  0.2007 -0.4276 -1.3212
    7CHL1  H12B  477   4.427   2.148   9.743  0.3864 -0.7689 -1.0885
    7CHL1   C11  478   4.569   2.080   9.905  0.4104  0.8765  0.2385
    7CHL1  H11A  479   4.680   2.080   9.916  0.1949  1.1885  2.5284
    7CHL1  H11B  480   4.535   2.170   9.960 -1.4261  0.6102 -0.4408
    7CHL1    C9  481   4.502   1.949   9.953  0.7397  0.0240  0.1468
    7CHL1    H9  482   4.394   1.973   9.956  0.4296 -1.1558 -1.2935
    7CHL1   C10  483   4.540   1.911  10.101 -0.4236  0.3874 -0.2661
    7CHL1   C19  484   4.692   1.900  10.118 -0.0702 -0.2602 -0.1581
    7CHL1  H19A  485   4.734   2.003  10.110 -0.6291  0.1685  2.0261
    7CHL1  H19B  486   4.722   1.881  10.223 -1.4643 -2.0315 -0.0538
    7CHL1  H19C  487   4.742   1.831  10.048  0.5863  0.0975 -0.0467
    7CHL1    C1  488   4.471   2.021  10.185 -0.6994 -0.0870  1.2612
    7CHL1   H1A  489   4.518   2.120  10.165 -0.9842 -0.0380  0.8284
    7CHL1   H1B  490   4.368   2.030  10.144 -1.1076 -2.8535  1.5860
    7CHL1    C2  491   4.466   1.985  10.337 -0.1765 -0.5999  0.2762
    7CHL1   H2A  492   4.410   2.065  10.390 -1.1140 -1.6555  0.9320
    7CHL1   H2B  493   4.568   1.991  10.379 -0.1388  1.0508 -0.0304
    7CHL1   C20  494   4.578   2.082   9.402 -0.2933 -0.1108 -0.4739
    7CHL1   H20  495   4.675   2.031   9.384 -0.5962 -0.2334 -1.8597
    7CHL1   C21  496   4.607   2.229   9.448  0.4919  0.6477  0.0635
    7CHL1  H21A  497   4.657   2.293   9.372 -0.9311  0.2165 -1.2713
    7CHL1  H21B  498   4.679   2.226   9.533 -0.1986  1.6173  0.7011
    7CHL1  H21C  499   4.515   2.274   9.491 -0.7550 -1.3292 -0.5061
    7CHL1   C22  500   4.499   2.080   9.269  0.3523  0.5646  0.2622
    7CHL1  H22A  501   4.495   1.976   9.229 -0.4713  0.0321  1.7028
    7CHL1  H22B  502   4.393   2.102   9.292 -0.6525 -1.8623 -1.6501
    7CHL1   C23  503   4.527   2.179   9.159 -0.0741 -0.2602  0.3287
    7CHL1  H23A  504   4.507   2.281   9.197  0.6161 -0.1344  0.3635
    7CHL1  H23B  505   4.634   2.184   9.128 -0.3775 -2.6520 -1.2451
    7CHL1   C24  506   4.438   2.154   9.031 -0.2152  0.0210 -1.1751
    7CHL1  H24A  507   4.432   2.044   9.013 -0.0162 -0.5634  1.9979
    7CHL1  H24B  508   4.335   2.191   9.050 -1.0514 -2.6516 -0.2028
    7CHL1   C25  509   4.493   2.221   8.899 -0.2546  0.8976  0.0837
    7CHL1   H25  510   4.600   2.193   8.896 -0.6664 -0.5634 -3.5951
    7CHL1   C26  511   4.435   2.151   8.777 -0.0791 -0.5023  1.3111
    7CHL1  H26A  512   4.324   2.147   8.783 -0.0714 -2.2469  0.5297
    7CHL1  H26B  513   4.476   2.191   8.682 -0.6360  0.2798  1.3974
    7CHL1  H26C  514   4.458   2.043   8.784  0.6903 -0.4134  0.2956
    7CHL1   C27  515   4.470   2.369   8.909  0.5791  0.3712 -0.2825
    7CHL1  H27A  516   4.365   2.401   8.896  0.3497 -0.3000 -0.0746
    7CHL1  H27B  517   4.486   2.402   9.014  1.0247  0.4742 -0.3790
    7CHL1  H27C  518   4.531   2.425   8.834 -0.9443  1.2623 -0.8661
    8CHL1    C3  519   5.085   3.153  10.585 -0.0578  0.2408 -0.0948
    8CHL1    H3  520   4.974   3.138  10.588  0.1936 -2.0755 -1.0859
    8CHL1    O3  521   5.123   3.156  10.722 -0.0106 -0.1121  0.0098
    8CHL1   H3'  522   5.193   3.095  10.745 -1.2669 -1.8134 -0.6390
    8CHL1    C4  523   5.148   3.035  10.505 -0.4300 -0.6779  0.6432
    8CHL1   H4A  524   5.257   3.045  10.524 -0.6391 -0.5308  1.7913
    8CHL1   H4B  525   5.106   2.940  10.544 -0.1514 -0.8647  0.4846
    8CHL1    C5  526   5.125   3.036  10.354 -0.7017  0.3693 -0.5002
    8CHL1    C6  527   5.088   2.921  10.290 -0.1859 -0.2311 -0.0103
    8CHL1    H6  528   5.072   2.829  10.348 -1.9450 -1.8639 -2.9380
    8CHL1    C7  529   5.072   2.902  10.138  0.5322  0.0370  0.0517
    8CHL1   H7A  530   5.142   2.821  10.107  1.4077  0.8812 -0.2101
    8CHL1   H7B  531   4.967   2.877  10.113 -0.1907  1.4226  1.6234
    8CHL1    C8  532   5.097   3.028  10.056 -0.3143  0.4170 -0.7375
    8CHL1    H8  533   5.208   3.027  10.052 -0.3344  1.8000 -2.5018
    8CHL1   C14  534   5.030   3.033   9.917  0.1806 -0.8555 -0.1204
    8CHL1   H14  535   4.924   3.043   9.951  0.4105  0.0615  0.3467
    8CHL1   C15  536   5.026   2.912   9.825  0.0567 -0.3979  0.5314
    8CHL1  H15A  537   5.121   2.859   9.802 -0.9693 -1.3114 -1.7870
    8CHL1  H15B  538   4.942   2.843   9.849  0.4288 -1.6392 -1.6275
    8CHL1   C16  539   4.994   2.967   9.688  0.1259 -0.6908  0.1388
    8CHL1  H16A  540   5.065   2.926   9.613  1.3559 -1.6165  1.7752
    8CHL1  H16B  541   4.891   2.944   9.654 -0.0789 -0.2266  0.4369
    8CHL1   C17  542   5.004   3.116   9.700  0.9752 -0.8068 -0.4741
    8CHL1   H17  543   4.900   3.151   9.715  1.1004 -1.4988  2.1428
    8CHL1   C13  544   5.071   3.151   9.832  0.2418  0.1526 -0.2450
    8CHL1   C18  545   5.222   3.146   9.818  0.3267 -0.2212 -0.3741
    8CHL1  H18A  546   5.250   3.229   9.751 -0.2798 -0.5736 -1.0715
    8CHL1  H18B  547   5.275   3.170   9.913  0.6570  0.5152 -0.7418
    8CHL1  H18C  548   5.263   3.049   9.782  1.7755  0.2496 -0.0030
    8CHL1   C12  549   5.026   3.275   9.906  1.0328 -0.9720 -0.1136
    8CHL1  H12A  550   5.062   3.369   9.860  0.6376  0.4509  2.4100
    8CHL1  H12B  551   4.916   3.270   9.915  0.9368 -2.7206 -1.8252
    8CHL1   C11  552   5.079   3.287  10.053 -0.6566 -0.2530  0.0033
    8CHL1  H11A  553   5.185   3.319  10.051 -0.0584 -2.1983 -0.6637
    8CHL1  H11B  554   5.021   3.370  10.099 -2.4634 -0.9643 -0.8958
    8CHL1    C9  555   5.067   3.159  10.143  1.2649  0.5784 -0.0192
    8CHL1    H9  556   4.957   3.153  10.162  1.3797 -0.4684  0.3921
    8CHL1   C10  557   5.134   3.168  10.277  0.3153 -0.5455  0.1161
    8CHL1   C19  558   5.286   3.199  10.261 -0.5528 -0.3381  0.0521
    8CHL1  H19A  559   5.330   3.136  10.181  2.0707  0.2237  1.0034
    8CHL1  H19B  560   5.285   3.305  10.228 -1.0000 -0.6037 -0.7959
    8CHL1  H19C  561   5.349   3.199  10.353 -0.7831 -2.8869  0.2386
    8CHL1    C1  562   5.067   3.280  10.360 -0.7005  0.2218 -0.5180
    8CHL1   H1A  563   5.095   3.380  10.320  0.8483 -0.7316 -1.8544
    8CHL1   H1B  564   4.957   3.267  10.354 -0.4449 -2.0958 -0.7625
    8CHL1    C2  565   5.120   3.282  10.508  0.3476 -0.2118 -0.0607
    8CHL1   H2A  566   5.079   3.375  10.553 -0.8712  0.4828 -2.5100
    8CHL1   H2B  567   5.230   3.300  10.507  0.2124  0.9990  2.8076
    8CHL1   C20  568   5.049   3.192   9.567  0.2256 -0.2529  0.1394
    8CHL1   H20  569   5.158   3.182   9.549  0.1728  0.1987 -0.4872
    8CHL1   C21  570   5.024   3.346   9.587  0.0392  0.6303 -0.5266
    8CHL1  H21A  571   5.040   3.397   9.489  2.2298  0.8138 -0.0912
    8CHL1  H21B  572   5.093   3.393   9.660 -1.8717  1.1969  0.9620
    8CHL1  H21C  573   4.918   3.369   9.612 -0.0246 -0.3454  0.1464
    8CHL1   C22  574   4.974   3.134   9.444  0.3008  0.5153  0.5867
    8CHL1  H22A  575   4.970   3.023   9.445  1.7944  0.4571  0.8308
    8CHL1  H22B  576   4.871   3.175   9.455  0.6764  0.7611  3.6913
    8CHL1   C23  577   5.034   3.186   9.307 -0.0092 -0.2408 -0.2723
    8CHL1  H23A  578   5.039   3.296   9.292 -0.7235 -0.3599 -1.4181
    8CHL1  H23B  579   5.142   3.160   9.295  0.6491  2.2002  0.2018
    8CHL1   C24  580   4.960   3.133   9.178 -0.0582  0.2614 -0.4879
    8CHL1  H24A  581   4.972   3.023   9.175  0.1696  0.1806  2.3729
    8CHL1  H24B  582   4.855   3.168   9.176 -1.2558 -3.1723 -0.5876
    8CHL1   C25  583   5.035   3.199   9.054  0.6742  0.0842 -0.3653
    8CHL1   H25  584   5.038   3.309   9.073  0.3327 -0.1726  1.2544
    8CHL1   C26  585   5.175   3.149   9.037 -0.4230 -0.5578  0.1385
    8CHL1  H26A  586   5.229   3.192   9.123 -0.7405 -1.8230  0.9902
    8CHL1  H26B  587   5.172   3.038   9.042 -0.1541 -0.5583  0.3075
    8CHL1  H26C  588   5.225   3.187   8.945 -0.9898  2.0885  0.8811
    8CHL1   C27  589   4.963   3.182   8.926 -0.1192  0.3094  0.6361
    8CHL1  H27A  590   4.853   3.199   8.930 -0.1380  0.3900 -0.1455
    8CHL1  H27B  591   5.008   3.244   8.846  0.5210 -0.1021  0.6733
    8CHL1  H27C  592   4.973   3.075   8.897  0.6204  0.1120  1.6015
    9CHL1    C3  593   0.939   0.376  10.049 -0.5224  0.1734  0.1222
    9CHL1    H3  594   0.833   0.365  10.083  0.0976 -0.0453  2.0249
    9CHL1    O3  595   1.012   0.426  10.158 -0.1887 -0.0267 -0.5409
    9CHL1   H3'  596   1.104   0.424  10.129 -0.3029 -1.0068 -0.8580
    9CHL1    C4  597   0.994   0.241  10.002  0.5375 -0.0126  0.2771
    9CHL1   H4A  598   1.101   0.252   9.976 -0.0033 -0.1204 -2.1783
    9CHL1   H4B  599   0.983   0.165  10.081 -0.5315  0.7484  0.8837
    9CHL1    C5  600   0.920   0.191   9.880  0.7233 -0.4132 -0.6840
    9CHL1    C6  601   0.854   0.074   9.874  0.0497  0.6430  0.7500
    9CHL1    H6  602   0.867   0.011   9.963 -1.4256 -0.5892  0.1043
    9CHL1    C7  603   0.802   0.022   9.747  0.0582  0.7212  0.7319
    9CHL1   H7A  604   0.823  -0.086   9.729  1.4022  1.2910 -1.3435
    9CHL1   H7B  605   0.692   0.031   9.752 -0.2719 -2.2073 -0.1967
    9CHL1    C8  606   0.833   0.101   9.615 -0.2688  0.1725  0.0404
    9CHL1    H8  607   0.936   0.067   9.590 -0.8010 -2.7664  1.6399
    9CHL1   C14  608   0.737   0.056   9.500 -0.6200 -0.5513 -0.1631
    9CHL1   H14  609   0.634   0.080   9.533  0.3282  2.0457  1.0593
    9CHL1   C15  610   0.728  -0.093   9.458 -0.0838  0.6470 -0.0271
    9CHL1  H15A  611   0.831  -0.129   9.440  1.1149  3.5397  0.7521
    9CHL1  H15B  612   0.670  -0.142   9.539 -2.8850  1.7920 -1.2792
    9CHL1   C16  613   0.655  -0.091   9.325 -0.6059  0.1858  0.1756
    9CHL1  H16A  614   0.724  -0.127   9.245  0.0272  0.7022  0.4852
    9CHL1  H16B  615   0.563  -0.152   9.321 -0.4989  0.0733 -0.7871
    9CHL1   C17  616   0.627   0.061   9.293  0.2261  1.1098  0.3066
    9CHL1   H17  617   0.536   0.086   9.351 -0.7336 -0.1008 -0.6650
    9CHL1   C13  618   0.744   0.139   9.370 -0.0068 -0.1311  0.3442
    9CHL1   C18  619   0.876   0.102   9.302  0.0153 -0.7136 -0.0307
    9CHL1  H18A  620   0.878   0.009   9.242  0.7047  0.7280 -2.2963
    9CHL1  H18B  621   0.893   0.181   9.226  1.0676  0.4681  1.3968
    9CHL1  H18C  622   0.960   0.101   9.375 -1.3041  0.0850  1.5363
    9CHL1   C12  623   0.726   0.287   9.409 -0.8074  0.0001  0.0788
    9CHL1  H12A  624   0.733   0.349   9.316  1.6528 -1.3548 -0.6745
    9CHL1  H12B  625   0.634   0.302   9.470 -1.1985  0.3805 -0.5931
    9CHL1   C11  626   0.834   0.338   9.510 -1.0200 -0.4757 -0.6214
    9CHL1  H11A  627   0.928   0.322   9.453 -1.4977  2.1378 -2.2170
    9CHL1  H11B  628   0.808   0.444   9.527  1.4669  0.3050 -1.4749
    9CHL1    C9  629   0.830   0.254   9.641  0.0161 -1.0291  0.5491
    9CHL1    H9  630   0.729   0.264   9.687 -0.0282 -1.3758  0.5215
    9CHL1   C10  631   0.921   0.292   9.769  0.0697  0.0319 -0.4256
    9CHL1   C19  632   1.065   0.307   9.707 -0.1212 -0.0472  0.7187
    9CHL1  H19A  633   1.089   0.224   9.637  0.3058  0.3305  0.4140
    9CHL1  H19B  634   1.059   0.401   9.647 -2.3257 -0.4010  0.3408
    9CHL1  H19C  635   1.144   0.317   9.784 -0.5576  1.7750  0.9700
    9CHL1    C1  636   0.873   0.426   9.813 -0.4948 -0.0586  0.1535
    9CHL1   H1A  637   0.892   0.495   9.728  2.4436 -2.0856 -0.9149
    9CHL1   H1B  638   0.766   0.430   9.840  0.0315  1.2392  2.1466
    9CHL1    C2  639   0.958   0.474   9.935  0.2378 -0.3739  0.7470
    9CHL1   H2A  640   0.920   0.572   9.969 -0.8681  0.1056 -1.7218
    9CHL1   H2B  641   1.062   0.494   9.901 -0.1645  1.4953  0.5830
    9CHL1   C20  642   0.619   0.095   9.145 -0.1389 -0.1658  0.1412
    9CHL1   H20  643   0.722   0.116   9.108 -1.0057  2.9807 -0.6242
    9CHL1   C21  644   0.534   0.224   9.134 -0.0410 -0.4863 -0.6545
    9CHL1  H21A  645   0.540   0.270   9.033 -1.1086  0.9001 -0.1073
    9CHL1  H21B  646   0.568   0.307   9.201 -0.0411 -2.2352  1.5789
    9CHL1  H21C  647   0.429   0.197   9.155 -0.5731  2.1081  0.2880
    9CHL1   C22  648   0.553  -0.018   9.055 -0.5683  0.3408 -0.7880
    9CHL1  H22A  649   0.621  -0.104   9.034  2.8849  2.4274  1.3570
    9CHL1  H22B  650   0.452  -0.050   9.088 -0.1779 -1.0969 -0.9341
    9CHL1   C23  651   0.529   0.029   8.903 -0.1555 -0.0293  0.6704
    9CHL1  H23A  652   0.468  -0.060   8.876 -0.1317 -0.1523  1.0199
    9CHL1  H23B  653   0.468   0.120   8.888  1.0630  0.1939 -3.6086
    9CHL1   C24  654   0.664   0.046   8.834 -0.5450  0.1438  0.4321
    9CHL1  H24A  655   0.701   0.132   8.894 -1.7783  0.0401  1.3537
    9CHL1  H24B  656   0.725  -0.045   8.851  0.6138  0.2534 -2.7750
    9CHL1   C25  657   0.652   0.096   8.687  0.2586 -0.2139 -0.1594
    9CHL1   H25  658   0.613   0.200   8.688 -1.4833 -0.8253 -1.8443
    9CHL1   C26  659   0.785   0.093   8.621 -0.0752  0.1049  0.5608
    9CHL1  H26A  660   0.857   0.127   8.699  1.1451 -2.2855  0.5113
    9CHL1  H26B  661   0.827  -0.005   8.591 -0.8843  0.6195 -2.4019
    9CHL1  H26C  662   0.788   0.159   8.532 -0.3386  2.4219  2.2095
    9CHL1   C27  663   0.566  -0.002   8.600 -0.6168 -0.2045  0.1863
    9CHL1  H27A  664   0.620  -0.099   8.606  0.2514  0.3656  1.6554
    9CHL1  H27B  665   0.463  -0.018   8.638  0.0418 -3.4136  0.8385
    9CHL1  H27C  666   0.567   0.028   8.493 -0.3769 -1.1882 -0.0929
   10CHL1    C3  667   0.048   4.110  10.161  0.2913 -0.2394 -0.2849
   10CHL1    H3  668   0.119   4.025  10.164  0.0080 -0.4352  0.9371
   10CHL1    O3  669   0.056   4.156  10.296 -0.7043 -0.3164 -0.1758
   10CHL1   H3'  670   0.036   4.250  10.290  0.2265 -0.1670 -1.3289
   10CHL1    C4  671   0.084   4.209  10.048 -0.4764  0.6303 -0.7961
   10CHL1   H4A  672   0.027   4.304  10.041 -1.4243  0.2770  1.5178
   10CHL1   H4B  673   0.185   4.249  10.068 -0.2601 -0.8516  1.3102
   10CHL1    C5  674   0.096   4.137   9.919  0.6552 -0.6437  0.4344
   10CHL1    C6  675   0.204   4.136   9.833  0.3996  0.2757  0.1956
   10CHL1    H6  676   0.289   4.199   9.863 -0.1543  1.1780 -0.1106
   10CHL1    C7  677   0.215   4.070   9.697  0.2604 -0.1178  0.8609
   10CHL1   H7A  678   0.252   4.141   9.620 -1.3773  1.3768  1.4137
   10CHL1   H7B  679   0.284   3.983   9.705  0.2059 -0.0946  1.6096
   10CHL1    C8  680   0.067   4.031   9.656 -0.0124  0.4716  0.1256
   10CHL1    H8  681   0.023   4.127   9.623 -1.9513 -0.0590  1.0904
   10CHL1   C14  682   0.074   3.930   9.551 -0.3576  0.0538 -0.2530
   10CHL1   H14  683   0.109   3.842   9.608 -3.0821 -0.3011  0.9540
   10CHL1   C15  684   0.167   3.951   9.428  0.8290 -0.1297  0.4111
   10CHL1  H15A  685   0.157   4.052   9.382 -0.2998  1.0839  3.2335
   10CHL1  H15B  686   0.276   3.932   9.440  1.7748  3.0290 -2.3901
   10CHL1   C16  687   0.122   3.850   9.324  0.2466  0.6413  0.2915
   10CHL1  H16A  688   0.103   3.910   9.232 -1.2009  1.0469  0.8579
   10CHL1  H16B  689   0.198   3.773   9.297  0.1156  0.5207  0.2684
   10CHL1   C17  690  -0.011   3.785   9.386 -0.3238 -0.1316  0.0174
   10CHL1   H17  691   0.024   3.694   9.439  1.4499  2.9033  4.3323
   10CHL1   C13  692  -0.057   3.875   9.502  0.4706  0.3786  0.6151
   10CHL1   C18  693  -0.132   3.992   9.440 -0.1079  0.0398  0.0401
   10CHL1  H18A  694  -0.148   4.072   9.516 -0.4215 -1.5289  1.6467
   10CHL1  H18B  695  -0.073   4.033   9.355 -0.4664 -1.0874 -0.7556
   10CHL1  H18C  696  -0.234   3.973   9.400 -0.6732  1.5643  0.6910
   10CHL1   C12  697  -0.138   3.801   9.615 -0.6355 -0.1234  0.2340
   10CHL1  H12A  698  -0.230   3.780   9.555 -1.0394 -0.1172  0.8439
   10CHL1  H12B  699  -0.092   3.710   9.658 -0.0918 -0.3967 -0.9010
   10CHL1   C11  700  -0.150   3.902   9.728  0.5252  0.4227  0.2618
   10CHL1  H11A  701  -0.223   3.984   9.711 -0.0150 -0.2648 -0.7272
   10CHL1  H11B  702  -0.202   3.836   9.800  0.2210  1.8332  1.3604
   10CHL1    C9  703  -0.011   3.961   9.772  0.4304  0.9848 -0.2478
   10CHL1    H9  704   0.068   3.891   9.806 -0.9399 -1.4203 -1.8649
   10CHL1   C10  705  -0.034   4.062   9.891  0.2261 -0.1471  0.5812
   10CHL1   C19  706  -0.142   4.169   9.858  1.1521 -0.4141  0.1895
   10CHL1  H19A  707  -0.239   4.115   9.861  1.3891 -0.7654  3.0059
   10CHL1  H19B  708  -0.153   4.250   9.933  1.2253 -0.2257 -0.0037
   10CHL1  H19C  709  -0.132   4.220   9.760  0.6891  1.8463  1.2914
   10CHL1    C1  710  -0.086   3.982  10.014 -0.1633  0.1251 -0.4379
   10CHL1   H1A  711  -0.181   3.937   9.979 -0.1896  1.1563 -1.7279
   10CHL1   H1B  712  -0.023   3.893  10.037 -0.7692 -0.5354 -1.2844
   10CHL1    C2  713  -0.091   4.058  10.145 -0.5116 -0.1950  0.2829
   10CHL1   H2A  714  -0.109   3.976  10.218 -2.6227 -0.0886 -0.0848
   10CHL1   H2B  715  -0.168   4.136  10.133 -0.1890  0.0861  0.0294
   10CHL1   C20  716  -0.120   3.732   9.291 -0.0545 -0.0092  0.3114
   10CHL1   H20  717  -0.185   3.817   9.261 -1.2520 -0.8202  0.5303
   10CHL1   C21  718  -0.211   3.620   9.360 -0.4421 -0.4086 -0.1366
   10CHL1  H21A  719  -0.305   3.670   9.394 -1.3441 -1.8936 -0.4280
   10CHL1  H21B  720  -0.167   3.552   9.435  0.3177 -1.6274 -1.6502
   10CHL1  H21C  721  -0.240   3.556   9.274 -0.5457 -0.3632 -0.1364
   10CHL1   C22  722  -0.054   3.673   9.167  0.2187 -0.5616  0.3435
   10CHL1  H22A  723   0.037   3.724   9.128  0.5558 -2.0380 -0.8330
   10CHL1  H22B  724  -0.030   3.568   9.194  0.7195  0.1266  2.7398
   10CHL1   C23  725  -0.142   3.664   9.046  0.1535 -0.5876  0.6014
   10CHL1  H23A  726  -0.241   3.618   9.068 -0.6939  0.4198 -0.9979
   10CHL1  H23B  727  -0.174   3.766   9.015  2.5811 -0.0463 -0.2329
   10CHL1   C24  728  -0.078   3.600   8.922 -0.5635 -0.0027 -0.8419
   10CHL1  H24A  729  -0.008   3.674   8.877  1.6194 -1.4629  0.0490
   10CHL1  H24B  730  -0.021   3.509   8.950 -0.2763  1.0029  1.9261
   10CHL1   C25  731  -0.184   3.552   8.825 -0.3335 -0.0338  0.0458
   10CHL1   H25  732  -0.240   3.466   8.868 -2.3804  2.0944  1.8218
   10CHL1   C26  733  -0.282   3.667   8.792 -0.5004  0.5421  0.1234
   10CHL1  H26A  734  -0.353   3.679   8.876 -1.2327  0.2398 -0.4538
   10CHL1  H26B  735  -0.235   3.763   8.761  2.7805 -0.7499  0.8209
   10CHL1  H26C  736  -0.349   3.637   8.709 -1.4249 -0.3599  1.2015
   10CHL1   C27  737  -0.120   3.505   8.694  0.6075  0.3743 -0.3364
   10CHL1  H27A  738  -0.185   3.457   8.617  2.0661  1.9935 -2.6725
   10CHL1  H27B  739  -0.087   3.598   8.644  0.9248 -0.6299 -2.0568
   10CHL1  H27C  740  -0.038   3.436   8.722  0.5943  0.4852 -0.0225
   11CHL1    C3  741   2.579   6.551   9.887  0.6937 -0.1047 -0.3193
   11CHL1    H3  742   2.484   6.594   9.848  1.2969  0.9941 -0.5818
   11CHL1    O3  743   2.585   6.578  10.021  0.0974  0.0985 -0.1878
   11CHL1   H3'  744   2.672   6.550  10.050  0.5550  2.7122  1.1370
   11CHL1    C4  745   2.571   6.397   9.868 -0.0354  0.1960  0.3395
   11CHL1   H4A  746   2.640   6.346   9.939  0.1386 -1.9275 -1.3087
   11CHL1   H4B  747   2.467   6.370   9.896 -0.4446  1.0059 -0.3821
   11CHL1    C5  748   2.591   6.358   9.723 -0.3846 -0.0813 -1.2599
   11CHL1    C6  749   2.502   6.282   9.662 -0.1574 -0.1289 -0.0436
   11CHL1    H6  750   2.417   6.238   9.714  0.1837 -0.5534  0.1598
   11CHL1    C7  751   2.518   6.239   9.516 -0.0907  0.2416 -0.3230
   11CHL1   H7A  752   2.474   6.138   9.501 -1.0575  0.7328 -0.8722
   11CHL1   H7B  753   2.467   6.305   9.442  0.7490  0.2020 -0.9366
   11CHL1    C8  754   2.661   6.247   9.465 -0.1202  0.1714 -0.0728
   11CHL1    H8  755   2.718   6.165   9.512 -2.2535 -0.1629  2.0404
   11CHL1   C14  756   2.661   6.227   9.311  0.0914  0.2786  0.6573
   11CHL1   H14  757   2.603   6.312   9.270 -1.8305 -0.7236  1.2448
   11CHL1   C15  758   2.599   6.103   9.248  0.0539 -0.2154  0.1285
   11CHL1  H15A  759   2.612   6.009   9.307 -1.0273 -2.4218 -3.0229
   11CHL1  H15B  760   2.490   6.108   9.264  0.0239  2.2491 -0.6763
   11CHL1   C16  761   2.663   6.097   9.111 -1.0043 -0.2797 -0.7899
   11CHL1  H16A  762   2.719   6.002   9.098 -0.2411  0.2904 -1.7056
   11CHL1  H16B  763   2.582   6.107   9.036 -0.9281 -0.3413 -0.8803
   11CHL1   C17  764   2.765   6.211   9.095 -0.4554 -0.0124  0.0108
   11CHL1   H17  765   2.705   6.300   9.065 -0.5575  0.6240  2.0306
   11CHL1   C13  766   2.805   6.254   9.245 -0.1199 -0.2359 -0.1780
   11CHL1   C18  767   2.910   6.152   9.295  0.5623  0.8871 -0.3662
   11CHL1  H18A  768   2.868   6.049   9.285 -0.5513  1.3413 -0.4177
   11CHL1  H18B  769   3.008   6.166   9.245  1.9086  0.6894  2.1345
   11CHL1  H18C  770   2.933   6.163   9.403 -1.6101  1.1137  0.0928
   11CHL1   C12  771   2.853   6.388   9.284  0.1476 -0.2389 -0.2008
   11CHL1  H12A  772   2.959   6.393   9.251  0.6112 -1.1739  1.1380
   11CHL1  H12B  773   2.786   6.461   9.234 -0.1010 -1.2276 -1.3370
   11CHL1   C11  774   2.855   6.414   9.431 -0.4159  0.0381 -0.1793
   11CHL1  H11A  775   2.942   6.358   9.473  0.1358  0.8293 -0.2551
   11CHL1  H11B  776   2.886   6.518   9.457  0.0920  0.0374 -0.7590
   11CHL1    C9  777   2.716   6.383   9.499 -0.3564  0.6261 -0.5387
   11CHL1    H9  778   2.654   6.459   9.448  2.5428  3.2344 -0.3124
   11CHL1   C10  779   2.717   6.418   9.651  0.7264  1.2795  0.7305
   11CHL1   C19  780   2.839   6.351   9.714 -0.4139 -0.2485  0.1576
   11CHL1  H19A  781   2.935   6.388   9.670 -0.3211 -0.6957 -0.0204
   11CHL1  H19B  782   2.844   6.362   9.824  0.4062  1.7082 -0.0511
   11CHL1  H19C  783   2.829   6.242   9.698 -0.7444 -0.1353 -0.4344
   11CHL1    C1  784   2.714   6.572   9.672  0.3764 -0.5481 -0.0135
   11CHL1   H1A  785   2.794   6.639   9.633 -2.0331  2.3918 -0.1176
   11CHL1   H1B  786   2.627   6.599   9.608 -0.2614 -4.7632 -1.0595
   11CHL1    C2  787   2.699   6.617   9.820  0.2446 -0.0318  0.0708
   11CHL1   H2A  788   2.698   6.724   9.849  2.3784 -0.3467  1.4152
   11CHL1   H2B  789   2.793   6.576   9.863  0.2257 -2.8448 -2.3799
   11CHL1   C20  790   2.872   6.194   8.990 -0.3425 -0.5085  0.0722
   11CHL1   H20  791   2.940   6.109   9.014 -0.6180 -1.3662 -2.0541
   11CHL1   C21  792   2.967   6.313   8.963  1.1435 -0.0892  0.2219
   11CHL1  H21A  793   3.060   6.267   8.925  2.0685  0.3741  1.8652
   11CHL1  H21B  794   2.996   6.362   9.059  0.9197 -1.2578  0.8920
   11CHL1  H21C  795   2.910   6.383   8.898  0.8344 -0.5340  0.0155
   11CHL1   C22  796   2.803   6.141   8.861 -0.2944 -0.1647  0.3200
   11CHL1  H22A  797   2.760   6.041   8.880  1.0502 -1.2665 -2.3136
   11CHL1  H22B  798   2.727   6.213   8.825 -0.4968 -0.6005 -0.1191
   11CHL1   C23  799   2.899   6.121   8.740 -0.2309 -0.2730  0.0892
   11CHL1  H23A  800   2.941   6.221   8.719 -0.9608 -0.2450 -1.3198
   11CHL1  H23B  801   2.989   6.061   8.765 -1.8060 -2.1969  1.3551
   11CHL1   C24  802   2.839   6.055   8.605  0.1553 -0.2902  0.3296
   11CHL1  H24A  803   2.807   5.955   8.642  0.1023 -0.3847  0.0242
   11CHL1  H24B  804   2.752   6.118   8.577  0.6031  0.4385  0.5676
   11CHL1   C25  805   2.946   6.046   8.492  0.5411  0.7162  0.2355
   11CHL1   H25  806   3.044   6.032   8.544 -0.0933 -0.0671  1.2480
   11CHL1   C26  807   2.928   5.935   8.383 -0.2561  0.3771  0.4934
   11CHL1  H26A  808   3.012   5.940   8.312  0.4019  1.2836  1.3208
   11CHL1  H26B  809   2.920   5.835   8.431  2.4522  0.7097  1.7272
   11CHL1  H26C  810   2.835   5.943   8.322 -0.6820  2.7065  1.3834
   11CHL1   C27  811   2.948   6.183   8.414 -0.0752  0.9325 -0.0001
   11CHL1  H27A  812   3.029   6.196   8.339  1.1711  1.3705  1.3665
   11CHL1  H27B  813   2.853   6.197   8.359  0.0535 -1.9316 -1.0048
   11CHL1  H27C  814   2.966   6.267   8.486  1.2070  0.6022  0.0866
   12CHL1    C3  815   6.249   3.248  10.297  0.3172  0.3915  0.6360
   12CHL1    H3  816   6.216   3.353  10.312  3.0157  1.1303  1.6491
   12CHL1    O3  817   6.339   3.227  10.406 -0.5168  0.0110 -0.2881
   12CHL1   H3'  818   6.345   3.132  10.420 -0.8144 -0.1806 -1.4456
   12CHL1    C4  819   6.133   3.158  10.301  0.1158  0.5628 -0.4337
   12CHL1   H4A  820   6.153   3.049  10.308 -1.7149  0.0413 -2.4304
   12CHL1   H4B  821   6.083   3.178  10.398  0.1703 -0.5828 -0.1690
   12CHL1    C5  822   6.036   3.177  10.184  0.5298 -0.0246  0.5671
   12CHL1    C6  823   5.907   3.203  10.208 -0.6150 -0.2071 -0.2451
   12CHL1    H6  824   5.869   3.225  10.309  2.2231 -0.3094  0.8853
   12CHL1    C7  825   5.806   3.216  10.094  0.8516 -0.0216 -0.9577
   12CHL1   H7A  826   5.707   3.175  10.126  0.9831 -0.0794 -0.6265
   12CHL1   H7B  827   5.793   3.323  10.069 -0.2876 -0.2583 -1.4479
   12CHL1    C8  828   5.865   3.141   9.970 -0.3996  0.1326  0.0876
   12CHL1    H8  829   5.878   3.032   9.986  0.9424  0.0905 -1.1711
   12CHL1   C14  830   5.772   3.169   9.856 -0.2142  0.1866  0.1067
   12CHL1   H14  831   5.772   3.280   9.854  1.8188  0.2255  1.1222
   12CHL1   C15  832   5.622   3.138   9.872 -0.1615  0.3382  1.0998
   12CHL1  H15A  833   5.619   3.030   9.899  1.0772 -0.7451 -2.7423
   12CHL1  H15B  834   5.573   3.204   9.947 -0.1974  0.1495  1.2402
   12CHL1   C16  835   5.565   3.154   9.729 -0.0425  0.6742  0.2904
   12CHL1  H16A  836   5.497   3.069   9.705 -1.7441  2.0968 -0.0739
   12CHL1  H16B  837   5.517   3.251   9.706  1.2888  1.3061  0.1804
   12CHL1   C17  838   5.695   3.159   9.635  1.0202 -0.0445 -0.1842
   12CHL1   H17  839   5.721   3.264   9.612  3.4332 -0.7033 -0.6331
   12CHL1   C13  840   5.815   3.118   9.717 -0.5787 -0.7751 -0.4541
   12CHL1   C18  841   5.831   2.963   9.723 -0.1303  0.1445  0.3501
   12CHL1  H18A  842   5.730   2.917   9.721 -0.6449  1.0727  2.7268
   12CHL1  H18B  843   5.889   2.919   9.639 -3.0812 -2.0498 -0.5978
   12CHL1  H18C  844   5.891   2.932   9.812 -1.6011 -4.1123 -0.0378
   12CHL1   C12  845   5.945   3.192   9.683  0.1728  0.1914 -0.0727
   12CHL1  H12A  846   5.982   3.158   9.584 -0.0866 -0.7682  0.1563
   12CHL1  H12B  847   5.928   3.302   9.683 -0.5527  0.0894 -1.5268
   12CHL1   C11  848   6.051   3.168   9.790  0.0289 -0.3536  0.0233
   12CHL1  H11A  849   6.091   3.066   9.773  3.2214  1.0367 -1.2003
   12CHL1  H11B  850   6.145   3.223   9.768  0.2295  0.3330  2.4086
   12CHL1    C9  851   6.003   3.195   9.933 -1.3797 -0.0809 -0.0314
   12CHL1    H9  852   5.993   3.305   9.947 -1.8937 -0.2891  1.3521
   12CHL1   C10  853   6.100   3.157  10.050 -0.4238 -0.2004  0.0522
   12CHL1   C19  854   6.156   3.010  10.038  0.2655 -0.7348  0.6042
   12CHL1  H19A  855   6.218   2.980  10.125  0.1761 -2.3136  0.1476
   12CHL1  H19B  856   6.077   2.934  10.020  0.8326 -1.2391  0.1935
   12CHL1  H19C  857   6.221   3.002   9.948  1.2731  0.8339  1.1709
   12CHL1    C1  858   6.227   3.254  10.041 -0.5201 -0.0371 -0.1672
   12CHL1   H1A  859   6.283   3.236   9.947 -0.4625  1.9034 -0.5113
   12CHL1   H1B  860   6.179   3.354  10.035  0.1743  0.1891 -2.3210
   12CHL1    C2  861   6.327   3.237  10.164 -0.3696  0.0846  0.4076
   12CHL1   H2A  862   6.402   3.319  10.159 -1.5139  1.0086 -3.4845
   12CHL1   H2B  863   6.386   3.143  10.158 -0.0880  0.0128  3.4227
   12CHL1   C20  864   5.666   3.090   9.508  0.2445  0.7029  0.3940
   12CHL1   H20  865   5.639   2.987   9.540  1.4342  1.1844  3.1261
   12CHL1   C21  866   5.783   3.081   9.407  1.0726  0.3634  0.3471
   12CHL1  H21A  867   5.864   3.012   9.438  1.2033 -0.2219 -1.2787
   12CHL1  H21B  868   5.823   3.184   9.398  0.2838  0.6970  0.5517
   12CHL1  H21C  869   5.755   3.062   9.301  0.0924 -0.0810  0.6737
   12CHL1   C22  870   5.533   3.131   9.436  0.1733  0.1360 -0.0292
   12CHL1  H22A  871   5.519   3.058   9.353 -1.4636  1.2143 -0.7113
   12CHL1  H22B  872   5.452   3.129   9.512  1.7448  2.0422  1.7513
   12CHL1   C23  873   5.533   3.264   9.374  0.4497  0.2858  0.1440
   12CHL1  H23A  874   5.561   3.340   9.451  1.0502  0.7619 -0.5490
   12CHL1  H23B  875   5.615   3.270   9.300  0.9532 -1.4352  0.5327
   12CHL1   C24  876   5.399   3.307   9.308  0.3396 -0.1917  0.1183
   12CHL1  H24A  877   5.368   3.240   9.224  2.8497  0.1189 -1.0763
   12CHL1  H24B  878   5.313   3.289   9.376 -0.4270 -2.0336 -1.2861
   12CHL1   C25  879   5.392   3.464   9.264  0.6212  0.0112  0.3686
   12CHL1   H25  880   5.418   3.531   9.348  0.2233  1.3496 -0.5632
   12CHL1   C26  881   5.498   3.478   9.160  0.1369 -0.0614 -0.1810
   12CHL1  H26A  882   5.487   3.407   9.074  0.7949  1.3082 -1.4102
   12CHL1  H26B  883   5.496   3.578   9.113  0.8072  0.3374  0.6385
   12CHL1  H26C  884   5.598   3.473   9.208 -0.5527  0.9699  1.3815
   12CHL1   C27  885   5.250   3.498   9.214 -0.0054 -0.1433  0.1642
   12CHL1  H27A  886   5.174   3.478   9.293 -0.1955 -1.3386 -0.3117
   12CHL1  H27B  887   5.249   3.606   9.187 -1.1802  0.1826  1.4700
   12CHL1  H27C  888   5.225   3.441   9.122 -2.2745  1.5390 -0.2885
   13CHL1    C3  889   4.762   4.995   9.758 -0.6362  0.5461 -0.0023
   13CHL1    H3  890   4.675   4.942   9.713 -1.5344  0.9596  1.2076
   13CHL1    O3  891   4.755   4.958   9.894 -0.1567  0.1677 -0.2572
   13CHL1   H3'  892   4.787   4.867   9.901  0.0688  0.3400  0.9264
   13CHL1    C4  893   4.900   4.946   9.705  0.4118 -0.3364 -0.1083
   13CHL1   H4A  894   4.969   5.016   9.757  1.0802  1.8674 -3.7522
   13CHL1   H4B  895   4.918   4.843   9.743  1.1424 -0.7057 -1.4164
   13CHL1    C5  896   4.912   4.971   9.559  0.7368 -0.3621 -0.9137
   13CHL1    C6  897   4.928   4.864   9.482 -0.6145 -1.2403 -0.6810
   13CHL1    H6  898   4.951   4.767   9.526 -3.1845 -1.4475  0.2585
   13CHL1    C7  899   4.956   4.867   9.336  0.0787 -0.3241  0.2156
   13CHL1   H7A  900   5.053   4.816   9.317 -0.0191 -0.2607 -0.4681
   13CHL1   H7B  901   4.868   4.820   9.288 -0.6735  0.2353  1.0357
   13CHL1    C8  902   4.955   5.020   9.284  0.2639  0.1872  0.6998
   13CHL1    H8  903   5.055   5.062   9.308  0.5383 -0.9221  1.5374
   13CHL1   C14  904   4.910   5.026   9.137  0.3431  0.3701 -0.0799
   13CHL1   H14  905   4.803   4.994   9.139  0.6042 -0.4916  0.4667
   13CHL1   C15  906   4.967   4.921   9.042  0.0832  0.6883 -0.0422
   13CHL1  H15A  907   5.075   4.894   9.039  0.0607  0.6397 -0.3932
   13CHL1  H15B  908   4.917   4.822   9.053  1.0205  0.3633  1.4019
   13CHL1   C16  909   4.938   4.981   8.903 -0.5758  0.4582 -0.1678
   13CHL1  H16A  910   5.029   4.981   8.839 -0.3101 -2.6556  0.1370
   13CHL1  H16B  911   4.859   4.928   8.846  0.0991 -0.1946 -0.5082
   13CHL1   C17  912   4.890   5.133   8.927 -0.2091  0.5109  0.6716
   13CHL1   H17  913   4.779   5.126   8.927 -0.1518 -2.1419 -2.8315
   13CHL1   C13  914   4.923   5.167   9.069 -0.6123  0.8255 -0.2686
   13CHL1   C18  915   5.074   5.221   9.065 -0.0887  0.6190 -0.4129
   13CHL1  H18A  916   5.115   5.240   9.167  1.0601 -1.7661 -0.3940
   13CHL1  H18B  917   5.136   5.154   9.002 -1.7344 -0.7132 -0.6448
   13CHL1  H18C  918   5.065   5.321   9.016  2.6181  0.1424 -1.9706
   13CHL1   C12  919   4.820   5.268   9.145  0.0443 -0.0910 -0.1238
   13CHL1  H12A  920   4.837   5.375   9.119 -0.1524 -0.3495 -1.3181
   13CHL1  H12B  921   4.715   5.237   9.130  0.4365 -0.3547 -2.4667
   13CHL1   C11  922   4.846   5.260   9.300  0.2415 -0.4329  0.4511
   13CHL1  H11A  923   4.942   5.314   9.310 -0.0314  0.2265 -0.4343
   13CHL1  H11B  924   4.760   5.309   9.351 -0.3186 -1.9716  0.9965
   13CHL1    C9  925   4.850   5.112   9.359 -0.2322  0.9153  0.3618
   13CHL1    H9  926   4.752   5.058   9.353 -0.1577  0.6450  1.5225
   13CHL1   C10  927   4.877   5.118   9.509  0.3804  0.4839 -0.7590
   13CHL1   C19  928   4.997   5.202   9.548  0.0253 -0.2289 -0.5344
   13CHL1  H19A  929   5.093   5.177   9.499  0.6672  4.3467 -1.8110
   13CHL1  H19B  930   4.974   5.308   9.526 -2.4503 -0.2632  1.6019
   13CHL1  H19C  931   5.009   5.203   9.659  0.8775  4.1395 -0.5909
   13CHL1    C1  932   4.745   5.161   9.587 -0.4106  0.4142  0.3542
   13CHL1   H1A  933   4.727   5.269   9.564 -0.0321  0.1888 -1.0296
   13CHL1   H1B  934   4.657   5.124   9.529 -0.2562  1.2161 -0.4028
   13CHL1    C2  935   4.739   5.142   9.738  0.4180 -0.1315  0.3640
   13CHL1   H2A  936   4.645   5.174   9.786  1.3527  0.4862  1.7984
   13CHL1   H2B  937   4.819   5.204   9.784 -0.1258 -0.0251  1.1605
   13CHL1   C20  938   4.925   5.232   8.810 -0.4306 -0.4177 -0.2184
   13CHL1   H20  939   5.035   5.227   8.791 -0.2858 -1.5812  0.8463
   13CHL1   C21  940   4.883   5.380   8.832  0.4386  0.0954  0.1020
   13CHL1  H21A  941   4.931   5.412   8.927  0.4689  0.7336 -0.1237
   13CHL1  H21B  942   4.772   5.390   8.836  0.1813  0.1903 -4.2568
   13CHL1  H21C  943   4.941   5.447   8.765 -0.1431  1.0727  0.5597
   13CHL1   C22  944   4.856   5.189   8.684  0.8110 -0.4527  0.1479
   13CHL1  H22A  945   4.861   5.081   8.657 -0.3802 -0.2621 -0.8786
   13CHL1  H22B  946   4.750   5.209   8.711  1.2579  0.8847  0.9585
   13CHL1   C23  947   4.879   5.280   8.557  0.1913 -0.5844 -0.8350
   13CHL1  H23A  948   4.814   5.247   8.474 -0.5463  0.3934 -0.6562
   13CHL1  H23B  949   4.850   5.383   8.586  0.0964 -1.5773  2.8821
   13CHL1   C24  950   5.027   5.275   8.500 -0.3168 -0.6344  0.8094
   13CHL1  H24A  951   5.094   5.295   8.586 -0.9506 -1.2301  1.4544
   13CHL1  H24B  952   5.054   5.177   8.456 -1.6008 -2.3252  3.6269
   13CHL1   C25  953   5.056   5.381   8.398 -0.7651 -0.2507  1.0721
   13CHL1   H25  954   5.041   5.477   8.452  1.0429  0.9920 -0.5481
   13CHL1   C26  955   5.206   5.383   8.359  0.4779 -0.4119  0.1641
   13CHL1  H26A  956   5.218   5.455   8.275  3.2085  1.6606  2.2495
   13CHL1  H26B  957   5.268   5.421   8.443  0.5962  2.1250 -1.0237
   13CHL1  H26C  958   5.235   5.283   8.321 -0.3195 -0.4204 -0.4413
   13CHL1   C27  959   4.977   5.368   8.269  0.0313  0.2159  0.0171
   13CHL1  H27A  960   4.995   5.444   8.190 -2.8316  0.1359 -0.7575
   13CHL1  H27B  961   5.013   5.273   8.224  1.7056  1.6137 -1.6651
   13CHL1  H27C  962   4.868   5.359   8.291  0.1380  0.1938  0.5334
   14CHL1    C3  963   4.057   1.423  10.301  0.6765  0.0516  0.2498
   14CHL1    H3  964   4.162   1.456  10.287  0.4905  0.1833 -0.9271
   14CHL1    O3  965   4.016   1.439  10.438 -0.1752  0.7489 -0.5354
   14CHL1   H3'  966   3.927   1.404  10.448  0.9365 -1.9948  0.1441
   14CHL1    C4  967   3.964   1.512  10.219  0.2567  0.4860 -0.2312
   14CHL1   H4A  968   3.856   1.487  10.231  0.6240 -0.8890  0.2291
   14CHL1   H4B  969   3.971   1.621  10.240  0.3027  1.1740 -3.5508
   14CHL1    C5  970   3.987   1.490  10.070 -0.4741  0.0943 -0.4631
   14CHL1    C6  971   4.018   1.586   9.987  0.2665  0.1706 -0.0131
   14CHL1    H6  972   4.036   1.687  10.026  1.4808  0.4000 -1.1056
   14CHL1    C7  973   4.020   1.570   9.839 -0.9712 -0.5214  0.3619
   14CHL1   H7A  974   3.984   1.658   9.780  2.4564  1.4599  1.0856
   14CHL1   H7B  975   4.125   1.571   9.804 -1.0899  1.6126 -0.0489
   14CHL1    C8  976   3.963   1.434   9.784  0.3003  0.1824  0.4401
   14CHL1    H8  977   3.853   1.446   9.782  0.3716  0.6250 -1.7418
   14CHL1   C14  978   4.019   1.407   9.647 -0.3182  0.2973 -0.0250
   14CHL1   H14  979   4.129   1.407   9.663 -0.3113  2.2985  0.0616
   14CHL1   C15  980   3.995   1.514   9.538 -0.0496 -0.0027  0.2229
   14CHL1  H15A  981   3.903   1.571   9.563  0.4684  0.8667  0.1465
   14CHL1  H15B  982   4.079   1.585   9.552  1.8663 -2.7255  3.4266
   14CHL1   C16  983   4.014   1.447   9.402  0.3483  0.6114  0.4915
   14CHL1  H16A  984   3.919   1.447   9.345  1.2113  0.5350 -0.9843
   14CHL1  H16B  985   4.096   1.501   9.350  1.8447  0.7330  2.9230
   14CHL1   C17  986   4.053   1.299   9.432  0.6203  0.5163 -0.5321
   14CHL1   H17  987   4.163   1.312   9.442  0.5621  0.3002  0.3953
   14CHL1   C13  988   3.986   1.279   9.581 -0.0287  0.3148  0.2063
   14CHL1   C18  989   3.839   1.273   9.555  0.1412  0.2573  0.2092
   14CHL1  H18A  990   3.827   1.171   9.513 -0.7431  0.1880  0.6046
   14CHL1  H18B  991   3.772   1.277   9.644  1.4130 -0.4619  1.2136
   14CHL1  H18C  992   3.806   1.347   9.479  3.0878  0.9056 -0.4733
   14CHL1   C12  993   4.052   1.168   9.672 -0.0627 -0.0518 -0.0196
   14CHL1  H12A  994   4.027   1.064   9.644 -2.3423  0.0432  1.4767
   14CHL1  H12B  995   4.163   1.160   9.673 -0.1288 -0.9566  0.7008
   14CHL1   C11  996   4.001   1.177   9.817  0.0165  0.4782 -0.3304
   14CHL1  H11A  997   3.891   1.175   9.804 -0.1374 -0.3697  1.0207
   14CHL1  H11B  998   4.023   1.082   9.870  0.7940  1.9379  2.0239
   14CHL1    C9  999   4.019   1.324   9.879 -0.1527  0.2460 -0.1474
   14CHL1    H9 1000   4.130   1.334   9.879 -0.1163  0.0353 -1.4877
   14CHL1   C10 1001   3.972   1.338  10.026  0.8385  0.3381 -0.5230
   14CHL1   C19 1002   3.822   1.288  10.048 -0.2137 -0.6077 -0.1218
   14CHL1  H19A 1003   3.826   1.183  10.013 -2.9741 -0.3439 -1.3485
   14CHL1  H19B 1004   3.790   1.301  10.154  0.0358  1.1135 -0.2369
   14CHL1  H19C 1005   3.753   1.341   9.979 -0.1116  2.4035  1.9568
   14CHL1    C1 1006   4.067   1.252  10.112 -0.1611  0.7926 -0.6494
   14CHL1   H1A 1007   4.035   1.147  10.093  1.3485 -0.1664  1.8527
   14CHL1   H1B 1008   4.173   1.272  10.084 -0.5449  0.3121 -2.5368
   14CHL1    C2 1009   4.048   1.278  10.264  0.2134 -0.9085 -0.4154
   14CHL1   H2A 1010   4.128   1.225  10.320 -0.9465  0.3874  2.5551
   14CHL1   H2B 1011   3.953   1.237  10.306  0.7735 -0.8679  0.9218
   14CHL1   C20 1012   4.026   1.206   9.318 -0.1031 -0.8177  0.1904
   14CHL1   H20 1013   3.921   1.218   9.284 -0.1109  0.0851  0.5216
   14CHL1   C21 1014   4.045   1.054   9.362 -0.5649 -0.7454  0.7795
   14CHL1  H21A 1015   3.976   1.037   9.448  0.0066 -0.7136  1.2511
   14CHL1  H21B 1016   4.149   1.026   9.391 -0.6536 -0.9520  0.8958
   14CHL1  H21C 1017   4.018   0.991   9.275  2.8296 -2.2855  0.7779
   14CHL1   C22 1018   4.112   1.237   9.191 -0.2673 -1.0599  0.2517
   14CHL1  H22A 1019   4.096   1.343   9.165 -1.8695 -1.3450  0.0321
   14CHL1  H22B 1020   4.219   1.231   9.221 -0.6150  0.8990  2.0137
   14CHL1   C23 1021   4.082   1.161   9.059 -0.0478  0.6570 -0.3120
   14CHL1  H23A 1022   4.129   1.063   9.080  0.3293  0.5849 -1.4269
   14CHL1  H23B 1023   3.976   1.128   9.050  0.1154 -0.2689  1.0270
   14CHL1   C24 1024   4.141   1.228   8.931  0.1832  0.0962 -0.3528
   14CHL1  H24A 1025   4.118   1.151   8.853  1.2954  0.4027 -0.9913
   14CHL1  H24B 1026   4.085   1.323   8.917  0.6956  0.4549  0.0693
   14CHL1   C25 1027   4.291   1.252   8.918 -0.3745 -0.6888  0.0543
   14CHL1   H25 1028   4.319   1.282   9.021 -2.2044 -0.1627  0.4164
   14CHL1   C26 1029   4.351   1.116   8.882  0.0360 -0.1526 -0.4294
   14CHL1  H26A 1030   4.321   1.035   8.952  0.8570 -0.3004 -0.2485
   14CHL1  H26B 1031   4.320   1.081   8.781  0.1943  1.9828 -1.2452
   14CHL1  H26C 1032   4.461   1.122   8.870 -0.2633  0.5545 -3.1984
   14CHL1   C27 1033   4.326   1.359   8.813 -0.8982 -0.4134  0.3159
   14CHL1  H27A 1034   4.277   1.452   8.849 -1.7743  0.0397 -2.0053
   14CHL1  H27B 1035   4.434   1.383   8.818 -0.2435 -3.0395 -0.4638
   14CHL1  H27C 1036   4.300   1.328   8.710 -0.4158 -0.9067  0.3419
   15CHL1    C3 1037   4.114   0.423  10.102 -0.2418 -0.2238 -0.1470
   15CHL1    H3 1038   4.016   0.457  10.063 -0.9319 -0.5073  1.2741
   15CHL1    O3 1039   4.097   0.376  10.236 -0.4030 -0.4575 -0.7097
   15CHL1   H3' 1040   4.182   0.393  10.277 -1.3710 -1.9305  2.0285
   15CHL1    C4 1041   4.151   0.304  10.006  0.5601 -0.0598 -0.1071
   15CHL1   H4A 1042   4.247   0.271  10.049  0.0049  0.9887  2.0446
   15CHL1   H4B 1043   4.069   0.230  10.013  0.6129 -0.0801  0.2961
   15CHL1    C5 1044   4.171   0.350   9.867  0.1944  0.1062 -0.5368
   15CHL1    C6 1045   4.095   0.304   9.768 -0.2941 -0.3949  0.2491
   15CHL1    H6 1046   4.020   0.228   9.793 -0.3841 -0.1741  0.6512
   15CHL1    C7 1047   4.114   0.343   9.625  0.2870  0.0264 -0.4731
   15CHL1   H7A 1048   4.115   0.252   9.561 -4.2019 -0.2047 -0.4077
   15CHL1   H7B 1049   4.022   0.397   9.592 -0.3467 -1.4544 -1.1836
   15CHL1    C8 1050   4.245   0.423   9.601 -0.4021  0.5771 -0.5218
   15CHL1    H8 1051   4.324   0.345   9.597  1.4866  2.4002  0.3346
   15CHL1   C14 1052   4.244   0.491   9.462 -0.4373  0.6771 -0.4485
   15CHL1   H14 1053   4.147   0.545   9.467 -0.0371  1.2087  2.4333
   15CHL1   C15 1054   4.241   0.403   9.339 -0.7240  0.3658  0.1111
   15CHL1  H15A 1055   4.302   0.311   9.354  0.8074  1.3137 -0.1532
   15CHL1  H15B 1056   4.140   0.362   9.318 -0.7096  0.4232 -0.0736
   15CHL1   C16 1057   4.286   0.493   9.222  0.0567  0.6247  0.0825
   15CHL1  H16A 1058   4.361   0.437   9.161  1.1605  2.4110 -0.2404
   15CHL1  H16B 1059   4.202   0.522   9.155 -0.8194 -1.5407  0.2018
   15CHL1   C17 1060   4.328   0.625   9.290 -0.0280  0.2156 -0.2519
   15CHL1   H17 1061   4.230   0.678   9.288  0.1059  0.4341 -1.2270
   15CHL1   C13 1062   4.362   0.583   9.436  0.7389  0.2247 -0.3021
   15CHL1   C18 1063   4.498   0.506   9.441  0.0168  0.3937 -0.7092
   15CHL1  H18A 1064   4.497   0.431   9.359  0.5545 -0.4466  0.0411
   15CHL1  H18B 1065   4.585   0.575   9.437 -1.1006  1.8670  0.0571
   15CHL1  H18C 1066   4.511   0.451   9.536 -0.9643  0.6392 -0.4319
   15CHL1   C12 1067   4.366   0.694   9.544  1.1059 -0.4015 -0.1306
   15CHL1  H12A 1068   4.458   0.756   9.533 -0.0956  2.0570  2.9991
   15CHL1  H12B 1069   4.280   0.763   9.532  0.5550 -0.8946  0.8929
   15CHL1   C11 1070   4.369   0.639   9.683  0.0562 -0.4593  0.5086
   15CHL1  H11A 1071   4.474   0.609   9.706  0.4409  0.1248 -0.4736
   15CHL1  H11B 1072   4.356   0.730   9.745 -1.9002  1.3611 -2.5095
   15CHL1    C9 1073   4.260   0.529   9.711  0.0488 -0.4755 -0.0681
   15CHL1    H9 1074   4.161   0.577   9.725 -1.0130 -2.4032 -0.7298
   15CHL1   C10 1075   4.271   0.465   9.852  0.2411 -0.4120 -0.1088
   15CHL1   C19 1076   4.419   0.424   9.880  0.2464  0.3657 -0.6622
   15CHL1  H19A 1077   4.455   0.345   9.810 -0.2165 -0.8557  0.4700
   15CHL1  H19B 1078   4.491   0.508   9.885 -0.5278  0.9974 -0.0312
   15CHL1  H19C 1079   4.434   0.376   9.979 -0.0425  0.7414 -0.4337
   15CHL1    C1 1080   4.240   0.578   9.953 -0.3550 -0.1321 -0.6512
   15CHL1   H1A 1081   4.324   0.650   9.961 -0.8294  0.1935  1.9383
   15CHL1   H1B 1082   4.150   0.636   9.923 -1.2447 -0.9219  0.4487
   15CHL1    C2 1083   4.223   0.535  10.100 -0.1862  0.4401 -0.1793
   15CHL1   H2A 1084   4.184   0.613  10.168 -1.8293 -2.6667  2.6403
   15CHL1   H2B 1085   4.318   0.494  10.138  0.2729  1.9649  0.3350
   15CHL1   C20 1086   4.431   0.713   9.216 -0.5523 -0.3716  0.5500
   15CHL1   H20 1087   4.535   0.688   9.249  0.4215  2.9731  0.1641
   15CHL1   C21 1088   4.396   0.863   9.241 -0.1117 -0.3144 -0.4688
   15CHL1  H21A 1089   4.407   0.884   9.350  3.0415  0.3229 -0.8514
   15CHL1  H21B 1090   4.293   0.892   9.212 -0.6806 -0.1855  1.6395
   15CHL1  H21C 1091   4.454   0.942   9.187  2.3133 -0.3508  1.9458
   15CHL1   C22 1092   4.436   0.687   9.064 -0.7172 -0.0082 -1.3786
   15CHL1  H22A 1093   4.472   0.583   9.051  1.3351  0.6284 -1.0501
   15CHL1  H22B 1094   4.336   0.687   9.016 -0.9589  0.9859 -0.8998
   15CHL1   C23 1095   4.536   0.774   8.984  1.0177  0.2356  0.1346
   15CHL1  H23A 1096   4.495   0.877   8.988  0.9593  0.1455  2.1211
   15CHL1  H23B 1097   4.627   0.764   9.048  0.1353 -2.1909  1.0522
   15CHL1   C24 1098   4.555   0.723   8.837 -0.0412  0.3516 -0.1896
   15CHL1  H24A 1099   4.583   0.617   8.820 -3.5846 -0.5741 -0.5062
   15CHL1  H24B 1100   4.454   0.717   8.793  0.3115 -0.6243 -0.8794
   15CHL1   C25 1101   4.652   0.814   8.755 -0.2136 -0.5621  0.1477
   15CHL1   H25 1102   4.604   0.914   8.745  1.8783  0.6662  1.9004
   15CHL1   C26 1103   4.789   0.835   8.825 -0.4713  0.2591  0.1527
   15CHL1  H26A 1104   4.846   0.913   8.771 -2.4809 -0.0296 -2.4687
   15CHL1  H26B 1105   4.776   0.874   8.929  0.2366 -0.1166  0.3856
   15CHL1  H26C 1106   4.857   0.748   8.830  0.2791  0.8797  1.2192
   15CHL1   C27 1107   4.679   0.748   8.624 -0.3060 -0.4966 -0.4790
   15CHL1  H27A 1108   4.782   0.773   8.591 -0.5351 -0.4026 -1.1251
   15CHL1  H27B 1109   4.677   0.637   8.630  1.4266 -0.5171  0.0359
   15CHL1  H27C 1110   4.606   0.779   8.547 -0.5325  0.9483  0.2968
   16CHL1    C3 1111   5.296   0.556  10.321 -0.4347  0.0251 -0.7126
   16CHL1    H3 1112   5.364   0.644  10.330  0.2454 -0.5958  0.4061
   16CHL1    O3 1113   5.231   0.545  10.447  0.9394 -0.6608 -0.2522
   16CHL1   H3' 1114   5.178   0.625  10.453  0.4378 -1.0409  0.4892
   16CHL1    C4 1115   5.192   0.578  10.211  0.3958  0.1393 -0.2285
   16CHL1   H4A 1116   5.121   0.493  10.211 -0.0359  0.4951 -0.5695
   16CHL1   H4B 1117   5.141   0.669  10.248  1.4321  0.7006 -0.1724
   16CHL1    C5 1118   5.262   0.589  10.077  0.8742 -0.3189  0.0721
   16CHL1    C6 1119   5.238   0.704  10.011 -0.4800 -0.1624 -0.0392
   16CHL1    H6 1120   5.174   0.782  10.053 -0.9916  1.4333 -3.5982
   16CHL1    C7 1121   5.302   0.731   9.879 -0.2252 -0.0371 -0.6817
   16CHL1   H7A 1122   5.234   0.787   9.811 -0.0956  0.9770  0.0116
   16CHL1   H7B 1123   5.395   0.790   9.894 -0.2739 -0.3839  1.1345
   16CHL1    C8 1124   5.344   0.599   9.821 -0.1468  0.3250 -0.2090
   16CHL1    H8 1125   5.254   0.542   9.787  0.6127  0.7150 -3.0178
   16CHL1   C14 1126   5.421   0.636   9.695 -0.3618  0.6430  0.2174
   16CHL1   H14 1127   5.519   0.686   9.716 -0.0268  0.9625 -1.9680
   16CHL1   C15 1128   5.359   0.736   9.587 -0.4292  0.6145 -0.1233
   16CHL1  H15A 1129   5.253   0.713   9.560 -0.3140  1.5282 -1.3881
   16CHL1  H15B 1130   5.358   0.842   9.619  2.8562  1.1503 -1.6394
   16CHL1   C16 1131   5.438   0.715   9.463  0.6113 -0.2724  0.4442
   16CHL1  H16A 1132   5.373   0.709   9.372  3.8144 -0.5588 -1.9006
   16CHL1  H16B 1133   5.520   0.787   9.440  0.1185  0.1139 -0.1232
   16CHL1   C17 1134   5.506   0.575   9.486  0.6883 -0.4551 -0.0881
   16CHL1   H17 1135   5.614   0.591   9.510  1.3490 -4.0842 -0.3331
   16CHL1   C13 1136   5.451   0.508   9.612  0.9788 -0.4571  0.3428
   16CHL1   C18 1137   5.327   0.430   9.568 -0.1774 -0.8209 -0.8103
   16CHL1  H18A 1138   5.351   0.337   9.512 -0.5503 -1.4907  0.1367
   16CHL1  H18B 1139   5.267   0.391   9.652  1.0979 -4.2762 -1.4042
   16CHL1  H18C 1140   5.270   0.502   9.505 -1.2302  0.2036  1.2990
   16CHL1   C12 1141   5.547   0.420   9.691  0.5003 -0.7025  0.7216
   16CHL1  H12A 1142   5.570   0.324   9.639 -0.8062 -0.6297 -0.0066
   16CHL1  H12B 1143   5.634   0.486   9.710 -0.5784  0.3855  1.9356
   16CHL1   C11 1144   5.485   0.383   9.827  1.1567 -0.0153 -0.1544
   16CHL1  H11A 1145   5.415   0.297   9.816 -0.6865  1.4124  0.1485
   16CHL1  H11B 1146   5.571   0.343   9.885 -1.4769 -2.1798  2.4330
   16CHL1    C9 1147   5.428   0.504   9.906  0.6822 -0.3930  0.3836
   16CHL1    H9 1148   5.523   0.557   9.931 -0.0340  0.6184  0.9558
   16CHL1   C10 1149   5.344   0.467  10.034  0.2192  0.3330  0.7894
   16CHL1   C19 1150   5.261   0.348  10.009 -0.0279 -0.1045 -0.1052
   16CHL1  H19A 1151   5.316   0.251  10.001 -1.5134 -1.0194  0.4720
   16CHL1  H19B 1152   5.184   0.338  10.089 -0.1780 -2.2500 -0.4707
   16CHL1  H19C 1153   5.220   0.366   9.908  0.4946  2.2226  0.0677
   16CHL1    C1 1154   5.445   0.441  10.156 -0.5044 -0.3826  0.1517
   16CHL1   H1A 1155   5.497   0.345  10.137 -0.9814 -0.0925 -2.8221
   16CHL1   H1B 1156   5.526   0.517  10.155  0.0934 -1.0130 -3.1978
   16CHL1    C2 1157   5.383   0.431  10.295  0.4482 -0.0679  0.4568
   16CHL1   H2A 1158   5.462   0.422  10.373 -0.5683  0.5322  1.5778
   16CHL1   H2B 1159   5.329   0.334  10.298  0.2542 -0.0255 -1.1773
   16CHL1   C20 1160   5.527   0.495   9.352  0.8855 -0.2624  0.6964
   16CHL1   H20 1161   5.435   0.449   9.309  1.7922 -0.9929 -0.4881
   16CHL1   C21 1162   5.613   0.372   9.394 -0.3393 -0.0546  0.0604
   16CHL1  H21A 1163   5.668   0.329   9.307  0.6549 -0.9681  1.1135
   16CHL1  H21B 1164   5.557   0.290   9.443  1.1560 -1.2393 -0.1620
   16CHL1  H21C 1165   5.692   0.396   9.468 -1.0083  2.1037  0.0843
   16CHL1   C22 1166   5.596   0.577   9.246  0.2255  0.6109  0.1080
   16CHL1  H22A 1167   5.622   0.499   9.171  0.4454 -0.6622  1.4834
   16CHL1  H22B 1168   5.529   0.652   9.199  0.2083  0.8482  0.5095
   16CHL1   C23 1169   5.729   0.649   9.288  0.7090 -0.2153 -0.1886
   16CHL1  H23A 1170   5.709   0.721   9.370 -0.7141 -3.5460  2.5077
   16CHL1  H23B 1171   5.805   0.584   9.336 -0.4426 -1.6664 -0.3165
   16CHL1   C24 1172   5.779   0.740   9.177  0.8160 -0.3285  0.4880
   16CHL1  H24A 1173   5.811   0.689   9.084 -1.4331 -0.6129 -0.1791
   16CHL1  H24B 1174   5.696   0.812   9.159  1.2490  0.3552  1.1986
   16CHL1   C25 1175   5.899   0.824   9.227 -0.2143 -0.3659 -0.4584
   16CHL1   H25 1176   5.972   0.749   9.264  0.8788  2.1818  2.7891
   16CHL1   C26 1177   5.972   0.892   9.106  0.2371  0.4433 -0.4749
   16CHL1  H26A 1178   5.986   0.817   9.026 -0.2350  0.9625 -1.0532
   16CHL1  H26B 1179   5.916   0.982   9.072  0.0633  1.4116  2.2283
   16CHL1  H26C 1180   6.075   0.918   9.138 -1.3328  3.7932  2.3103
   16CHL1   C27 1181   5.857   0.930   9.334  0.0584 -0.3460 -0.2183
   16CHL1  H27A 1182   5.763   0.977   9.299 -0.7403 -2.4046 -0.9354
   16CHL1  H27B 1183   5.862   0.909   9.443 -1.3334 -0.0915 -0.1045
   16CHL1  H27C 1184   5.930   1.013   9.326 -1.5873  1.4023  2.4089
   17CHL1    C3 1185   0.824   4.613  10.465  0.5298 -0.9980  0.2097
   17CHL1    H3 1186   0.808   4.715  10.506 -2.8856 -1.1970 -0.5102
   17CHL1    O3 1187   0.827   4.514  10.568  0.4142  0.6856 -0.0916
   17CHL1   H3' 1188   0.831   4.433  10.517  0.5474 -0.1530  1.2425
   17CHL1    C4 1189   0.713   4.570  10.361 -0.0167 -0.3713  0.3237
   17CHL1   H4A 1190   0.750   4.470  10.327  0.9968  0.0246  0.2337
   17CHL1   H4B 1191   0.617   4.550  10.413 -0.8092 -2.3859 -1.8492
   17CHL1    C5 1192   0.703   4.663  10.246  0.1051  0.1223  0.4677
   17CHL1    C6 1193   0.589   4.725  10.226  0.5712  0.2463 -0.1814
   17CHL1    H6 1194   0.508   4.712  10.299  2.0216  1.9636  1.7808
   17CHL1    C7 1195   0.566   4.820  10.111 -0.7957  0.2981  0.3479
   17CHL1   H7A 1196   0.467   4.802  10.063 -0.5122  2.5612 -1.1309
   17CHL1   H7B 1197   0.572   4.924  10.147 -0.4417 -0.2144  1.8103
   17CHL1    C8 1198   0.674   4.801  10.004  0.2569 -0.2903  0.3168
   17CHL1    H8 1199   0.657   4.707   9.948 -1.7966  0.5445 -0.5045
   17CHL1   C14 1200   0.666   4.922   9.908  0.1869 -0.6569  0.0942
   17CHL1   H14 1201   0.705   5.009   9.966 -2.0943  0.1287  0.4822
   17CHL1   C15 1202   0.527   4.960   9.844  0.7316  0.1637 -0.0883
   17CHL1  H15A 1203   0.457   4.883   9.806 -0.8218  1.7936 -0.6465
   17CHL1  H15B 1204   0.462   5.021   9.911 -1.6680 -1.2849 -1.0358
   17CHL1   C16 1205   0.559   5.044   9.720  0.2791  0.0187 -0.3968
   17CHL1  H16A 1206   0.501   4.998   9.638 -0.1912 -0.7223  0.3472
   17CHL1  H16B 1207   0.519   5.147   9.728  0.8563  0.3340 -1.4050
   17CHL1   C17 1208   0.715   5.046   9.708 -0.7455  1.0665 -0.2250
   17CHL1   H17 1209   0.760   5.133   9.761 -0.5483  0.6077  0.3625
   17CHL1   C13 1210   0.764   4.923   9.786  0.9370 -0.0989  0.3182
   17CHL1   C18 1211   0.736   4.794   9.702 -0.6634  0.0738  0.2592
   17CHL1  H18A 1212   0.820   4.787   9.630 -0.9111 -1.0105  0.0730
   17CHL1  H18B 1213   0.738   4.708   9.773  0.6031 -0.3448 -0.2753
   17CHL1  H18C 1214   0.640   4.802   9.647  0.5137  3.5625 -1.4278
   17CHL1   C12 1215   0.907   4.927   9.846  0.1779 -0.4352 -0.7665
   17CHL1  H12A 1216   0.986   4.928   9.767  0.2838  2.7300 -0.6858
   17CHL1  H12B 1217   0.925   5.025   9.895 -0.3008 -0.8916  0.3337
   17CHL1   C11 1218   0.920   4.807   9.948  0.3400 -0.4241 -0.2141
   17CHL1  H11A 1219   0.926   4.713   9.888  0.4725 -0.1657 -0.6091
   17CHL1  H11B 1220   1.015   4.823  10.002 -0.2273 -0.2717  0.7556
   17CHL1    C9 1221   0.810   4.801  10.066  0.2346 -0.2232  0.4337
   17CHL1    H9 1222   0.822   4.900  10.116 -1.4721  1.0048 -1.5410
   17CHL1   C10 1223   0.840   4.683  10.162  0.6377 -0.1612  0.6290
   17CHL1   C19 1224   0.876   4.560  10.071 -0.2278  0.2234 -0.3888
   17CHL1  H19A 1225   0.821   4.566   9.974 -1.0872 -1.3973 -0.0180
   17CHL1  H19B 1226   0.982   4.563  10.039  0.2374  1.4421  1.1781
   17CHL1  H19C 1227   0.856   4.472  10.135 -2.2681  1.2263  0.4237
   17CHL1    C1 1228   0.951   4.713  10.265  0.6205 -0.9447  0.2509
   17CHL1   H1A 1229   1.050   4.711  10.215 -0.3619  1.7617 -1.9236
   17CHL1   H1B 1230   0.934   4.814  10.309 -0.2579 -0.5032 -1.0650
   17CHL1    C2 1231   0.959   4.614  10.386 -0.0626 -0.3089 -0.1461
   17CHL1   H2A 1232   1.037   4.648  10.457  0.7676  0.4192 -1.3906
   17CHL1   H2B 1233   0.983   4.514  10.345  0.5662 -1.4489  2.8959
   17CHL1   C20 1234   0.753   5.070   9.555 -0.7338 -0.2848 -0.1641
   17CHL1   H20 1235   0.703   4.989   9.496 -0.1896 -2.0300  1.7116
   17CHL1   C21 1236   0.900   5.074   9.542 -0.4632  0.2581  0.2316
   17CHL1  H21A 1237   0.924   5.092   9.436 -0.0808 -0.7439  0.1431
   17CHL1  H21B 1238   0.957   4.985   9.577 -1.2311 -0.0396  0.7479
   17CHL1  H21C 1239   0.944   5.167   9.585 -0.2155  0.2843 -0.0749
   17CHL1   C22 1240   0.690   5.200   9.503 -0.3880  0.2900  0.4256
   17CHL1  H22A 1241   0.579   5.195   9.511 -0.4499  0.2647 -0.3310
   17CHL1  H22B 1242   0.715   5.279   9.577  0.0767 -1.0504  1.6999
   17CHL1   C23 1243   0.717   5.224   9.361 -0.1310 -0.0534  0.0961
   17CHL1  H23A 1244   0.824   5.240   9.335  0.1641 -0.5317  1.0086
   17CHL1  H23B 1245   0.681   5.130   9.314  0.4623 -1.1419  1.8079
   17CHL1   C24 1246   0.635   5.347   9.315  0.8251  0.3794  0.6520
   17CHL1  H24A 1247   0.533   5.342   9.360  0.6076 -1.8094 -0.0072
   17CHL1  H24B 1248   0.675   5.445   9.348 -0.2770  1.3778 -0.9420
   17CHL1   C25 1249   0.616   5.352   9.161  0.8506 -0.5038 -0.0658
   17CHL1   H25 1250   0.619   5.245   9.132  2.0025 -0.7124  0.7845
   17CHL1   C26 1251   0.483   5.414   9.117 -0.3194  0.2508  0.3014
   17CHL1  H26A 1252   0.487   5.519   9.151  1.9602 -0.0971  1.2016
   17CHL1  H26B 1253   0.474   5.404   9.007  0.7787  1.5028  0.0849
   17CHL1  H26C 1254   0.403   5.367   9.178 -1.1736 -0.4277 -1.3067
   17CHL1   C27 1255   0.739   5.425   9.098 -0.5708 -0.3228 -0.0462
   17CHL1  H27A 1256   0.732   5.531   9.127 -0.2457 -0.7944  1.8023
   17CHL1  H27B 1257   0.834   5.370   9.118  2.6275  3.8435 -2.9096
   17CHL1  H27C 1258   0.716   5.414   8.990 -0.3918 -0.4545 -0.0720
   18CHL1    C3 1259   0.220   3.545  10.168  0.3998  0.2466 -0.3189
   18CHL1    H3 1260   0.327   3.570  10.152  1.4049 -1.7505  2.7557
   18CHL1    O3 1261   0.190   3.604  10.289  0.4423 -0.7720 -0.0711
   18CHL1   H3' 1262   0.116   3.554  10.324 -0.3129  1.4351  1.6358
   18CHL1    C4 1263   0.138   3.609  10.058 -0.0220 -0.4044 -0.3296
   18CHL1   H4A 1264   0.029   3.599  10.078 -0.1771  1.5181 -0.1768
   18CHL1   H4B 1265   0.157   3.718  10.049 -1.3881  0.0064  1.4102
   18CHL1    C5 1266   0.162   3.547   9.926  0.2950 -0.3054  0.4070
   18CHL1    C6 1267   0.198   3.623   9.826  0.8324  0.8212 -0.9970
   18CHL1    H6 1268   0.209   3.730   9.850 -0.6613  0.6354  0.6571
   18CHL1    C7 1269   0.214   3.573   9.682  0.9327 -0.3503  0.3061
   18CHL1   H7A 1270   0.167   3.647   9.613  0.0592 -0.9735  0.2168
   18CHL1   H7B 1271   0.321   3.560   9.657  0.7475 -0.0466 -0.6561
   18CHL1    C8 1272   0.141   3.437   9.670 -0.2019  0.3056 -0.4380
   18CHL1    H8 1273   0.031   3.451   9.668  0.0064  2.4861  1.0734
   18CHL1   C14 1274   0.178   3.364   9.535 -0.7518  0.1058  0.5209
   18CHL1   H14 1275   0.287   3.347   9.548 -1.0836 -1.5654  1.2573
   18CHL1   C15 1276   0.155   3.436   9.404  0.4961 -0.7736  0.8132
   18CHL1  H15A 1277   0.063   3.492   9.431  0.0777 -1.4743  0.8454
   18CHL1  H15B 1278   0.234   3.512   9.385 -1.7416  0.7248 -3.1442
   18CHL1   C16 1279   0.149   3.329   9.298 -0.5887 -0.4316 -0.1831
   18CHL1  H16A 1280   0.055   3.326   9.239 -0.5213 -1.5249 -0.2427
   18CHL1  H16B 1281   0.228   3.332   9.220  0.4002 -2.1057  0.7214
   18CHL1   C17 1282   0.164   3.194   9.373  0.4492 -0.4052 -0.1887
   18CHL1   H17 1283   0.272   3.169   9.381  0.9559  1.2705 -1.4637
   18CHL1   C13 1284   0.118   3.225   9.510 -0.1089  0.9536  0.1875
   18CHL1   C18 1285  -0.039   3.232   9.519 -0.4235 -0.6780  0.7987
   18CHL1  H18A 1286  -0.066   3.293   9.430 -0.3828 -1.9036 -0.0573
   18CHL1  H18B 1287  -0.082   3.132   9.498  1.0651 -0.9554 -1.0843
   18CHL1  H18C 1288  -0.085   3.281   9.608 -1.3623  0.0453 -0.0667
   18CHL1   C12 1289   0.171   3.132   9.626 -0.5275 -0.1910  0.3986
   18CHL1  H12A 1290   0.125   3.031   9.621 -0.3132 -0.3604  1.4904
   18CHL1  H12B 1291   0.281   3.119   9.611 -0.6120 -0.3290 -0.0864
   18CHL1   C11 1292   0.136   3.192   9.764  0.4641 -0.0390  0.3837
   18CHL1  H11A 1293   0.028   3.178   9.788  0.2981 -0.0867 -0.3486
   18CHL1  H11B 1294   0.202   3.147   9.841 -0.4316  0.5972  1.5367
   18CHL1    C9 1295   0.170   3.339   9.782 -0.7209 -0.2025 -0.0873
   18CHL1    H9 1296   0.281   3.338   9.770 -0.6632  1.2819  0.2233
   18CHL1   C10 1297   0.131   3.394   9.922 -0.9650 -0.0075 -0.1978
   18CHL1   C19 1298  -0.023   3.368   9.945 -0.5849 -0.1997  0.4001
   18CHL1  H19A 1299  -0.051   3.262   9.958  1.1144 -0.9618 -1.8854
   18CHL1  H19B 1300  -0.063   3.430  10.029 -0.0661 -0.1849  0.6346
   18CHL1  H19C 1301  -0.081   3.392   9.853  0.2374  1.2880  0.2462
   18CHL1    C1 1302   0.216   3.324  10.030 -0.5821 -0.2273 -0.0429
   18CHL1   H1A 1303   0.191   3.217  10.046 -1.3863 -0.0321  0.0395
   18CHL1   H1B 1304   0.322   3.327   9.997 -0.6833 -1.7615 -0.5600
   18CHL1    C2 1305   0.205   3.384  10.169  0.1195  0.1289  0.5176
   18CHL1   H2A 1306   0.277   3.343  10.242  0.2788 -1.4458 -0.5002
   18CHL1   H2B 1307   0.103   3.363  10.208 -0.0234  1.5041  0.9203
   18CHL1   C20 1308   0.111   3.074   9.299 -0.0253  0.1456 -0.1283
   18CHL1   H20 1309   0.090   2.995   9.375  2.2877 -1.7386 -1.3848
   18CHL1   C21 1310   0.220   3.020   9.200 -0.0852 -0.1999 -0.0356
   18CHL1  H21A 1311   0.248   3.096   9.125 -2.3933  0.1935 -0.5331
   18CHL1  H21B 1312   0.180   2.930   9.148  1.9298 -0.5236 -1.0654
   18CHL1  H21C 1313   0.309   2.987   9.257  0.4126 -1.3835 -1.4629
   18CHL1   C22 1314  -0.022   3.097   9.216  0.0272 -0.5403 -0.5577
   18CHL1  H22A 1315  -0.077   3.178   9.269 -0.3871 -0.8785 -0.4709
   18CHL1  H22B 1316   0.018   3.137   9.121  1.1533  1.1636  0.5876
   18CHL1   C23 1317  -0.118   2.978   9.200  0.7451 -0.2320  0.0193
   18CHL1  H23A 1318  -0.063   2.886   9.171 -0.0477  0.0315 -2.4144
   18CHL1  H23B 1319  -0.157   2.950   9.300  0.9110 -0.0803  0.1271
   18CHL1   C24 1320  -0.235   3.007   9.102  0.0318 -0.1736 -0.2810
   18CHL1  H24A 1321  -0.308   2.923   9.095 -1.0841  0.8270 -1.0438
   18CHL1  H24B 1322  -0.301   3.092   9.130 -1.1085 -0.6918 -1.3410
   18CHL1   C25 1323  -0.185   3.032   8.955 -0.2058  0.3068 -0.3787
   18CHL1   H25 1324  -0.120   3.123   8.956  0.6362 -0.2832  0.7592
   18CHL1   C26 1325  -0.107   2.921   8.890 -0.4347  0.6613  1.0078
   18CHL1  H26A 1326  -0.006   2.905   8.933 -0.0336 -0.4820 -0.3117
   18CHL1  H26B 1327  -0.169   2.830   8.880  0.5531  0.4029 -4.1354
   18CHL1  H26C 1328  -0.077   2.959   8.790 -0.5835 -2.2590 -0.1888
   18CHL1   C27 1329  -0.310   3.057   8.866  0.2134 -0.0801 -0.3482
   18CHL1  H27A 1330  -0.298   3.111   8.770  0.4897  1.3706  0.4772
   18CHL1  H27B 1331  -0.366   2.968   8.832 -0.1571  0.7879 -2.0649
   18CHL1  H27C 1332  -0.387   3.113   8.923 -3.2847 -1.8971 -3.1361
   19CHL1    C3 1333   3.869   6.635  10.078  0.0860 -0.3896 -0.5431
   19CHL1    H3 1334   3.767   6.671  10.050  0.4425 -0.4409 -1.9296
   19CHL1    O3 1335   3.898   6.667  10.212  0.0696  0.1403 -0.0657
   19CHL1   H3' 1336   3.993   6.668  10.221  0.3925 -1.6650 -2.7236
   19CHL1    C4 1337   3.882   6.489  10.059 -0.3769  0.1882  0.0633
   19CHL1   H4A 1338   3.982   6.455  10.093 -0.1320  1.2849  0.4821
   19CHL1   H4B 1339   3.804   6.450  10.127  0.0310  0.1110  0.4851
   19CHL1    C5 1340   3.857   6.441   9.916 -0.0398  0.3106 -0.6777
   19CHL1    C6 1341   3.756   6.359   9.889 -0.0342 -0.1704  0.2543
   19CHL1    H6 1342   3.694   6.315   9.968  0.0634 -0.2206  0.3048
   19CHL1    C7 1343   3.743   6.298   9.748  0.1900 -0.6379 -0.3434
   19CHL1   H7A 1344   3.736   6.188   9.756  0.1289 -0.6041  0.0591
   19CHL1   H7B 1345   3.651   6.335   9.698 -0.7922 -0.3224  1.6543
   19CHL1    C8 1346   3.861   6.333   9.650 -0.3447  0.6033 -0.1501
   19CHL1    H8 1347   3.955   6.280   9.677 -1.9280 -1.5681  1.2478
   19CHL1   C14 1348   3.823   6.304   9.504  0.4171 -0.3099 -0.3545
   19CHL1   H14 1349   3.740   6.377   9.491  1.7518  1.3242  0.0653
   19CHL1   C15 1350   3.769   6.166   9.462 -0.3116 -0.3576 -0.4465
   19CHL1  H15A 1351   3.828   6.084   9.508 -1.6123 -0.7431  0.5597
   19CHL1  H15B 1352   3.671   6.167   9.513 -0.8231  1.2121 -1.4094
   19CHL1   C16 1353   3.761   6.176   9.308  0.0826 -0.5481 -0.8057
   19CHL1  H16A 1354   3.823   6.091   9.272 -0.2795 -0.9210 -0.5475
   19CHL1  H16B 1355   3.656   6.155   9.278  0.0530 -2.4566  0.5414
   19CHL1   C17 1356   3.821   6.312   9.262 -0.0414 -0.1954 -0.5966
   19CHL1   H17 1357   3.740   6.387   9.274  0.8036  0.9019 -1.5446
   19CHL1   C13 1358   3.913   6.346   9.389  0.6284  0.0052 -0.0187
   19CHL1   C18 1359   4.027   6.256   9.400 -0.2956 -0.0571  0.1869
   19CHL1  H18A 1360   4.016   6.156   9.352 -2.3120 -0.3427  1.1791
   19CHL1  H18B 1361   4.111   6.312   9.355 -1.9484 -0.2548 -3.3895
   19CHL1  H18C 1362   4.063   6.240   9.504  0.2352 -0.8270 -0.1076
   19CHL1   C12 1363   3.950   6.495   9.408 -0.2070  0.5876  0.6575
   19CHL1  H12A 1364   4.034   6.516   9.339 -0.3438 -1.6380 -0.2149
   19CHL1  H12B 1365   3.857   6.552   9.387 -1.2221 -1.3238 -0.1424
   19CHL1   C11 1366   3.999   6.517   9.556 -0.4302 -0.4504  1.0387
   19CHL1  H11A 1367   4.101   6.475   9.566 -0.1425 -0.1140 -0.3982
   19CHL1  H11B 1368   4.020   6.626   9.561 -1.1020 -0.3603  2.2861
   19CHL1    C9 1369   3.898   6.477   9.667 -0.2653 -0.4943  0.1402
   19CHL1    H9 1370   3.803   6.532   9.649 -0.0221 -0.2577 -0.4294
   19CHL1   C10 1371   3.943   6.505   9.810  0.5554 -0.3444 -1.0157
   19CHL1   C19 1372   4.088   6.467   9.818 -0.2387  0.8228 -0.0506
   19CHL1  H19A 1373   4.110   6.358   9.805  1.5427  1.1416  0.2239
   19CHL1  H19B 1374   4.147   6.530   9.749 -1.4319  0.3891 -1.4963
   19CHL1  H19C 1375   4.132   6.487   9.918 -2.3820  4.0063  0.3169
   19CHL1    C1 1376   3.931   6.655   9.834  0.6224 -0.6881  0.2803
   19CHL1   H1A 1377   3.984   6.714   9.757 -2.1278 -0.9310 -1.8534
   19CHL1   H1B 1378   3.824   6.679   9.820  0.4407 -0.0061  2.5986
   19CHL1    C2 1379   3.959   6.706   9.974 -0.1165 -0.9718  0.0858
   19CHL1   H2A 1380   3.939   6.815   9.979 -0.6789 -1.0160 -1.0861
   19CHL1   H2B 1381   4.066   6.689  10.001 -0.1209  0.2670  0.8933
   19CHL1   C20 1382   3.883   6.335   9.126  0.2544  0.3162 -0.8203
   19CHL1   H20 1383   3.992   6.322   9.141 -0.1756 -1.0835  1.2418
   19CHL1   C21 1384   3.857   6.474   9.076  0.7899  0.1748 -0.5247
   19CHL1  H21A 1385   3.896   6.548   9.149  2.1055 -0.8335 -0.1806
   19CHL1  H21B 1386   3.748   6.488   9.060  0.6743 -1.3391 -1.1636
   19CHL1  H21C 1387   3.902   6.491   8.976 -1.5925 -0.1335 -1.6911
   19CHL1   C22 1388   3.849   6.230   9.017 -0.4378 -0.6183  0.2794
   19CHL1  H22A 1389   3.871   6.131   9.061 -1.9015 -1.2331 -0.3493
   19CHL1  H22B 1390   3.741   6.235   8.993 -0.2446 -0.5603 -0.6116
   19CHL1   C23 1391   3.924   6.245   8.884 -0.2469  0.1695  0.4694
   19CHL1  H23A 1392   3.904   6.345   8.839  3.4060  0.3951 -0.9044
   19CHL1  H23B 1393   4.032   6.252   8.909 -0.6494  0.2180  2.2490
   19CHL1   C24 1394   3.891   6.140   8.776  0.1129  0.1283 -0.8153
   19CHL1  H24A 1395   3.930   6.040   8.806 -3.5692 -0.9595  0.7254
   19CHL1  H24B 1396   3.780   6.132   8.779  0.3034 -2.6624  0.3858
   19CHL1   C25 1397   3.953   6.171   8.634 -0.1513  0.0521  0.6870
   19CHL1   H25 1398   3.929   6.272   8.594  0.3411 -0.6858 -1.5450
   19CHL1   C26 1399   4.100   6.156   8.633 -0.2392 -0.8269  0.7567
   19CHL1  H26A 1400   4.158   6.241   8.590 -0.4505 -0.8375  0.4442
   19CHL1  H26B 1401   4.137   6.122   8.732  0.3093 -2.1339  0.1126
   19CHL1  H26C 1402   4.134   6.078   8.561  0.2505  3.0968 -3.5061
   19CHL1   C27 1403   3.883   6.075   8.531 -0.3283 -0.2459 -0.4736
   19CHL1  H27A 1404   3.776   6.072   8.557  0.1982  1.3203  1.9940
   19CHL1  H27B 1405   3.919   6.106   8.430 -0.8982  2.0645  0.0191
   19CHL1  H27C 1406   3.921   5.972   8.545  0.8500 -0.1389 -2.5195
   20CHL1    C3 1407   6.112   0.503  10.313  0.1571  0.4155  0.1794
   20CHL1    H3 1408   6.194   0.428  10.307 -0.7788 -0.7239  1.3985
   20CHL1    O3 1409   6.099   0.522  10.451 -0.4288  0.2318  0.1107
   20CHL1   H3' 1410   6.019   0.570  10.471 -1.8721 -1.4911 -1.3745
   20CHL1    C4 1411   6.158   0.624  10.238  0.1850  0.0960  0.1619
   20CHL1   H4A 1412   6.085   0.705  10.256  0.3124  0.9248 -2.7906
   20CHL1   H4B 1413   6.249   0.668  10.282 -0.2119  1.0286  0.0590
   20CHL1    C5 1414   6.178   0.585  10.096 -0.2112  0.0579 -0.7210
   20CHL1    C6 1415   6.292   0.595  10.029  0.4008  0.7263 -0.2543
   20CHL1    H6 1416   6.392   0.626  10.062  0.8152  0.8143 -1.5899
   20CHL1    C7 1417   6.316   0.576   9.885 -0.7421 -0.5791 -0.1384
   20CHL1   H7A 1418   6.358   0.674   9.854  0.2818 -1.5889 -2.0305
   20CHL1   H7B 1419   6.375   0.484   9.868 -1.2408 -0.8083 -0.6462
   20CHL1    C8 1420   6.181   0.581   9.810 -0.1304  0.2475 -0.4736
   20CHL1    H8 1421   6.144   0.686   9.814  0.3402  0.3627  0.9910
   20CHL1   C14 1422   6.217   0.541   9.670 -0.2885 -0.3307 -0.3682
   20CHL1   H14 1423   6.252   0.437   9.686 -0.3364 -0.0447  1.8157
   20CHL1   C15 1424   6.335   0.615   9.599  0.0235  0.3991 -0.4653
   20CHL1  H15A 1425   6.324   0.724   9.620  2.9308  0.1406  3.1197
   20CHL1  H15B 1426   6.439   0.587   9.626  0.1364 -0.8798 -2.1508
   20CHL1   C16 1427   6.304   0.577   9.449  0.3279  0.1098  0.0852
   20CHL1  H16A 1428   6.300   0.674   9.394  2.2788  0.4529  0.5166
   20CHL1  H16B 1429   6.383   0.515   9.402  0.6144  0.3533  0.2356
   20CHL1   C17 1430   6.173   0.493   9.443 -0.7174 -0.4764  0.2397
   20CHL1   H17 1431   6.200   0.387   9.462 -0.7287 -0.5025  0.1129
   20CHL1   C13 1432   6.100   0.535   9.567  0.2707 -0.5866  0.5191
   20CHL1   C18 1433   6.044   0.672   9.541  1.3553  0.2915 -0.4572
   20CHL1  H18A 1434   6.022   0.711   9.642  0.9931 -0.1335 -0.3710
   20CHL1  H18B 1435   6.108   0.744   9.485  2.4192 -1.6298 -1.7698
   20CHL1  H18C 1436   5.949   0.678   9.483  0.3834 -0.4262  1.0523
   20CHL1   C12 1437   5.996   0.430   9.639 -0.6784  0.1327 -0.2653
   20CHL1  H12A 1438   5.917   0.396   9.569  0.4241 -1.9876 -0.5093
   20CHL1  H12B 1439   6.055   0.339   9.666  1.4854  0.8970 -2.2323
   20CHL1   C11 1440   5.955   0.481   9.781 -0.3286  0.1748 -0.5567
   20CHL1  H11A 1441   5.892   0.573   9.779 -0.8490 -0.2016 -3.5803
   20CHL1  H11B 1442   5.899   0.401   9.834  1.0332 -1.3426 -1.3853
   20CHL1    C9 1443   6.079   0.486   9.876  0.5256 -0.4966  0.6216
   20CHL1    H9 1444   6.133   0.389   9.873  1.6187  0.1361 -0.4953
   20CHL1   C10 1445   6.051   0.530  10.018  0.0549 -0.0530 -0.1820
   20CHL1   C19 1446   5.948   0.650  10.016 -0.4292  0.0072 -0.2807
   20CHL1  H19A 1447   5.852   0.607   9.980 -0.1202 -1.4234  0.5557
   20CHL1  H19B 1448   5.937   0.690  10.119  2.8424  1.6848 -0.5426
   20CHL1  H19C 1449   5.983   0.733   9.952  2.6344  0.1294  1.4929
   20CHL1    C1 1450   5.995   0.420  10.107 -0.0426  0.6407 -0.2600
   20CHL1   H1A 1451   5.898   0.388  10.063  0.7013 -1.1134 -0.6404
   20CHL1   H1B 1452   6.058   0.329  10.095  2.2711  2.1823 -0.2661
   20CHL1    C2 1453   5.984   0.444  10.260 -0.4365 -0.3817  0.5994
   20CHL1   H2A 1454   5.954   0.347  10.306 -0.0109 -0.3280  0.9911
   20CHL1   H2B 1455   5.893   0.506  10.279 -0.7839 -1.0391  1.1374
   20CHL1   C20 1456   6.103   0.487   9.307  0.6095  0.1093  0.2123
   20CHL1   H20 1457   6.059   0.587   9.286  0.1974 -0.5100 -1.9989
   20CHL1   C21 1458   5.981   0.391   9.301  0.5274 -0.1310  0.1667
   20CHL1  H21A 1459   6.005   0.286   9.327 -1.6216 -0.8583 -0.7073
   20CHL1  H21B 1460   5.942   0.389   9.197  0.1452  2.0936  0.2490
   20CHL1  H21C 1461   5.900   0.420   9.371  1.0680 -0.9973  1.1769
   20CHL1   C22 1462   6.189   0.448   9.185  0.0965 -0.7271  0.3286
   20CHL1  H22A 1463   6.292   0.489   9.198 -0.3668 -0.0513  1.9724
   20CHL1  H22B 1464   6.193   0.338   9.176 -1.7256 -0.6999 -1.1753
   20CHL1   C23 1465   6.138   0.519   9.056  0.1052  0.0955 -0.4985
   20CHL1  H23A 1466   6.031   0.495   9.040  0.1502  0.6406 -1.6954
   20CHL1  H23B 1467   6.154   0.628   9.072  0.1956 -0.1168  0.8671
   20CHL1   C24 1468   6.209   0.463   8.934  0.0055 -0.1332  0.3913
   20CHL1  H24A 1469   6.314   0.499   8.931  0.3161 -1.1354 -1.7161
   20CHL1  H24B 1470   6.217   0.353   8.948 -0.6520 -0.0526  1.4609
   20CHL1   C25 1471   6.156   0.505   8.799  0.4212 -0.3039 -0.0672
   20CHL1   H25 1472   6.050   0.472   8.799  1.2217 -2.9630  0.9274
   20CHL1   C26 1473   6.169   0.657   8.779  0.0430  0.4644 -0.4704
   20CHL1  H26A 1474   6.276   0.680   8.798 -0.3409  0.3058  1.9621
   20CHL1  H26B 1475   6.142   0.684   8.675 -1.9974  1.3064  0.2483
   20CHL1  H26C 1476   6.099   0.719   8.838 -0.4815 -0.9165  0.3767
   20CHL1   C27 1477   6.213   0.422   8.685 -0.4616 -0.5556  0.6688
   20CHL1  H27A 1478   6.154   0.446   8.594 -3.1833  2.9218  3.2038
   20CHL1  H27B 1479   6.318   0.453   8.665 -0.9362  0.3911 -0.4378
   20CHL1  H27C 1480   6.210   0.312   8.697  1.9226 -0.6512  0.6294
   21CHL1    C3 1481   5.949   3.725  10.255  0.2470 -0.4744 -0.0347
   21CHL1    H3 1482   6.046   3.778  10.247 -0.7722  1.6597  1.1100
   21CHL1    O3 1483   5.924   3.702  10.388  0.3880  0.0535  0.0695
   21CHL1   H3' 1484   5.836   3.663  10.387  0.2997  0.2608  0.0081
   21CHL1    C4 1485   5.835   3.805  10.195 -0.9351 -0.8971  0.2067
   21CHL1   H4A 1486   5.748   3.744  10.227 -1.5355 -1.2801 -2.1016
   21CHL1   H4B 1487   5.834   3.904  10.246  4.6813 -0.8395  0.5122
   21CHL1    C5 1488   5.830   3.824  10.045  0.3374  0.1140 -0.5883
   21CHL1    C6 1489   5.811   3.950   9.986  0.3035  0.2710  0.7113
   21CHL1    H6 1490   5.804   4.040  10.049  0.7854  0.3127  0.7088
   21CHL1    C7 1491   5.818   3.967   9.836 -0.5972  0.3498  0.1175
   21CHL1   H7A 1492   5.740   4.032   9.791 -0.2128 -1.1225 -2.7934
   21CHL1   H7B 1493   5.913   4.022   9.820 -0.6488  0.3526 -0.1771
   21CHL1    C8 1494   5.814   3.839   9.753 -0.4511  0.1682 -0.3983
   21CHL1    H8 1495   5.709   3.804   9.766  0.6539 -2.5989  1.3393
   21CHL1   C14 1496   5.843   3.873   9.604  0.5863 -0.0011 -0.0103
   21CHL1   H14 1497   5.945   3.916   9.589  1.4257 -1.0038  2.6037
   21CHL1   C15 1498   5.747   3.968   9.526  0.4751 -0.4042 -0.2571
   21CHL1  H15A 1499   5.640   3.956   9.553 -0.0184  1.1215 -1.4618
   21CHL1  H15B 1500   5.768   4.077   9.540  1.0757 -0.2536 -2.2251
   21CHL1   C16 1501   5.753   3.926   9.383 -0.1772 -0.0261 -0.4488
   21CHL1  H16A 1502   5.652   3.903   9.345 -0.6503 -0.6836  1.1833
   21CHL1  H16B 1503   5.798   4.004   9.317  1.2334  0.2963  0.8689
   21CHL1   C17 1504   5.843   3.807   9.387 -0.2467  0.4834  0.0677
   21CHL1   H17 1505   5.943   3.844   9.355  0.0929 -2.2121 -2.2483
   21CHL1   C13 1506   5.836   3.746   9.524 -0.2790  0.5888  1.2507
   21CHL1   C18 1507   5.702   3.666   9.528 -0.3533 -0.0597  0.4180
   21CHL1  H18A 1508   5.694   3.569   9.474 -0.6439 -0.5354  1.3143
   21CHL1  H18B 1509   5.682   3.644   9.635 -0.0356 -0.5103  0.3879
   21CHL1  H18C 1510   5.612   3.721   9.491  0.9436  1.2741 -0.8293
   21CHL1   C12 1511   5.949   3.655   9.576 -0.0985  0.1438 -1.1090
   21CHL1  H12A 1512   5.960   3.553   9.532  1.1312 -0.7938  1.2577
   21CHL1  H12B 1513   6.048   3.704   9.571 -1.2847  2.8145  0.7214
   21CHL1   C11 1514   5.934   3.616   9.728  0.0121  0.2505 -0.4529
   21CHL1  H11A 1515   5.858   3.536   9.721 -0.7127  0.7439  1.6056
   21CHL1  H11B 1516   6.026   3.563   9.761  0.9407 -0.5094 -4.0012
   21CHL1    C9 1517   5.906   3.730   9.822  0.3822 -0.0480  0.0394
   21CHL1    H9 1518   6.007   3.773   9.838  0.0532  0.9810 -0.5639
   21CHL1   C10 1519   5.858   3.700   9.964 -0.7181  0.7411  0.5501
   21CHL1   C19 1520   5.732   3.605   9.965 -0.9533  0.5061 -0.2428
   21CHL1  H19A 1521   5.754   3.517   9.901  1.8586  1.3016 -0.4401
   21CHL1  H19B 1522   5.698   3.576  10.066  3.8314 -2.8243  0.5909
   21CHL1  H19C 1523   5.652   3.663   9.916 -1.5408 -0.2642 -0.2046
   21CHL1    C1 1524   5.987   3.633  10.027 -0.7905  0.3402  0.0167
   21CHL1   H1A 1525   6.019   3.535   9.987  0.6653  1.1919 -0.9583
   21CHL1   H1B 1526   6.075   3.700  10.020  0.3338 -1.1490 -0.3103
   21CHL1    C2 1527   5.973   3.597  10.174  0.2546  0.2840  0.3145
   21CHL1   H2A 1528   6.053   3.527  10.208 -0.1047 -0.9349 -1.2917
   21CHL1   H2B 1529   5.886   3.528  10.177  1.7674 -1.6420  1.1146
   21CHL1   C20 1530   5.799   3.714   9.267  0.9144  0.3195  0.3123
   21CHL1   H20 1531   5.693   3.687   9.285  1.2310 -0.3910  1.1742
   21CHL1   C21 1532   5.892   3.586   9.254  0.1065 -0.2319  0.3224
   21CHL1  H21A 1533   6.001   3.605   9.249  1.0380 -4.8110  0.6999
   21CHL1  H21B 1534   5.881   3.528   9.160  0.1509 -0.6822  0.5957
   21CHL1  H21C 1535   5.881   3.514   9.338  2.1210 -2.5116 -1.2839
   21CHL1   C22 1536   5.813   3.794   9.137  0.6899  0.1892  0.4021
   21CHL1  H22A 1537   5.756   3.889   9.149  2.5118  1.2576  0.7216
   21CHL1  H22B 1538   5.919   3.824   9.124  1.1099 -1.8375 -0.8933
   21CHL1   C23 1539   5.753   3.734   9.010  0.9236  0.3230 -0.2518
   21CHL1  H23A 1540   5.806   3.645   8.969  2.2971  0.0830  1.9272
   21CHL1  H23B 1541   5.648   3.703   9.030  1.4326 -0.2156  1.7393
   21CHL1   C24 1542   5.750   3.833   8.889 -0.1077 -0.3440 -0.0819
   21CHL1  H24A 1543   5.707   3.926   8.931 -2.3610 -0.0699 -2.8098
   21CHL1  H24B 1544   5.856   3.852   8.863 -0.5945  1.5176 -0.7918
   21CHL1   C25 1545   5.672   3.782   8.761 -0.2697 -0.0359 -0.2951
   21CHL1   H25 1546   5.702   3.678   8.733  0.8739  0.0341  0.6514
   21CHL1   C26 1547   5.519   3.792   8.797 -0.0554 -0.4696  0.6652
   21CHL1  H26A 1548   5.467   3.779   8.699  0.3355 -1.5319  0.5963
   21CHL1  H26B 1549   5.492   3.714   8.871  1.0433 -2.4137 -0.9262
   21CHL1  H26C 1550   5.490   3.893   8.835 -2.2751 -1.0516  0.6165
   21CHL1   C27 1551   5.688   3.873   8.638 -0.5338  0.3001 -0.5637
   21CHL1  H27A 1552   5.642   3.823   8.550  0.3504 -0.0565 -0.8269
   21CHL1  H27B 1553   5.630   3.966   8.660  0.3241  0.2215  2.2342
   21CHL1  H27C 1554   5.796   3.888   8.618 -0.1527 -0.2888  1.0037
   22CHL1    C3 1555   5.370   4.674  10.020  0.1712  0.7911 -0.0020
   22CHL1    H3 1556   5.466   4.616  10.016  0.0744  0.6146  0.2058
   22CHL1    O3 1557   5.326   4.682  10.155  0.0766  0.3736  0.0921
   22CHL1   H3' 1558   5.320   4.777  10.168  2.2029  0.3385  1.6703
   22CHL1    C4 1559   5.403   4.815   9.976 -0.1589  0.1829 -0.4636
   22CHL1   H4A 1560   5.323   4.888   9.998  0.4718  0.7554 -0.0532
   22CHL1   H4B 1561   5.492   4.855  10.030  0.3575  1.4037 -2.1826
   22CHL1    C5 1562   5.449   4.814   9.827  0.2865  0.4806 -0.2302
   22CHL1    C6 1563   5.564   4.865   9.787  0.1446  0.3880 -0.3986
   22CHL1    H6 1564   5.626   4.900   9.870 -0.2754  1.4380 -0.5074
   22CHL1    C7 1565   5.600   4.896   9.647  0.7280 -0.4729 -0.2262
   22CHL1   H7A 1566   5.611   5.003   9.621  1.4353 -0.2357  1.0106
   22CHL1   H7B 1567   5.695   4.841   9.627  1.0652 -0.6818  1.8222
   22CHL1    C8 1568   5.487   4.862   9.547 -0.3505  0.1548  0.3380
   22CHL1    H8 1569   5.406   4.937   9.548 -0.4767  0.1164 -2.8247
   22CHL1   C14 1570   5.548   4.843   9.407 -0.5254  0.2699  0.1220
   22CHL1   H14 1571   5.608   4.750   9.411 -2.2946 -0.9169 -0.0453
   22CHL1   C15 1572   5.638   4.958   9.353  1.3481 -0.0315  0.1802
   22CHL1  H15A 1573   5.590   5.057   9.369  0.7541 -0.1647 -0.7424
   22CHL1  H15B 1574   5.739   4.959   9.401  1.6130 -0.8569 -0.3617
   22CHL1   C16 1575   5.640   4.930   9.206 -0.2119 -0.1064 -0.0145
   22CHL1  H16A 1576   5.599   5.013   9.145 -0.1712  0.9442  1.3466
   22CHL1  H16B 1577   5.738   4.904   9.161 -0.4070 -2.1000  0.6746
   22CHL1   C17 1578   5.545   4.808   9.171 -0.2773 -0.3552 -0.2849
   22CHL1   H17 1579   5.611   4.719   9.169 -0.5194 -0.5506  0.3057
   22CHL1   C13 1580   5.450   4.796   9.293  0.3336 -0.4133 -0.1182
   22CHL1   C18 1581   5.334   4.900   9.279  0.3252  0.1638  0.1952
   22CHL1  H18A 1582   5.294   4.936   9.377  3.0660  0.6176  1.1972
   22CHL1  H18B 1583   5.364   4.988   9.218  3.6390 -0.7555  0.4234
   22CHL1  H18C 1584   5.249   4.860   9.220  0.0825  0.7272  0.1543
   22CHL1   C12 1585   5.397   4.659   9.333 -0.3615 -0.1143  0.1014
   22CHL1  H12A 1586   5.319   4.631   9.259 -0.6485 -1.9963  1.0921
   22CHL1  H12B 1587   5.486   4.593   9.322 -0.3525  0.0974 -1.1964
   22CHL1   C11 1588   5.333   4.662   9.474 -0.5093  0.6191 -0.6058
   22CHL1  H11A 1589   5.241   4.722   9.456 -0.5516  0.7618  0.0712
   22CHL1  H11B 1590   5.305   4.558   9.501 -0.2447  0.3783 -1.2489
   22CHL1    C9 1591   5.421   4.726   9.589 -0.7704 -0.0452 -0.4065
   22CHL1    H9 1592   5.505   4.654   9.600 -1.7484 -1.0665  0.5988
   22CHL1   C10 1593   5.352   4.746   9.729  0.0339 -0.2646  0.0812
   22CHL1   C19 1594   5.220   4.828   9.709 -0.3508 -0.2737 -0.6215
   22CHL1  H19A 1595   5.235   4.929   9.666 -0.7476  1.1929  2.5941
   22CHL1  H19B 1596   5.144   4.776   9.647  1.8518 -2.9840 -1.1613
   22CHL1  H19C 1597   5.171   4.852   9.806 -0.2790 -0.9858 -0.3992
   22CHL1    C1 1598   5.300   4.608   9.783  0.2592 -0.0517 -0.4624
   22CHL1   H1A 1599   5.213   4.581   9.720 -0.1412  0.0389  0.0451
   22CHL1   H1B 1600   5.380   4.533   9.765  0.7327  0.2817  0.2199
   22CHL1    C2 1601   5.264   4.610   9.933  0.1597 -0.6248  0.6087
   22CHL1   H2A 1602   5.247   4.506   9.967 -1.3460  0.0094  1.8678
   22CHL1   H2B 1603   5.166   4.663   9.935  0.1919 -0.5832  1.0356
   22CHL1   C20 1604   5.490   4.815   9.025  0.7576 -0.4360 -0.3914
   22CHL1   H20 1605   5.420   4.900   9.011  2.1092  1.1971  2.3814
   22CHL1   C21 1606   5.399   4.695   8.999 -0.1414  0.0108  0.4049
   22CHL1  H21A 1607   5.455   4.600   9.011 -1.0498 -0.4664  0.9936
   22CHL1  H21B 1608   5.365   4.699   8.893 -1.0398  0.2463  0.6976
   22CHL1  H21C 1609   5.310   4.700   9.066  0.0209  0.0045  0.6199
   22CHL1   C22 1610   5.599   4.832   8.918  0.0022 -0.4298  0.4039
   22CHL1  H22A 1611   5.541   4.846   8.824 -0.2222 -1.1167  0.4397
   22CHL1  H22B 1612   5.646   4.933   8.926 -0.6778 -0.2821  2.9164
   22CHL1   C23 1613   5.704   4.723   8.914 -0.5429  0.0908 -0.2647
   22CHL1  H23A 1614   5.755   4.692   9.008  0.3611 -0.5591 -0.9552
   22CHL1  H23B 1615   5.655   4.627   8.890  1.0278 -0.2298 -2.3238
   22CHL1   C24 1616   5.810   4.742   8.804 -0.1074  0.5451  0.3543
   22CHL1  H24A 1617   5.875   4.652   8.804 -0.8495 -0.0183 -1.8044
   22CHL1  H24B 1618   5.768   4.762   8.702 -2.2477 -0.7062  0.9573
   22CHL1   C25 1619   5.909   4.858   8.827 -0.2860 -0.4588  0.1289
   22CHL1   H25 1620   5.867   4.959   8.809 -1.1940 -0.6529  1.1095
   22CHL1   C26 1621   5.970   4.841   8.969  0.2480 -0.0276  0.2224
   22CHL1  H26A 1622   6.010   4.739   8.980  1.4527  0.3964 -0.1612
   22CHL1  H26B 1623   6.061   4.905   8.965  0.3483 -0.1914 -0.1014
   22CHL1  H26C 1624   5.911   4.877   9.056  1.4801  0.4223  0.8812
   22CHL1   C27 1625   6.027   4.843   8.714 -0.1389 -0.1136 -0.1559
   22CHL1  H27A 1626   5.991   4.878   8.615 -0.9068 -0.7600 -0.1059
   22CHL1  H27B 1627   6.108   4.911   8.747 -1.7668  1.0366  1.5550
   22CHL1  H27C 1628   6.068   4.740   8.703 -0.8235 -0.7104  2.5019
   23CHL1    C3 1629   1.809   6.010  10.315  0.0387 -0.7566 -0.3565
   23CHL1    H3 1630   1.919   5.994  10.307  0.4969  1.6992  0.6008
   23CHL1    O3 1631   1.774   6.019  10.457 -0.1865  0.0590  0.2393
   23CHL1   H3' 1632   1.797   6.109  10.479 -0.8530  0.1150  0.6990
   23CHL1    C4 1633   1.796   6.153  10.251 -0.0174 -0.3463 -0.6660
   23CHL1   H4A 1634   1.687   6.170  10.264  0.3452  0.6174  1.3025
   23CHL1   H4B 1635   1.849   6.227  10.315 -1.6545 -0.1445  0.4895
   23CHL1    C5 1636   1.830   6.147  10.105 -0.6433  0.1657  0.2559
   23CHL1    C6 1637   1.916   6.234  10.054 -0.6239 -0.1739  0.1985
   23CHL1    H6 1638   1.962   6.300  10.128 -0.8147 -1.9410  1.9256
   23CHL1    C7 1639   1.962   6.238   9.908  0.4234  0.0133  0.1539
   23CHL1   H7A 1640   1.974   6.336   9.858 -0.9461  0.9092  1.5148
   23CHL1   H7B 1641   2.055   6.179   9.896  1.6625  1.4837  2.2125
   23CHL1    C8 1642   1.861   6.149   9.810  0.0205  0.3443 -0.0987
   23CHL1    H8 1643   1.767   6.205   9.796  1.0393  2.0909 -0.0112
   23CHL1   C14 1644   1.926   6.116   9.677  0.6040  0.2863 -0.8264
   23CHL1   H14 1645   2.010   6.046   9.700  0.2596  1.1966  3.6689
   23CHL1   C15 1646   1.983   6.227   9.589 -0.4215  0.2432 -0.1373
   23CHL1  H15A 1647   1.925   6.322   9.588  1.6704  1.5414  0.0466
   23CHL1  H15B 1648   2.090   6.249   9.611 -0.3266  0.2522 -0.6051
   23CHL1   C16 1649   1.990   6.169   9.446  0.0939 -0.3122 -0.2123
   23CHL1  H16A 1650   1.926   6.225   9.374 -1.3003 -4.0206 -1.9943
   23CHL1  H16B 1651   2.096   6.167   9.414 -0.6063 -0.2232 -2.6330
   23CHL1   C17 1652   1.927   6.031   9.453 -0.4718 -0.6427  0.6377
   23CHL1   H17 1653   2.013   5.967   9.482  0.1894 -0.2054 -0.3303
   23CHL1   C13 1654   1.838   6.031   9.583 -0.6603 -0.3257 -0.3726
   23CHL1   C18 1655   1.707   6.094   9.544  0.0631 -0.3021 -0.3975
   23CHL1  H18A 1656   1.654   6.018   9.483  0.0396  0.8170 -1.8015
   23CHL1  H18B 1657   1.641   6.106   9.632 -0.0798 -0.1547 -0.5253
   23CHL1  H18C 1658   1.710   6.177   9.470 -0.3499 -1.3336 -1.5776
   23CHL1   C12 1659   1.814   5.898   9.645  0.5538 -0.0941  0.0677
   23CHL1  H12A 1660   1.742   5.837   9.585 -0.7930  1.1826  0.3644
   23CHL1  H12B 1661   1.913   5.848   9.643  0.3084 -0.5633 -0.9885
   23CHL1   C11 1662   1.763   5.899   9.791 -0.2801 -0.1478  0.4828
   23CHL1  H11A 1663   1.656   5.927   9.783  0.3308  1.8058 -1.4377
   23CHL1  H11B 1664   1.768   5.800   9.840 -0.0069  0.2589  1.2795
   23CHL1    C9 1665   1.831   6.007   9.881 -0.7823 -0.4707  0.8290
   23CHL1    H9 1666   1.931   5.965   9.902  0.1283 -0.8494 -3.7749
   23CHL1   C10 1667   1.764   6.028  10.022 -0.5106  0.0475 -0.6381
   23CHL1   C19 1668   1.613   6.058  10.006  0.1559  0.0281  0.1503
   23CHL1  H19A 1669   1.566   5.971   9.955  1.1668  0.3941 -1.4759
   23CHL1  H19B 1670   1.571   6.087  10.104  1.8088  1.7938  0.3613
   23CHL1  H19C 1671   1.604   6.141   9.933  3.2730  0.7102  0.4684
   23CHL1    C1 1672   1.781   5.884  10.102 -0.3145 -0.3563  0.0051
   23CHL1   H1A 1673   1.715   5.805  10.061 -1.0866 -0.5192  1.5148
   23CHL1   H1B 1674   1.886   5.849  10.099  0.5015  2.0383 -1.4885
   23CHL1    C2 1675   1.729   5.900  10.249 -0.2448 -0.0324 -0.2435
   23CHL1   H2A 1676   1.739   5.800  10.297  0.4448  0.4880  0.7223
   23CHL1   H2B 1677   1.621   5.927  10.248 -0.2464 -0.0074  0.7312
   23CHL1   C20 1678   1.876   5.980   9.317 -0.5721  0.1781 -0.2318
   23CHL1   H20 1679   1.778   6.028   9.294  0.8990  1.5749 -3.9893
   23CHL1   C21 1680   1.833   5.828   9.325 -0.0517  0.1913  0.1980
   23CHL1  H21A 1681   1.726   5.818   9.353  0.3097 -1.5338  1.0254
   23CHL1  H21B 1682   1.896   5.789   9.408 -2.4946  0.4655  2.2305
   23CHL1  H21C 1683   1.862   5.769   9.235  1.8571  1.6829 -0.1803
   23CHL1   C22 1684   1.955   6.017   9.190  0.5666 -0.4225 -0.3652
   23CHL1  H22A 1685   1.983   6.124   9.188 -2.2418  0.3566 -1.0240
   23CHL1  H22B 1686   2.052   5.964   9.182  1.9747  2.1539 -0.7843
   23CHL1   C23 1687   1.873   5.996   9.051  0.3330  0.2926  0.4747
   23CHL1  H23A 1688   1.851   5.887   9.051 -1.0255  0.5162 -2.9970
   23CHL1  H23B 1689   1.781   6.057   9.062  0.3721  0.4863 -0.2193
   23CHL1   C24 1690   1.950   6.033   8.920 -0.5730 -0.6144 -0.5806
   23CHL1  H24A 1691   1.960   6.144   8.926  0.8897 -0.8393  1.7564
   23CHL1  H24B 1692   2.053   5.993   8.922  0.4374  1.9227 -0.0522
   23CHL1   C25 1693   1.875   5.988   8.792  0.0949 -0.0910  0.0987
   23CHL1   H25 1694   1.774   6.035   8.793 -0.3727 -1.0814  1.8789
   23CHL1   C26 1695   1.936   6.040   8.660 -0.1370  0.1247 -0.1444
   23CHL1  H26A 1696   2.046   6.027   8.662  0.0070  0.3737 -3.4932
   23CHL1  H26B 1697   1.895   5.976   8.579 -1.4317 -0.9782  1.3487
   23CHL1  H26C 1698   1.916   6.149   8.658 -1.0165  0.0238  2.0364
   23CHL1   C27 1699   1.864   5.836   8.783 -0.0554 -0.3466  0.2945
   23CHL1  H27A 1700   1.821   5.807   8.685  1.5718  1.3862 -0.9818
   23CHL1  H27B 1701   1.966   5.791   8.789 -0.4013 -1.2883 -0.7207
   23CHL1  H27C 1702   1.794   5.786   8.853  1.2465 -0.0851  1.8278
   24CHL1    C3 1703   3.251   6.636  10.031  0.8169 -0.2033 -0.0257
   24CHL1    H3 1704   3.258   6.526  10.028  0.6149 -0.2739  1.5876
   24CHL1    O3 1705   3.250   6.689  10.160 -0.8546  0.2249  0.3503
   24CHL1   H3' 1706   3.321   6.645  10.207  0.9707  1.6673 -0.9478
   24CHL1    C4 1707   3.382   6.690   9.964 -0.8144 -0.9788  0.8845
   24CHL1   H4A 1708   3.394   6.798   9.989  0.6110 -0.6621 -1.0527
   24CHL1   H4B 1709   3.468   6.643  10.015  0.1406  0.4776  0.6613
   24CHL1    C5 1710   3.401   6.674   9.809 -0.8524  0.0135  0.3152
   24CHL1    C6 1711   3.512   6.630   9.751  0.1408  0.8167  0.5273
   24CHL1    H6 1712   3.597   6.593   9.810  0.0298 -0.5078 -0.1191
   24CHL1    C7 1713   3.524   6.609   9.598 -0.4564 -0.5489 -0.5296
   24CHL1   H7A 1714   3.624   6.637   9.559 -1.2632 -0.2624 -2.4864
   24CHL1   H7B 1715   3.507   6.506   9.559  0.2517 -1.2278  0.9462
   24CHL1    C8 1716   3.415   6.693   9.518 -0.1342  0.3896 -0.4324
   24CHL1    H8 1717   3.437   6.801   9.520 -1.0795  0.5691  1.5478
   24CHL1   C14 1718   3.408   6.649   9.374  0.7330 -0.8615 -0.4425
   24CHL1   H14 1719   3.386   6.540   9.377 -0.9990 -0.6137 -2.7699
   24CHL1   C15 1720   3.542   6.648   9.296 -0.9366 -0.8732  0.5158
   24CHL1  H15A 1721   3.577   6.751   9.317  4.1261 -2.4772  0.6468
   24CHL1  H15B 1722   3.612   6.577   9.344  1.5474  0.5781 -0.8618
   24CHL1   C16 1723   3.493   6.629   9.155  0.2221  0.2058 -0.2844
   24CHL1  H16A 1724   3.536   6.706   9.089 -0.5168  1.8167  1.0695
   24CHL1  H16B 1725   3.532   6.531   9.120 -1.4792 -0.2083 -1.0779
   24CHL1   C17 1726   3.337   6.636   9.147  0.2188  0.2304 -0.5259
   24CHL1   H17 1727   3.293   6.537   9.170  2.0912  0.0876  2.7244
   24CHL1   C13 1728   3.303   6.709   9.279 -0.1284 -0.8381 -0.2602
   24CHL1   C18 1729   3.332   6.861   9.266  0.0432  0.3045  0.2208
   24CHL1  H18A 1730   3.266   6.899   9.186 -1.3748  1.0071  1.6929
   24CHL1  H18B 1731   3.302   6.907   9.363  0.7496 -0.4037  0.7849
   24CHL1  H18C 1732   3.436   6.891   9.240  1.0166 -1.3209  2.0733
   24CHL1   C12 1733   3.168   6.679   9.339  0.7938 -0.1748  0.2966
   24CHL1  H12A 1734   3.079   6.724   9.292  0.3276 -2.6167 -1.2555
   24CHL1  H12B 1735   3.147   6.570   9.345  1.5852 -0.2772  1.4014
   24CHL1   C11 1736   3.162   6.729   9.483  0.5593 -0.1348  0.0067
   24CHL1  H11A 1737   3.165   6.840   9.487 -1.6756 -0.0652  0.2200
   24CHL1  H11B 1738   3.066   6.699   9.529  1.2755 -2.1765  0.2338
   24CHL1    C9 1739   3.277   6.675   9.576 -0.0095 -0.6005 -0.8942
   24CHL1    H9 1740   3.259   6.566   9.580  1.4399 -0.8568 -1.1536
   24CHL1   C10 1741   3.275   6.727   9.727  0.3156  0.3337 -0.0023
   24CHL1   C19 1742   3.269   6.877   9.737  0.4796  0.1415  0.4222
   24CHL1  H19A 1743   3.169   6.914   9.705  0.9760  2.2707  1.1981
   24CHL1  H19B 1744   3.285   6.926   9.836  0.0505  3.4291 -1.0606
   24CHL1  H19C 1745   3.338   6.927   9.666  1.6945  0.7391  1.9856
   24CHL1    C1 1746   3.149   6.670   9.797 -0.7267  0.2105 -0.4276
   24CHL1   H1A 1747   3.064   6.721   9.746 -1.8659  0.3543  1.5530
   24CHL1   H1B 1748   3.135   6.563   9.771 -1.0527  0.0418  0.4354
   24CHL1    C2 1749   3.130   6.692   9.949  0.3037  0.5333 -0.3875
   24CHL1   H2A 1750   3.043   6.634   9.987  1.8624 -1.1141  0.7370
   24CHL1   H2B 1751   3.122   6.800   9.974 -3.2132  0.7925 -2.3018
   24CHL1   C20 1752   3.287   6.687   9.007 -0.5853 -0.7862  0.0224
   24CHL1   H20 1753   3.309   6.795   8.990 -1.0539 -0.2274  2.7341
   24CHL1   C21 1754   3.134   6.678   9.013 -0.3125  0.1683  0.0545
   24CHL1  H21A 1755   3.093   6.743   9.093 -0.8579 -1.8942  1.4935
   24CHL1  H21B 1756   3.101   6.577   9.044  2.0862 -0.8146 -0.4183
   24CHL1  H21C 1757   3.094   6.686   8.909 -2.1294  2.8806  0.9201
   24CHL1   C22 1758   3.347   6.608   8.888  0.5675  0.1011 -0.8315
   24CHL1  H22A 1759   3.454   6.581   8.904 -0.0941 -1.1422  1.7875
   24CHL1  H22B 1760   3.279   6.521   8.882  2.8775 -1.7660 -0.8390
   24CHL1   C23 1761   3.330   6.688   8.756  0.2486  0.1899  0.2383
   24CHL1  H23A 1762   3.236   6.746   8.744  1.5223  1.7718 -2.5613
   24CHL1  H23B 1763   3.407   6.768   8.754 -1.0623  1.4777  0.0453
   24CHL1   C24 1764   3.344   6.607   8.626  0.4439  0.0662 -0.1253
   24CHL1  H24A 1765   3.350   6.672   8.535  1.8044 -0.0471 -0.1225
   24CHL1  H24B 1766   3.444   6.561   8.641 -0.0085 -0.5656  0.9852
   24CHL1   C25 1767   3.253   6.484   8.605  0.6701  1.1702 -0.2362
   24CHL1   H25 1768   3.266   6.422   8.696 -2.6850 -0.2054 -0.5950
   24CHL1   C26 1769   3.106   6.521   8.596  0.1034  0.1111  0.0212
   24CHL1  H26A 1770   3.041   6.434   8.573  1.7444 -0.9167 -0.7969
   24CHL1  H26B 1771   3.084   6.555   8.700  2.8591  0.9959  0.3591
   24CHL1  H26C 1772   3.096   6.606   8.525  1.7364 -0.0024 -0.3701
   24CHL1   C27 1773   3.296   6.404   8.483  0.0137 -0.3876 -0.1234
   24CHL1  H27A 1774   3.405   6.381   8.480  0.6992  2.5491  0.3946
   24CHL1  H27B 1775   3.229   6.316   8.491 -0.8090 -0.0379 -2.8593
   24CHL1  H27C 1776   3.281   6.450   8.383  1.9681 -1.8462 -1.1266
   25CHL1    C3 1777   4.409   1.223  10.443  0.0480  0.0819  0.1169
   25CHL1    H3 1778   4.300   1.238  10.427 -0.3954  0.8705  3.4317
   25CHL1    O3 1779   4.428   1.199  10.581 -0.0195 -0.0824  0.0711
   25CHL1   H3' 1780   4.512   1.242  10.597 -0.1810  0.9575 -1.6604
   25CHL1    C4 1781   4.466   1.099  10.381  0.0674 -0.8169 -0.7522
   25CHL1   H4A 1782   4.575   1.092  10.402  0.2600  1.1761 -0.9620
   25CHL1   H4B 1783   4.425   1.008  10.429 -0.2098  0.2618  1.0782
   25CHL1    C5 1784   4.454   1.112  10.231  0.3818  0.3382 -0.6375
   25CHL1    C6 1785   4.401   1.013  10.158  0.2235 -0.3703  0.1571
   25CHL1    H6 1786   4.356   0.932  10.216 -0.8765 -1.0518 -1.6043
   25CHL1    C7 1787   4.397   1.005  10.006 -0.4652  0.1252  0.7980
   25CHL1   H7A 1788   4.413   0.904   9.963  0.8170  0.5811  0.1659
   25CHL1   H7B 1789   4.292   1.036   9.991 -0.3512  0.6242  0.9968
   25CHL1    C8 1790   4.500   1.106   9.952 -0.0443  0.1524  0.1186
   25CHL1    H8 1791   4.602   1.064   9.969  0.0465  0.8506  1.3608
   25CHL1   C14 1792   4.475   1.125   9.804  0.0852 -0.1791 -0.7082
   25CHL1   H14 1793   4.369   1.157   9.793 -0.4761 -1.5667  0.4357
   25CHL1   C15 1794   4.474   0.995   9.724 -0.5340  0.2012 -0.3726
   25CHL1  H15A 1795   4.558   0.930   9.756  0.9100  1.7592 -0.9182
   25CHL1  H15B 1796   4.381   0.936   9.735 -0.2693  0.0609  1.1321
   25CHL1   C16 1797   4.495   1.044   9.581  0.9109  0.0764  0.0445
   25CHL1  H16A 1798   4.568   0.987   9.519 -1.1143 -0.8791 -1.5344
   25CHL1  H16B 1799   4.403   1.028   9.520  1.6562 -0.2509 -1.0096
   25CHL1   C17 1800   4.503   1.202   9.582 -0.2013 -0.6777 -0.8539
   25CHL1   H17 1801   4.399   1.240   9.588  1.0615  2.9856 -1.3003
   25CHL1   C13 1802   4.562   1.225   9.726 -0.5589 -0.2297 -0.1307
   25CHL1   C18 1803   4.716   1.199   9.731  0.4235 -0.4993  0.0092
   25CHL1  H18A 1804   4.752   1.203   9.836 -0.5142 -2.5595  0.4324
   25CHL1  H18B 1805   4.739   1.096   9.696  0.9673 -1.3974  2.8925
   25CHL1  H18C 1806   4.771   1.273   9.669 -2.2884 -0.2706 -2.1926
   25CHL1   C12 1807   4.535   1.365   9.788 -0.2610 -0.2025  1.1287
   25CHL1  H12A 1808   4.600   1.444   9.747 -1.5341 -0.8048 -2.1757
   25CHL1  H12B 1809   4.431   1.396   9.761  0.6280  1.3433 -0.6043
   25CHL1   C11 1810   4.557   1.355   9.942 -0.1719 -0.2631 -0.5117
   25CHL1  H11A 1811   4.668   1.352   9.949 -0.1915 -0.2184 -0.1747
   25CHL1  H11B 1812   4.522   1.452   9.984  0.7471 -0.0101 -0.3046
   25CHL1    C9 1813   4.482   1.238  10.017  0.3208  0.5092  0.7193
   25CHL1    H9 1814   4.375   1.262  10.003 -0.6945 -1.8640  3.8106
   25CHL1   C10 1815   4.510   1.232  10.169 -0.4715 -0.0289  0.1937
   25CHL1   C19 1816   4.662   1.223  10.185 -0.1307  0.0875  0.0139
   25CHL1  H19A 1817   4.691   1.199  10.289 -0.6458  1.3345  0.4513
   25CHL1  H19B 1818   4.707   1.142  10.124  0.3670  0.1876  0.2506
   25CHL1  H19C 1819   4.720   1.313  10.156 -0.9188  0.5823 -0.0631
   25CHL1    C1 1820   4.453   1.357  10.243  0.4052 -0.0987 -0.4196
   25CHL1   H1A 1821   4.499   1.454  10.215  0.1681 -0.3350 -1.6608
   25CHL1   H1B 1822   4.345   1.354  10.216  0.0100 -0.3192  1.1466
   25CHL1    C2 1823   4.460   1.352  10.399 -0.3547  0.3002  0.3576
   25CHL1   H2A 1824   4.410   1.440  10.443 -3.3798 -0.6935 -0.9947
   25CHL1   H2B 1825   4.568   1.358  10.425 -0.6306  0.1878  1.5459
   25CHL1   C20 1826   4.576   1.277   9.470  0.0029  0.4001  0.2100
   25CHL1   H20 1827   4.685   1.287   9.487 -0.0596 -0.3912  1.1686
   25CHL1   C21 1828   4.511   1.413   9.446 -0.1328  1.4557  0.0701
   25CHL1  H21A 1829   4.510   1.466   9.543 -0.8896 -0.1757  0.9788
   25CHL1  H21B 1830   4.408   1.404   9.406 -0.8537  3.7849  1.3027
   25CHL1  H21C 1831   4.576   1.477   9.383  0.7099 -0.7648 -1.4110
   25CHL1   C22 1832   4.568   1.195   9.331 -0.1241 -0.2903  0.1205
   25CHL1  H22A 1833   4.603   1.091   9.343 -0.9738 -0.6092 -0.1715
   25CHL1  H22B 1834   4.468   1.189   9.284  0.3571  1.1971 -1.1665
   25CHL1   C23 1835   4.674   1.248   9.234  0.3345 -1.1220  1.1231
   25CHL1  H23A 1836   4.656   1.355   9.211 -0.4596 -1.1177  1.7372
   25CHL1  H23B 1837   4.780   1.240   9.267  0.5186  0.4693  0.9736
   25CHL1   C24 1838   4.671   1.170   9.101 -0.1108 -0.1615  0.3319
   25CHL1  H24A 1839   4.657   1.061   9.120  2.8779 -0.4876  0.9128
   25CHL1  H24B 1840   4.577   1.201   9.050  0.9676  2.3052 -0.2397
   25CHL1   C25 1841   4.781   1.190   8.992 -0.3035  0.6664 -0.3828
   25CHL1   H25 1842   4.748   1.129   8.905 -0.4223 -1.0693  0.8451
   25CHL1   C26 1843   4.802   1.346   8.978 -0.3607  0.8513  0.0930
   25CHL1  H26A 1844   4.828   1.393   9.076  1.6687  2.6573 -1.2445
   25CHL1  H26B 1845   4.892   1.372   8.918 -2.2641  2.4591 -2.1555
   25CHL1  H26C 1846   4.713   1.390   8.929 -0.6454  0.6986  0.4735
   25CHL1   C27 1847   4.919   1.127   9.039  0.2783  0.8406  0.2432
   25CHL1  H27A 1848   4.901   1.024   9.077  0.0775  0.9448  0.4375
   25CHL1  H27B 1849   4.990   1.116   8.955 -1.0676 -1.0636 -0.6981
   25CHL1  H27C 1850   4.958   1.193   9.120 -0.4953  0.1075  1.2361
   26CHL1    C3 1851   5.944   4.642  10.195  0.6298  0.2374  0.5797
   26CHL1    H3 1852   6.055   4.635  10.197  0.7045  0.7944 -1.3632
   26CHL1    O3 1853   5.885   4.677  10.316  0.3687 -0.3616 -0.0937
   26CHL1   H3' 1854   5.790   4.663  10.309 -0.1919  2.7328  0.4019
   26CHL1    C4 1855   5.897   4.744  10.092 -0.0534 -0.3705 -0.0614
   26CHL1   H4A 1856   5.792   4.772  10.115  0.3978  2.1016 -0.8788
   26CHL1   H4B 1857   5.956   4.828  10.133  1.4622 -2.1875  1.5643
   26CHL1    C5 1858   5.931   4.714   9.951 -0.0604 -0.7244  0.6568
   26CHL1    C6 1859   6.006   4.806   9.881  0.5722  0.4147 -0.3128
   26CHL1    H6 1860   6.034   4.905   9.921 -1.3376  0.1730  1.7510
   26CHL1    C7 1861   6.047   4.787   9.735  0.2796 -0.1695  0.3392
   26CHL1   H7A 1862   6.020   4.876   9.674  0.2742  0.1373  0.7849
   26CHL1   H7B 1863   6.158   4.787   9.733  0.2734  0.2923  0.0138
   26CHL1    C8 1864   5.981   4.669   9.671 -0.6487 -0.0284  0.0529
   26CHL1    H8 1865   5.876   4.695   9.648 -0.1341 -0.6464 -3.2452
   26CHL1   C14 1866   6.062   4.632   9.550 -0.4898  0.1650 -0.3055
   26CHL1   H14 1867   6.164   4.605   9.584 -0.2670  2.0234  0.5657
   26CHL1   C15 1868   6.084   4.736   9.438 -0.2767 -0.4740  0.5519
   26CHL1  H15A 1869   5.990   4.793   9.423 -0.8745 -0.6456  3.3737
   26CHL1  H15B 1870   6.163   4.813   9.452 -0.5088  0.4515 -2.9836
   26CHL1   C16 1871   6.119   4.657   9.308 -0.1089 -0.3677 -1.4055
   26CHL1  H16A 1872   6.052   4.695   9.228 -0.6743 -0.9335 -1.2045
   26CHL1  H16B 1873   6.226   4.663   9.279 -0.0468 -1.0816 -1.3493
   26CHL1   C17 1874   6.098   4.509   9.353  0.1525  0.3134 -0.1398
   26CHL1   H17 1875   6.195   4.473   9.395 -0.0987  0.0837  0.2426
   26CHL1   C13 1876   6.004   4.517   9.476 -0.1861  0.1161  0.1375
   26CHL1   C18 1877   5.866   4.550   9.420  0.1559 -0.7390  0.9741
   26CHL1  H18A 1878   5.817   4.462   9.374 -0.0367 -0.4085  0.5441
   26CHL1  H18B 1879   5.795   4.582   9.499 -2.1691 -1.3982 -0.7728
   26CHL1  H18C 1880   5.873   4.637   9.351  0.2964 -1.8872 -0.4895
   26CHL1   C12 1881   6.005   4.391   9.560 -0.5739  0.1281 -0.3899
   26CHL1  H12A 1882   5.957   4.305   9.509  1.5376 -0.9962 -0.5473
   26CHL1  H12B 1883   6.109   4.363   9.586 -1.5021 -1.2400  2.0338
   26CHL1   C11 1884   5.937   4.417   9.691 -0.3688  0.3383 -0.3014
   26CHL1  H11A 1885   5.828   4.425   9.671 -0.5960 -0.1455  0.7198
   26CHL1  H11B 1886   5.955   4.334   9.762  0.7189 -0.4266 -1.4560
   26CHL1    C9 1887   5.978   4.546   9.763 -0.2889 -1.2204 -0.4803
   26CHL1    H9 1888   6.083   4.531   9.794 -0.6764 -0.4034  1.2959
   26CHL1   C10 1889   5.905   4.570   9.895  0.5948 -0.5020 -0.0667
   26CHL1   C19 1890   5.753   4.543   9.870  0.0655 -0.2310  0.2203
   26CHL1  H19A 1891   5.714   4.600   9.783 -1.6375  2.4362  2.6203
   26CHL1  H19B 1892   5.734   4.434   9.863 -1.1370 -0.2846  3.4593
   26CHL1  H19C 1893   5.694   4.575   9.959  2.8345  1.0616  1.6906
   26CHL1    C1 1894   5.949   4.469  10.004  0.0617  0.0352 -0.0788
   26CHL1   H1A 1895   5.915   4.366   9.978 -0.7837  0.3674 -0.3135
   26CHL1   H1B 1896   6.060   4.474  10.010  0.0410  3.3953 -1.3487
   26CHL1    C2 1897   5.897   4.497  10.147  0.4857 -0.1182  0.3014
   26CHL1   H2A 1898   5.948   4.416  10.202 -0.9588 -1.6863 -0.6230
   26CHL1   H2B 1899   5.787   4.502  10.162  0.4127  0.2358 -0.3339
   26CHL1   C20 1900   6.058   4.430   9.229  1.0287  0.0883  0.0133
   26CHL1   H20 1901   5.958   4.462   9.194  1.6535  1.2923 -0.6934
   26CHL1   C21 1902   6.070   4.283   9.251  0.0637 -0.5610 -0.4217
   26CHL1  H21A 1903   6.001   4.249   9.331  1.9192  1.4751  2.1034
   26CHL1  H21B 1904   6.175   4.264   9.283  0.0085  0.4954  0.4217
   26CHL1  H21C 1905   6.041   4.221   9.163 -0.9799  0.3883 -0.7569
   26CHL1   C22 1906   6.132   4.460   9.104  0.2711  0.6940  0.7845
   26CHL1  H22A 1907   6.176   4.559   9.080 -1.8528  0.9623 -2.2916
   26CHL1  H22B 1908   6.214   4.386   9.111  0.9932  1.4217  0.0994
   26CHL1   C23 1909   6.049   4.425   8.977 -0.1828  0.2063  0.2673
   26CHL1  H23A 1910   6.000   4.326   8.967  2.1867 -0.8609 -1.0983
   26CHL1  H23B 1911   5.978   4.511   8.975  0.7778  1.0306  1.0700
   26CHL1   C24 1912   6.138   4.424   8.851  0.2536 -0.4271  0.0085
   26CHL1  H24A 1913   6.198   4.516   8.835 -1.6749  0.9629  0.5682
   26CHL1  H24B 1914   6.208   4.338   8.848 -2.6850 -2.8755 -2.0737
   26CHL1   C25 1915   6.066   4.412   8.715 -0.1646  0.0228 -0.4520
   26CHL1   H25 1916   6.002   4.503   8.707 -2.2537 -1.5055 -1.6523
   26CHL1   C26 1917   6.161   4.427   8.596 -0.8231 -0.4838  0.0387
   26CHL1  H26A 1918   6.125   4.381   8.502  0.9090 -0.1352 -0.8145
   26CHL1  H26B 1919   6.184   4.535   8.580 -0.7627 -0.6571 -1.0630
   26CHL1  H26C 1920   6.258   4.385   8.631 -1.5794  0.3286  3.3460
   26CHL1   C27 1921   5.974   4.286   8.700  0.1949  0.1394  0.0854
   26CHL1  H27A 1922   5.901   4.280   8.783  0.4475 -2.1958  0.1547
   26CHL1  H27B 1923   5.918   4.306   8.606 -0.2519  2.4735  0.8107
   26CHL1  H27C 1924   6.032   4.192   8.699 -0.1522 -0.0886  0.9929
   27CHL1    C3 1925   5.106   1.225  10.388  0.0899 -0.7771  0.1196
   27CHL1    H3 1926   5.003   1.263  10.373  1.4587  4.1367  2.0989
   27CHL1    O3 1927   5.136   1.208  10.525  0.4615 -0.3476 -0.3724
   27CHL1   H3' 1928   5.229   1.184  10.532  0.1769 -1.9574 -1.7183
   27CHL1    C4 1929   5.127   1.087  10.325 -0.0001  0.2651  0.6722
   27CHL1   H4A 1930   5.226   1.047  10.357  0.3728 -1.1085 -1.9905
   27CHL1   H4B 1931   5.049   1.014  10.356 -0.3478 -0.0011 -0.7913
   27CHL1    C5 1932   5.127   1.104  10.171  0.2514 -0.1341 -0.2186
   27CHL1    C6 1933   5.035   1.039  10.099  0.4990  0.3065  0.1517
   27CHL1    H6 1934   4.959   0.979  10.152  1.5598 -0.4185  0.8628
   27CHL1    C7 1935   5.035   1.053   9.946  0.1880 -0.5033  0.1091
   27CHL1   H7A 1936   5.018   0.952   9.901 -1.5593  0.4431 -1.4641
   27CHL1   H7B 1937   4.952   1.122   9.920  0.8951  0.5436  0.6333
   27CHL1    C8 1938   5.171   1.114   9.887 -0.3704 -0.3509 -0.6001
   27CHL1    H8 1939   5.253   1.039   9.885 -1.4529 -1.5543 -1.3123
   27CHL1   C14 1940   5.135   1.145   9.737 -1.0236 -0.0858 -0.1935
   27CHL1   H14 1941   5.052   1.218   9.738 -0.9942 -0.0531  0.0604
   27CHL1   C15 1942   5.087   1.035   9.645  0.3393  0.1195 -0.5557
   27CHL1  H15A 1943   5.145   0.941   9.659 -0.1460 -0.4242 -2.1164
   27CHL1  H15B 1944   4.980   1.013   9.664  0.4328 -0.5835 -0.8259
   27CHL1   C16 1945   5.119   1.085   9.498  0.2246 -0.2550  0.4523
   27CHL1  H16A 1946   5.204   1.020   9.467 -0.2040 -1.7131  2.2468
   27CHL1  H16B 1947   5.026   1.086   9.438 -0.6830  0.2674  1.8198
   27CHL1   C17 1948   5.180   1.222   9.518 -0.2902 -0.2845  1.1169
   27CHL1   H17 1949   5.092   1.291   9.520 -1.3588 -1.5345 -0.7645
   27CHL1   C13 1950   5.244   1.214   9.663  0.9053  1.0095 -0.2267
   27CHL1   C18 1951   5.380   1.133   9.644 -0.0322  0.2614  0.0799
   27CHL1  H18A 1952   5.466   1.195   9.613  0.3148 -1.3052 -2.1628
   27CHL1  H18B 1953   5.408   1.078   9.736  0.9917  0.3463 -0.1847
   27CHL1  H18C 1954   5.376   1.051   9.569  1.0961  0.0468  0.2463
   27CHL1   C12 1955   5.263   1.344   9.738 -0.1626 -0.0756 -0.2803
   27CHL1  H12A 1956   5.349   1.397   9.691 -0.9828 -0.4538 -2.2796
   27CHL1  H12B 1957   5.183   1.421   9.738  0.1400  0.2616  1.9836
   27CHL1   C11 1958   5.306   1.337   9.889 -0.4546  0.5273  0.2354
   27CHL1  H11A 1959   5.409   1.295   9.897 -0.8619 -0.0920  2.8490
   27CHL1  H11B 1960   5.303   1.442   9.925  2.6206  0.8617 -0.3588
   27CHL1    C9 1961   5.204   1.239   9.961 -0.0832  0.0086  0.4959
   27CHL1    H9 1962   5.110   1.298   9.962 -0.8312 -1.1102 -0.8282
   27CHL1   C10 1963   5.228   1.215  10.112  0.2610 -0.1962 -0.0829
   27CHL1   C19 1964   5.378   1.174  10.129 -0.3944  0.2370  0.1339
   27CHL1  H19A 1965   5.417   1.147  10.230  1.9650 -4.1441 -1.7865
   27CHL1  H19B 1966   5.397   1.082  10.070 -1.1137 -0.1006  0.4154
   27CHL1  H19C 1967   5.446   1.255  10.096 -0.6456 -0.1880 -1.4997
   27CHL1    C1 1968   5.205   1.349  10.193 -0.1401  0.6227  0.1402
   27CHL1   H1A 1969   5.275   1.426  10.153 -2.0409  1.3104 -1.9576
   27CHL1   H1B 1970   5.110   1.396  10.161 -1.5170 -2.6322 -0.8173
   27CHL1    C2 1971   5.213   1.329  10.341  0.1840  0.1174  0.3661
   27CHL1   H2A 1972   5.211   1.424  10.398 -0.7094 -0.7256  1.7962
   27CHL1   H2B 1973   5.316   1.297  10.368 -0.1597 -0.3443  1.1823
   27CHL1   C20 1974   5.272   1.261   9.395  0.1185  0.6060  1.0833
   27CHL1   H20 1975   5.352   1.184   9.398 -2.9298 -2.6876  1.1620
   27CHL1   C21 1976   5.332   1.399   9.402  0.3169 -0.0100  0.2144
   27CHL1  H21A 1977   5.253   1.476   9.396 -0.3453 -0.7271 -0.3672
   27CHL1  H21B 1978   5.403   1.421   9.319  1.1709 -0.5222  0.7917
   27CHL1  H21C 1979   5.393   1.418   9.493  1.5203  0.5926 -0.6959
   27CHL1   C22 1980   5.202   1.245   9.254 -0.2701 -0.0544  0.4854
   27CHL1  H22A 1981   5.168   1.141   9.237 -0.1198  0.0339 -0.3514
   27CHL1  H22B 1982   5.111   1.310   9.252 -0.2254 -0.0092 -0.0584
   27CHL1   C23 1983   5.284   1.291   9.125  0.2563  0.0455 -0.6442
   27CHL1  H23A 1984   5.305   1.400   9.127  1.9637 -0.2987  0.2232
   27CHL1  H23B 1985   5.378   1.233   9.130 -0.1898 -0.6316  0.0827
   27CHL1   C24 1986   5.215   1.279   8.985 -0.3908  0.0343  0.3097
   27CHL1  H24A 1987   5.183   1.174   8.970 -0.3238  0.1015 -0.3398
   27CHL1  H24B 1988   5.124   1.343   8.982 -1.3418 -1.2141  2.0267
   27CHL1   C25 1989   5.301   1.309   8.868  0.2608 -0.7634 -0.0588
   27CHL1   H25 1990   5.394   1.248   8.873  0.5066 -0.2022  3.6580
   27CHL1   C26 1991   5.217   1.276   8.739 -0.8253  0.1058  0.0507
   27CHL1  H26A 1992   5.214   1.169   8.711  1.8229  0.5977 -2.3469
   27CHL1  H26B 1993   5.113   1.301   8.770 -1.3971 -2.5079  0.3173
   27CHL1  H26C 1994   5.256   1.330   8.650  1.7761 -2.3894 -0.3758
   27CHL1   C27 1995   5.342   1.457   8.873  0.6166 -0.0432  0.5666
   27CHL1  H27A 1996   5.249   1.518   8.874  0.9827  0.5703 -1.0065
   27CHL1  H27B 1997   5.405   1.472   8.963  2.1521 -0.4452 -0.4204
   27CHL1  H27C 1998   5.403   1.480   8.783  0.7375  0.2353  0.7227
   28CHL1    C3 1999   4.448   6.644  10.031 -0.4509 -0.4227 -0.1001
   28CHL1    H3 2000   4.363   6.573  10.034 -1.9294  1.2916 -0.6791
   28CHL1    O3 2001   4.509   6.672  10.158 -0.1493 -0.2193  0.0539
   28CHL1   H3' 2002   4.539   6.763  10.153  1.3157 -0.6743  0.5452
   28CHL1    C4 2003   4.557   6.590   9.931 -0.5111 -0.1622 -0.3461
   28CHL1   H4A 2004   4.630   6.674   9.934 -1.2826  0.4927  0.4069
   28CHL1   H4B 2005   4.611   6.498   9.962 -0.4522 -0.3352 -0.9646
   28CHL1    C5 2006   4.502   6.579   9.787 -0.5170  0.9786  0.1902
   28CHL1    C6 2007   4.489   6.461   9.729  0.3936 -0.5473  0.4425
   28CHL1    H6 2008   4.529   6.373   9.781 -1.1558 -0.2114  2.2551
   28CHL1    C7 2009   4.435   6.438   9.588 -0.5763 -0.1515 -0.1893
   28CHL1   H7A 2010   4.495   6.361   9.534 -1.6402  0.1492 -1.8372
   28CHL1   H7B 2011   4.330   6.402   9.593  0.0133 -2.4721 -2.9818
   28CHL1    C8 2012   4.442   6.567   9.511  0.4803 -0.4682  0.1806
   28CHL1    H8 2013   4.547   6.591   9.485  0.3600 -0.9259 -0.7423
   28CHL1   C14 2014   4.374   6.557   9.376  0.0020 -0.8455 -0.1075
   28CHL1   H14 2015   4.268   6.529   9.396 -0.5181  0.5112 -0.8624
   28CHL1   C15 2016   4.418   6.457   9.266  0.1288 -0.3182  0.5454
   28CHL1  H15A 2017   4.528   6.465   9.254  0.2268  3.0499  3.0430
   28CHL1  H15B 2018   4.410   6.355   9.311  3.5718  0.2031  2.5493
   28CHL1   C16 2019   4.348   6.500   9.136  0.1590  0.5268 -0.2696
   28CHL1  H16A 2020   4.426   6.500   9.057  1.7761 -0.0429  1.3211
   28CHL1  H16B 2021   4.276   6.422   9.102 -1.5800  2.0835 -0.2500
   28CHL1   C17 2022   4.289   6.633   9.164 -0.9761  0.7342 -0.1602
   28CHL1   H17 2023   4.184   6.617   9.196 -0.7638 -0.9152 -0.2087
   28CHL1   C13 2024   4.358   6.687   9.301  0.5393  0.0328 -0.2796
   28CHL1   C18 2025   4.501   6.743   9.263  0.0923 -0.1031  0.1547
   28CHL1  H18A 2026   4.496   6.854   9.254 -0.6665 -0.0616  1.0157
   28CHL1  H18B 2027   4.578   6.724   9.340 -1.2701 -0.8145  1.3567
   28CHL1  H18C 2028   4.541   6.701   9.168  0.4439  0.9889 -0.1945
   28CHL1   C12 2029   4.276   6.778   9.387 -0.0822  0.0848  0.5285
   28CHL1  H12A 2030   4.242   6.869   9.333  0.8009 -0.0325 -0.2415
   28CHL1  H12B 2031   4.180   6.732   9.418  1.0133 -0.8752  2.5959
   28CHL1   C11 2032   4.352   6.815   9.512 -0.3157  0.2026 -0.2138
   28CHL1  H11A 2033   4.453   6.855   9.490 -0.2329  0.4267  0.5396
   28CHL1  H11B 2034   4.292   6.886   9.574  1.2980  0.0364  1.5689
   28CHL1    C9 2035   4.374   6.686   9.594  0.3066 -1.0937 -0.1068
   28CHL1    H9 2036   4.274   6.642   9.616 -0.4360  0.0862 -1.0217
   28CHL1   C10 2037   4.453   6.703   9.727  0.4490 -0.3810  0.1578
   28CHL1   C19 2038   4.575   6.800   9.698 -0.0580  0.3836  0.5930
   28CHL1  H19A 2039   4.553   6.906   9.672 -0.8791 -0.0082 -0.3316
   28CHL1  H19B 2040   4.663   6.801   9.766 -0.5328 -3.6928  1.3756
   28CHL1  H19C 2041   4.623   6.751   9.610  1.8200  2.6348  0.3056
   28CHL1    C1 2042   4.355   6.764   9.825 -0.3761  0.3846 -0.7086
   28CHL1   H1A 2043   4.335   6.866   9.786 -0.2361  1.0536  0.8932
   28CHL1   H1B 2044   4.259   6.711   9.840  0.0375  0.0389  0.8649
   28CHL1    C2 2045   4.406   6.779   9.975 -0.5983  0.4511  0.4444
   28CHL1   H2A 2046   4.333   6.815  10.050  1.1788  1.4637  1.7189
   28CHL1   H2B 2047   4.486   6.855   9.985 -2.1385  2.4440 -1.6890
   28CHL1   C20 2048   4.288   6.722   9.032 -0.1628 -0.3428  0.3728
   28CHL1   H20 2049   4.388   6.740   8.988 -0.9515 -0.3872 -1.4716
   28CHL1   C21 2050   4.221   6.852   9.077  0.4226  0.2392  0.1040
   28CHL1  H21A 2051   4.291   6.918   9.132  1.9888 -2.2569  1.2090
   28CHL1  H21B 2052   4.128   6.846   9.136  1.2770  0.3293  1.4765
   28CHL1  H21C 2053   4.197   6.918   8.991  2.2563  0.5851 -0.1573
   28CHL1   C22 2054   4.209   6.655   8.917 -0.4149  0.0580 -0.4673
   28CHL1  H22A 2055   4.270   6.574   8.872  0.9691  1.7671 -1.7032
   28CHL1  H22B 2056   4.116   6.616   8.963  0.4421 -1.5879 -0.0628
   28CHL1   C23 2057   4.183   6.740   8.793  0.2395  0.7363 -0.4305
   28CHL1  H23A 2058   4.126   6.833   8.813 -0.4704  0.3746 -0.7826
   28CHL1  H23B 2059   4.290   6.760   8.769  0.9134  2.7361  3.7992
   28CHL1   C24 2060   4.102   6.682   8.679 -0.3349 -0.6464 -0.1503
   28CHL1  H24A 2061   4.145   6.582   8.657 -0.2783 -0.9477  1.3156
   28CHL1  H24B 2062   3.996   6.658   8.703 -1.4896  1.5486 -2.7522
   28CHL1   C25 2063   4.090   6.773   8.551  0.1995 -0.2962 -0.4810
   28CHL1   H25 2064   4.049   6.867   8.593 -1.0264 -0.8889 -0.3153
   28CHL1   C26 2065   4.225   6.808   8.479 -0.5261 -0.2734 -0.0168
   28CHL1  H26A 2066   4.279   6.719   8.440  0.4067  0.6312 -0.8126
   28CHL1  H26B 2067   4.203   6.889   8.405 -0.0813 -0.5258 -0.4339
   28CHL1  H26C 2068   4.291   6.850   8.558 -0.9309 -1.1669  0.7986
   28CHL1   C27 2069   3.993   6.709   8.454  0.6369 -0.5091 -0.0870
   28CHL1  H27A 2070   4.006   6.761   8.356 -0.2430 -2.4982 -1.2978
   28CHL1  H27B 2071   4.032   6.606   8.440 -1.0966 -0.9288 -2.1930
   28CHL1  H27C 2072   3.887   6.707   8.487  0.2380  0.5783 -1.2252
   29CHL1    C3 2073   6.032   4.235   6.828  0.3208  0.3677 -1.4424
   29CHL1    H3 2074   6.115   4.167   6.857 -1.6722 -2.0591 -1.2991
   29CHL1    O3 2075   5.999   4.214   6.696 -0.0130  0.2991 -0.0385
   29CHL1   H3' 2076   6.052   4.284   6.657  1.2544  0.1724  1.4005
   29CHL1    C4 2077   5.905   4.205   6.913 -0.9814  0.2798  0.3057
   29CHL1   H4A 2078   5.817   4.256   6.868 -1.0391 -1.5482 -1.6986
   29CHL1   H4B 2079   5.877   4.098   6.901 -0.7892  0.4180 -1.4704
   29CHL1    C5 2080   5.930   4.259   7.056 -0.3486 -0.6699 -0.7054
   29CHL1    C6 2081   5.901   4.181   7.160  0.9922 -0.1949  0.6556
   29CHL1    H6 2082   5.861   4.084   7.129  0.7364  0.5830 -1.4888
   29CHL1    C7 2083   5.914   4.209   7.311 -0.2564  0.0144  0.3004
   29CHL1   H7A 2084   5.819   4.185   7.363 -0.4615  1.6702  0.6930
   29CHL1   H7B 2085   5.988   4.140   7.356  0.1792 -0.8344 -1.6375
   29CHL1    C8 2086   5.932   4.363   7.336 -0.0340 -0.0428 -0.1316
   29CHL1    H8 2087   5.833   4.413   7.324  0.1667  0.5373  0.5961
   29CHL1   C14 2088   5.983   4.384   7.481 -0.2728 -0.1865  0.6585
   29CHL1   H14 2089   6.083   4.335   7.484  1.5660  3.1492 -2.1765
   29CHL1   C15 2090   5.919   4.312   7.607  0.5660  0.0656 -0.4618
   29CHL1  H15A 2091   5.809   4.329   7.604  0.7114  1.2040  0.5096
   29CHL1  H15B 2092   5.932   4.202   7.610 -1.6160 -0.1954  0.8209
   29CHL1   C16 2093   5.972   4.386   7.724  0.3011 -0.3793  0.0120
   29CHL1  H16A 2094   5.881   4.434   7.766  1.5758  0.7562  1.5419
   29CHL1  H16B 2095   6.023   4.317   7.794 -0.4343 -0.2916  0.6294
   29CHL1   C17 2096   6.042   4.513   7.666  0.0937  0.3401 -0.2469
   29CHL1   H17 2097   6.148   4.483   7.683  0.0052  0.7473  1.1130
   29CHL1   C13 2098   6.002   4.525   7.516  0.2492  0.3097  0.8301
   29CHL1   C18 2099   5.870   4.593   7.503  0.0371 -0.2435  0.4796
   29CHL1  H18A 2100   5.847   4.609   7.395  0.0523  1.5718  0.7279
   29CHL1  H18B 2101   5.785   4.534   7.544  1.1555 -1.3034  1.3226
   29CHL1  H18C 2102   5.875   4.692   7.553  1.6774 -0.1955  0.2622
   29CHL1   C12 2103   6.107   4.593   7.419 -0.2281  0.1180 -0.6473
   29CHL1  H12A 2104   6.109   4.699   7.451 -0.9901 -0.5983  1.8623
   29CHL1  H12B 2105   6.206   4.545   7.437 -0.3811 -1.0683 -2.8065
   29CHL1   C11 2106   6.077   4.575   7.268  0.3929  0.4869  0.0919
   29CHL1  H11A 2107   5.991   4.640   7.243  2.0131  2.2554 -0.9894
   29CHL1  H11B 2108   6.160   4.621   7.210 -0.2199  0.1978 -1.0344
   29CHL1    C9 2109   6.032   4.428   7.237  0.1942 -0.6964 -0.3740
   29CHL1    H9 2110   6.123   4.363   7.241  0.7107  0.1458  2.0075
   29CHL1   C10 2111   5.987   4.401   7.082 -0.5497  0.1558  0.5222
   29CHL1   C19 2112   5.874   4.500   7.045  0.3487  0.4504 -0.2186
   29CHL1  H19A 2113   5.839   4.482   6.941 -2.0873 -2.8180  1.0501
   29CHL1  H19B 2114   5.789   4.486   7.116 -0.6754  0.4097 -1.4238
   29CHL1  H19C 2115   5.914   4.603   7.040 -1.3108  1.2051  1.1985
   29CHL1    C1 2116   6.110   4.416   6.989 -0.2809  0.2622  0.1261
   29CHL1   H1A 2117   6.157   4.516   7.000 -0.4525  0.3002  0.5309
   29CHL1   H1B 2118   6.179   4.335   7.024 -0.2256  0.2397 -0.0336
   29CHL1    C2 2119   6.095   4.378   6.841 -1.0252  0.5980 -0.0927
   29CHL1   H2A 2120   6.192   4.382   6.788  0.0547  0.3834  1.8030
   29CHL1   H2B 2121   6.027   4.456   6.800 -0.1878  1.7481  0.6472
   29CHL1   C20 2122   6.027   4.640   7.757  0.5476 -0.4238  0.4835
   29CHL1   H20 2123   5.929   4.690   7.744  0.9589  0.3013  0.1996
   29CHL1   C21 2124   6.131   4.751   7.717  0.2227 -0.3988 -0.2993
   29CHL1  H21A 2125   6.147   4.833   7.791  0.5292  0.5476 -1.3962
   29CHL1  H21B 2126   6.086   4.790   7.624  1.0186  3.4849  0.8469
   29CHL1  H21C 2127   6.231   4.708   7.695 -0.5090 -1.8071 -0.9155
   29CHL1   C22 2128   6.037   4.616   7.913  0.0317  0.0118  0.0676
   29CHL1  H22A 2129   5.969   4.533   7.941 -0.3069 -0.0672 -0.9546
   29CHL1  H22B 2130   6.137   4.574   7.937  0.3580  1.1187  0.7102
   29CHL1   C23 2131   6.007   4.728   8.008 -0.2578 -0.2822  0.1112
   29CHL1  H23A 2132   6.046   4.823   7.966 -0.8211  0.9565  2.2935
   29CHL1  H23B 2133   5.896   4.732   8.011 -0.2512 -0.7991  1.2397
   29CHL1   C24 2134   6.073   4.700   8.143  0.7970 -0.4019 -0.7872
   29CHL1  H24A 2135   6.018   4.617   8.193  0.7247 -0.6558 -1.2762
   29CHL1  H24B 2136   6.175   4.659   8.130  1.7015  0.9548  1.8099
   29CHL1   C25 2137   6.076   4.817   8.244  0.1439  0.1495 -0.5657
   29CHL1   H25 2138   6.096   4.913   8.190 -0.9713 -0.7671 -2.6612
   29CHL1   C26 2139   5.942   4.833   8.317 -0.0278 -0.1723 -0.6735
   29CHL1  H26A 2140   5.940   4.907   8.400 -0.6775 -2.7402  1.6690
   29CHL1  H26B 2141   5.852   4.851   8.254 -0.7323  0.5449  0.5173
   29CHL1  H26C 2142   5.926   4.737   8.370  0.7120 -0.3065 -0.6882
   29CHL1   C27 2143   6.187   4.807   8.344 -0.1635  0.5564  1.1658
   29CHL1  H27A 2144   6.288   4.806   8.298 -1.8200  1.2441 -2.7284
   29CHL1  H27B 2145   6.172   4.896   8.409  2.3019  0.9875  1.1697
   29CHL1  H27C 2146   6.168   4.714   8.402 -0.0942 -1.8655 -2.5704
   30CHL1    C3 2147   4.190   3.763   7.320 -0.3005  0.1066 -0.8511
   30CHL1    H3 2148   4.292   3.764   7.362 -0.4214 -1.1099 -0.5121
   30CHL1    O3 2149   4.193   3.714   7.186  0.2856 -0.0822 -0.6448
   30CHL1   H3' 2150   4.168   3.790   7.133 -1.5472 -0.0320  0.2272
   30CHL1    C4 2151   4.103   3.671   7.413 -0.4942  0.5144  0.3550
   30CHL1   H4A 2152   3.997   3.672   7.381 -1.1303 -0.4731  2.3379
   30CHL1   H4B 2153   4.137   3.565   7.401  0.8862  1.0671 -0.8039
   30CHL1    C5 2154   4.106   3.728   7.548  0.6386 -0.5160  0.0125
   30CHL1    C6 2155   4.159   3.657   7.653  0.2428 -0.0639 -0.1387
   30CHL1    H6 2156   4.215   3.565   7.630  0.5306 -0.1467  0.8628
   30CHL1    C7 2157   4.168   3.698   7.795  0.1729 -0.0395  0.6321
   30CHL1   H7A 2158   4.126   3.628   7.870  1.8870 -2.5753 -0.6598
   30CHL1   H7B 2159   4.275   3.712   7.824 -0.3494  3.6351  1.0124
   30CHL1    C8 2160   4.099   3.838   7.819 -0.1930  0.0353  0.1029
   30CHL1    H8 2161   3.990   3.820   7.827 -0.5925  2.3418  0.2471
   30CHL1   C14 2162   4.149   3.898   7.953 -0.0778 -0.1447  0.4019
   30CHL1   H14 2163   4.253   3.931   7.936  0.0923 -0.5137  0.7086
   30CHL1   C15 2164   4.161   3.818   8.086  0.2293  0.2165 -0.1957
   30CHL1  H15A 2165   4.069   3.757   8.104 -0.1099  0.4964 -0.9778
   30CHL1  H15B 2166   4.238   3.739   8.076  1.1175  0.9933  0.4846
   30CHL1   C16 2167   4.177   3.928   8.190  0.4633 -0.2671  0.0723
   30CHL1  H16A 2168   4.092   3.922   8.262 -0.3653  0.2598 -0.8583
   30CHL1  H16B 2169   4.272   3.921   8.248 -0.2576  1.6514  1.5286
   30CHL1   C17 2170   4.165   4.064   8.118  0.7317 -0.2695  0.3102
   30CHL1   H17 2171   4.271   4.084   8.090  0.7257 -2.3761 -1.3530
   30CHL1   C13 2172   4.090   4.036   7.988  0.2609 -0.3539  0.4543
   30CHL1   C18 2173   3.935   4.020   8.012 -0.5799 -0.3877 -0.7912
   30CHL1  H18A 2174   3.883   3.976   7.924 -1.4677 -1.2388  0.1587
   30CHL1  H18B 2175   3.916   3.958   8.102  2.4440  0.0910  0.2499
   30CHL1  H18C 2176   3.883   4.117   8.023  0.9386  0.0976  2.6283
   30CHL1   C12 2177   4.112   4.132   7.873 -0.1518 -0.4383  0.3395
   30CHL1  H12A 2178   4.055   4.227   7.876 -1.1647 -1.0011 -0.6375
   30CHL1  H12B 2179   4.220   4.159   7.867 -0.1783 -0.0406  1.6252
   30CHL1   C11 2180   4.075   4.075   7.739  0.3187 -0.0942  0.3023
   30CHL1  H11A 2181   3.967   4.055   7.754  0.7480 -2.3857  0.5429
   30CHL1  H11B 2182   4.085   4.140   7.650 -1.7999 -1.5408 -1.0366
   30CHL1    C9 2183   4.130   3.935   7.706 -0.0246  0.0295  0.4121
   30CHL1    H9 2184   4.241   3.944   7.708 -0.0083 -0.3282  1.3046
   30CHL1   C10 2185   4.074   3.881   7.566 -0.2452  0.0779 -0.1698
   30CHL1   C19 2186   3.916   3.888   7.563 -0.4211  0.5703  0.4591
   30CHL1  H19A 2187   3.874   3.827   7.647  0.4872  0.6098  0.9482
   30CHL1  H19B 2188   3.870   3.988   7.568 -0.8351  0.3169  1.9805
   30CHL1  H19C 2189   3.873   3.840   7.472 -2.0572  2.4165  0.2343
   30CHL1    C1 2190   4.140   3.964   7.454 -0.3124  0.0473 -1.0949
   30CHL1   H1A 2191   4.077   4.055   7.447 -0.1647  0.3778  1.5083
   30CHL1   H1B 2192   4.243   3.985   7.490  0.6000 -0.1456 -3.4856
   30CHL1    C2 2193   4.137   3.901   7.318  0.7150  0.1910 -0.5608
   30CHL1   H2A 2194   4.199   3.977   7.266  1.3330 -0.7540 -1.2201
   30CHL1   H2B 2195   4.032   3.901   7.282  0.7495 -2.7302 -0.7993
   30CHL1   C20 2196   4.111   4.188   8.208 -0.6461 -0.3527  0.3216
   30CHL1   H20 2197   4.004   4.164   8.225 -0.1921 -0.7415  2.7205
   30CHL1   C21 2198   4.121   4.320   8.128 -0.6678  0.2724  0.2465
   30CHL1  H21A 2199   4.148   4.409   8.188  0.4469  0.7056 -0.8622
   30CHL1  H21B 2200   4.032   4.344   8.065 -0.5344  1.6239  0.5474
   30CHL1  H21C 2201   4.207   4.314   8.057 -1.4130  2.0781 -0.8757
   30CHL1   C22 2202   4.192   4.190   8.344  0.9765 -0.2096 -0.7179
   30CHL1  H22A 2203   4.217   4.084   8.369  1.6664  0.5726  2.1411
   30CHL1  H22B 2204   4.286   4.247   8.329  1.5792 -1.4458 -1.7182
   30CHL1   C23 2205   4.106   4.249   8.461  0.1707  0.2820  0.3490
   30CHL1  H23A 2206   4.076   4.354   8.444  0.8152  0.2784 -0.8274
   30CHL1  H23B 2207   4.013   4.188   8.472  0.8188 -0.2787  3.0469
   30CHL1   C24 2208   4.181   4.265   8.596 -0.6684 -0.2696  0.0041
   30CHL1  H24A 2209   4.186   4.161   8.635 -1.1910  0.7701  2.9387
   30CHL1  H24B 2210   4.282   4.303   8.572 -0.4047 -0.3532  0.9943
   30CHL1   C25 2211   4.115   4.370   8.692  0.7123  0.6230 -0.1422
   30CHL1   H25 2212   4.097   4.467   8.641  3.2838  1.0056 -0.3750
   30CHL1   C26 2213   3.990   4.301   8.752  0.3141  0.4102 -0.5112
   30CHL1  H26A 2214   3.993   4.191   8.741  1.5175  0.3809  0.1337
   30CHL1  H26B 2215   3.985   4.335   8.857  2.0305  1.1258 -0.6588
   30CHL1  H26C 2216   3.905   4.332   8.687  0.8304  1.2642 -0.7885
   30CHL1   C27 2217   4.217   4.405   8.808  0.2135 -0.3685  0.6280
   30CHL1  H27A 2218   4.170   4.478   8.877 -1.4383 -1.0316  0.2300
   30CHL1  H27B 2219   4.236   4.309   8.860 -0.0192 -0.3110  0.8167
   30CHL1  H27C 2220   4.308   4.455   8.767  0.9037 -1.3834  0.9027
   31CHL1    C3 2221   3.638   5.353   6.813 -0.1256 -0.1033  0.4109
   31CHL1    H3 2222   3.659   5.462   6.810 -0.7590 -0.0391 -2.8600
   31CHL1    O3 2223   3.631   5.290   6.685  0.4600 -0.1006 -0.4748
   31CHL1   H3' 2224   3.538   5.275   6.671  0.3787 -0.0889  0.0226
   31CHL1    C4 2225   3.748   5.284   6.893  0.5449 -0.6804  0.6235
   31CHL1   H4A 2226   3.731   5.177   6.871  0.7216 -0.9579  1.8064
   31CHL1   H4B 2227   3.844   5.309   6.843  0.4957 -0.2103  0.7610
   31CHL1    C5 2228   3.757   5.316   7.043  0.3028 -0.0670  0.6315
   31CHL1    C6 2229   3.874   5.356   7.099 -0.2990 -0.2940  0.2865
   31CHL1    H6 2230   3.964   5.350   7.036  0.9418  1.3313  1.8425
   31CHL1    C7 2231   3.890   5.381   7.250  0.1815  0.5159 -0.0131
   31CHL1   H7A 2232   3.977   5.327   7.293 -0.4207  0.3914  1.0731
   31CHL1   H7B 2233   3.905   5.487   7.278  2.0351  0.0260  0.9281
   31CHL1    C8 2234   3.765   5.331   7.330  0.3662  0.2516  0.0761
   31CHL1    H8 2235   3.771   5.220   7.331  0.7652  0.2635 -0.5914
   31CHL1   C14 2236   3.772   5.391   7.469 -0.2618 -0.4912 -0.3289
   31CHL1   H14 2237   3.787   5.500   7.454 -0.0620 -0.5965 -0.8889
   31CHL1   C15 2238   3.885   5.349   7.570 -0.0987  0.2678 -0.1208
   31CHL1  H15A 2239   3.887   5.239   7.579 -1.5088  0.3401  1.2941
   31CHL1  H15B 2240   3.989   5.375   7.538  1.0767 -2.4131  1.3788
   31CHL1   C16 2241   3.842   5.415   7.703 -0.2662  0.0634 -0.2424
   31CHL1  H16A 2242   3.885   5.355   7.786 -2.2550 -1.6523 -0.4409
   31CHL1  H16B 2243   3.894   5.514   7.700  1.8843 -1.0315 -0.0470
   31CHL1   C17 2244   3.687   5.437   7.691  0.7327  0.1816 -0.4822
   31CHL1   H17 2245   3.668   5.546   7.683  1.1098  0.3825  1.1776
   31CHL1   C13 2246   3.648   5.367   7.558 -0.1385 -0.2718  0.4476
   31CHL1   C18 2247   3.623   5.215   7.586  0.8642 -0.1202  0.6049
   31CHL1  H18A 2248   3.695   5.170   7.657  2.2276  0.7481 -0.2061
   31CHL1  H18B 2249   3.521   5.199   7.627  0.6495 -2.7532 -0.7861
   31CHL1  H18C 2250   3.625   5.157   7.491  1.1848  1.2019 -0.2090
   31CHL1   C12 2251   3.537   5.447   7.482  0.6696  0.6280  0.2186
   31CHL1  H12A 2252   3.445   5.454   7.544  1.3704 -0.9864  1.4683
   31CHL1  H12B 2253   3.571   5.552   7.482 -3.7844  2.2108  1.6339
   31CHL1   C11 2254   3.508   5.379   7.347 -0.8133  0.6046  0.4662
   31CHL1  H11A 2255   3.492   5.270   7.362  2.3830 -0.0350 -0.3926
   31CHL1  H11B 2256   3.425   5.430   7.294 -0.2646  1.7803  0.7274
   31CHL1    C9 2257   3.639   5.374   7.253  0.8313 -0.3737  0.4396
   31CHL1    H9 2258   3.653   5.480   7.222  1.3778 -0.1288  1.4985
   31CHL1   C10 2259   3.628   5.309   7.111  0.4193 -0.1210  0.1241
   31CHL1   C19 2260   3.593   5.156   7.143 -0.1048 -0.2713 -0.1188
   31CHL1  H19A 2261   3.498   5.153   7.201  0.5453  2.9796  1.2196
   31CHL1  H19B 2262   3.580   5.101   7.048  2.8213 -1.6938  0.2454
   31CHL1  H19C 2263   3.679   5.103   7.191 -0.9156 -1.7094 -0.2237
   31CHL1    C1 2264   3.513   5.372   7.028 -0.2741 -0.1419 -0.4870
   31CHL1   H1A 2265   3.413   5.348   7.071 -1.4861  0.7272 -2.7822
   31CHL1   H1B 2266   3.515   5.483   7.029 -1.1029 -0.0705 -2.9922
   31CHL1    C2 2267   3.502   5.326   6.881 -0.0055 -0.4139  0.2374
   31CHL1   H2A 2268   3.410   5.370   6.838  0.6986  2.4262  1.4978
   31CHL1   H2B 2269   3.480   5.217   6.878  0.1258 -0.3980 -1.2692
   31CHL1   C20 2270   3.610   5.398   7.818  0.0053  0.0042  0.4521
   31CHL1   H20 2271   3.618   5.287   7.814 -1.3369 -0.0802 -0.2440
   31CHL1   C21 2272   3.463   5.436   7.818  0.0559  0.5286  0.4003
   31CHL1  H21A 2273   3.403   5.392   7.735  0.4531 -1.6308  1.2420
   31CHL1  H21B 2274   3.428   5.542   7.821 -0.7332  0.2429  2.5345
   31CHL1  H21C 2275   3.411   5.389   7.904 -2.7762  1.7717 -0.5536
   31CHL1   C22 2276   3.677   5.442   7.948 -0.1997  0.0183  0.7729
   31CHL1  H22A 2277   3.610   5.425   8.035 -1.2580  1.4560  0.2642
   31CHL1  H22B 2278   3.766   5.380   7.970 -1.0677 -0.7957  2.0278
   31CHL1   C23 2279   3.713   5.589   7.949 -0.2473  0.1635  0.0967
   31CHL1  H23A 2280   3.785   5.618   7.870 -1.3128  0.6649 -0.6988
   31CHL1  H23B 2281   3.622   5.652   7.939 -0.0168  0.6328  0.9250
   31CHL1   C24 2282   3.761   5.639   8.081 -0.3177 -0.0854  0.6430
   31CHL1  H24A 2283   3.685   5.606   8.155 -2.6984 -0.1797 -1.7788
   31CHL1  H24B 2284   3.857   5.599   8.121 -1.9753 -3.8777  1.0464
   31CHL1   C25 2285   3.772   5.792   8.097  0.2912  0.5314 -0.0285
   31CHL1   H25 2286   3.673   5.829   8.063 -0.0086  1.6603  1.9734
   31CHL1   C26 2287   3.786   5.824   8.246 -0.5877  0.3040 -0.4844
   31CHL1  H26A 2288   3.768   5.932   8.262  0.0311  0.2884  0.3062
   31CHL1  H26B 2289   3.720   5.763   8.312  0.8303 -2.5238 -1.5694
   31CHL1  H26C 2290   3.889   5.794   8.274 -0.7276  0.1044 -0.1788
   31CHL1   C27 2291   3.874   5.859   8.004  0.3668  0.6827 -0.0997
   31CHL1  H27A 2292   3.881   5.812   7.903 -1.5675  1.1805 -0.4964
   31CHL1  H27B 2293   3.977   5.853   8.044 -0.0229 -2.2387  0.5402
   31CHL1  H27C 2294   3.849   5.967   7.991 -0.4396  0.4960 -0.1459
   32CHL1    C3 2295   4.567   4.118   7.082  0.2218 -0.0534 -0.0804
   32CHL1    H3 2296   4.654   4.060   7.045 -0.1322  1.8643 -4.1926
   32CHL1    O3 2297   4.499   4.142   6.959 -0.5161  0.2076 -0.3709
   32CHL1   H3' 2298   4.564   4.154   6.890  0.4250 -1.2008  0.2461
   32CHL1    C4 2299   4.483   4.035   7.177 -0.7444 -0.2346  0.9248
   32CHL1   H4A 2300   4.384   4.083   7.194 -1.8066 -1.6974 -0.9729
   32CHL1   H4B 2301   4.459   3.936   7.133  0.2059 -0.4620  0.9151
   32CHL1    C5 2302   4.538   4.028   7.317  0.1782 -0.2583 -0.4998
   32CHL1    C6 2303   4.555   3.907   7.370  0.1422 -0.4630 -0.1839
   32CHL1    H6 2304   4.526   3.822   7.307 -1.7274  0.1324 -0.1397
   32CHL1    C7 2305   4.598   3.882   7.511 -0.0918  0.1269 -0.4094
   32CHL1   H7A 2306   4.523   3.806   7.542 -1.5546  1.5459 -0.3853
   32CHL1   H7B 2307   4.704   3.850   7.506  0.0402  0.4652  0.2247
   32CHL1    C8 2308   4.581   4.009   7.594 -0.5302  0.6022 -0.8789
   32CHL1    H8 2309   4.471   4.025   7.593 -0.7498 -0.5309  1.4983
   32CHL1   C14 2310   4.639   3.979   7.728  0.4735  0.9180  0.0508
   32CHL1   H14 2311   4.747   3.955   7.715  0.8118  2.1155  0.4915
   32CHL1   C15 2312   4.574   3.858   7.791 -0.3090  0.2701 -0.8773
   32CHL1  H15A 2313   4.464   3.858   7.777  0.0060 -1.0265 -3.6328
   32CHL1  H15B 2314   4.617   3.762   7.755 -0.1299 -0.1788  0.4849
   32CHL1   C16 2315   4.611   3.883   7.936  0.2518  0.1058 -0.0428
   32CHL1  H16A 2316   4.516   3.898   7.992  0.7512  0.8050  0.6216
   32CHL1  H16B 2317   4.658   3.795   7.986  0.0344 -0.0565 -0.1230
   32CHL1   C17 2318   4.674   4.025   7.950  0.0499  0.5764 -0.6186
   32CHL1   H17 2319   4.784   4.019   7.936  0.4745 -0.6440  2.8300
   32CHL1   C13 2320   4.627   4.096   7.826 -0.8057  0.5137 -0.7960
   32CHL1   C18 2321   4.484   4.144   7.844  0.6243  0.1925  0.1005
   32CHL1  H18A 2322   4.493   4.233   7.910  0.4645  0.4838 -0.2663
   32CHL1  H18B 2323   4.428   4.177   7.753  0.2392 -0.0636  0.2421
   32CHL1  H18C 2324   4.421   4.069   7.897  0.9847  0.1410  0.4516
   32CHL1   C12 2325   4.719   4.206   7.765  0.7665 -0.2384  0.5737
   32CHL1  H12A 2326   4.716   4.307   7.812 -1.7904  0.2384 -0.4857
   32CHL1  H12B 2327   4.822   4.165   7.763 -0.4061 -3.2747  0.4297
   32CHL1   C11 2328   4.670   4.246   7.619  0.4219 -0.0430  0.0256
   32CHL1  H11A 2329   4.575   4.304   7.632 -0.2139 -1.0229 -0.2216
   32CHL1  H11B 2330   4.746   4.311   7.572 -0.9007  2.7495  1.5744
   32CHL1    C9 2331   4.641   4.132   7.521  0.3622 -0.3610 -0.0245
   32CHL1    H9 2332   4.742   4.099   7.490 -0.0789  0.7464 -2.7483
   32CHL1   C10 2333   4.574   4.158   7.388  0.3928  0.9438  0.1651
   32CHL1   C19 2334   4.451   4.239   7.417 -0.5764 -0.7005 -0.2640
   32CHL1  H19A 2335   4.387   4.256   7.327 -3.1660 -2.0179  1.2434
   32CHL1  H19B 2336   4.383   4.197   7.495 -0.0822  0.7714  0.9730
   32CHL1  H19C 2337   4.483   4.340   7.448  1.9435 -1.2268 -1.0013
   32CHL1    C1 2338   4.670   4.233   7.287 -0.0682 -0.2206 -0.3329
   32CHL1   H1A 2339   4.695   4.334   7.324 -1.1878  0.0965 -0.4137
   32CHL1   H1B 2340   4.763   4.173   7.279 -0.9506 -2.0007  2.2175
   32CHL1    C2 2341   4.608   4.256   7.138 -0.2640 -0.2592 -0.0523
   32CHL1   H2A 2342   4.694   4.293   7.078 -0.9829 -0.4465 -1.2229
   32CHL1   H2B 2343   4.525   4.330   7.138 -0.1368 -0.0395  2.9869
   32CHL1   C20 2344   4.646   4.087   8.093 -0.1102  0.3676  0.3258
   32CHL1   H20 2345   4.537   4.106   8.100  0.0224  2.0674 -1.8493
   32CHL1   C21 2346   4.722   4.223   8.114 -0.1527  0.3470 -0.6482
   32CHL1  H21A 2347   4.676   4.299   8.047 -0.9956  2.0788  1.8236
   32CHL1  H21B 2348   4.829   4.215   8.085 -0.7147 -1.3371 -2.3137
   32CHL1  H21C 2349   4.721   4.265   8.217 -0.8663  0.9764 -0.9089
   32CHL1   C22 2350   4.675   3.990   8.206 -0.1336 -0.1427 -0.0996
   32CHL1  H22A 2351   4.658   4.044   8.301 -0.1393  0.4029 -0.4116
   32CHL1  H22B 2352   4.609   3.901   8.215  0.7623 -0.9303 -1.1067
   32CHL1   C23 2353   4.825   3.940   8.207  0.1564 -0.4406  0.1713
   32CHL1  H23A 2354   4.825   3.875   8.116 -0.4813 -0.7619  0.3950
   32CHL1  H23B 2355   4.884   4.033   8.193 -0.8581  0.2626  0.5242
   32CHL1   C24 2356   4.858   3.854   8.328 -0.0364  0.4854 -0.3979
   32CHL1  H24A 2357   4.801   3.759   8.320  0.4867  0.1653 -0.3104
   32CHL1  H24B 2358   4.962   3.815   8.330 -0.0670  0.4388  0.4627
   32CHL1   C25 2359   4.829   3.910   8.465 -0.3251 -0.0410 -0.3040
   32CHL1   H25 2360   4.722   3.937   8.475 -1.2824 -3.6280 -0.3825
   32CHL1   C26 2361   4.866   3.803   8.566 -0.8546  0.2480 -0.1672
   32CHL1  H26A 2362   4.841   3.830   8.671 -2.4208  1.3393 -0.8114
   32CHL1  H26B 2363   4.812   3.707   8.553 -1.2646  0.2444  1.4386
   32CHL1  H26C 2364   4.976   3.788   8.558 -0.8957 -0.3338  0.3069
   32CHL1   C27 2365   4.910   4.043   8.495 -0.2348 -0.1292 -0.0722
   32CHL1  H27A 2366   4.858   4.123   8.439 -0.6979  0.4680  1.2051
   32CHL1  H27B 2367   4.909   4.071   8.602 -0.7646 -0.9258  0.1363
   32CHL1  H27C 2368   5.017   4.031   8.465 -0.1505 -2.0097  0.8917
   33CHL1    C3 2369   5.595   3.854   6.812 -0.0573  0.9951 -0.4554
   33CHL1    H3 2370   5.584   3.953   6.861  2.1858  0.5191  1.0716
   33CHL1    O3 2371   5.592   3.861   6.667  0.3231 -0.1453  0.1212
   33CHL1   H3' 2372   5.607   3.774   6.631  0.9573 -0.7452  1.8042
   33CHL1    C4 2373   5.718   3.785   6.861  0.3661 -0.3523  0.6015
   33CHL1   H4A 2374   5.724   3.682   6.818 -0.5639 -1.4554  3.0238
   33CHL1   H4B 2375   5.807   3.844   6.829 -0.1608  0.2439  0.2466
   33CHL1    C5 2376   5.717   3.762   7.010 -0.1875 -0.1554 -0.1435
   33CHL1    C6 2377   5.820   3.806   7.089 -0.5762 -0.3093  0.0353
   33CHL1    H6 2378   5.911   3.854   7.049 -0.5508 -1.6924 -1.6095
   33CHL1    C7 2379   5.832   3.777   7.235  0.8494 -0.1752 -0.4618
   33CHL1   H7A 2380   5.934   3.734   7.252  1.2069  0.7153 -0.3390
   33CHL1   H7B 2381   5.824   3.873   7.291  0.5074 -0.2581 -0.3702
   33CHL1    C8 2382   5.722   3.687   7.290 -0.6051 -0.4067 -0.5905
   33CHL1    H8 2383   5.749   3.584   7.258 -1.1166 -0.8621  0.4284
   33CHL1   C14 2384   5.717   3.695   7.438 -0.3558 -0.5452  0.0208
   33CHL1   H14 2385   5.686   3.798   7.466  1.3333 -0.2932  1.0060
   33CHL1   C15 2386   5.852   3.682   7.516  0.4246 -0.1369  0.3732
   33CHL1  H15A 2387   5.918   3.599   7.482  0.5208  0.0681  0.0635
   33CHL1  H15B 2388   5.899   3.782   7.510  1.5709 -0.8322 -4.0153
   33CHL1   C16 2389   5.803   3.650   7.660  0.6179  0.9879  0.3671
   33CHL1  H16A 2390   5.845   3.551   7.685  0.4388  0.3892 -1.5791
   33CHL1  H16B 2391   5.854   3.724   7.726  0.1604  0.9710  0.7374
   33CHL1   C17 2392   5.636   3.640   7.655 -0.8661 -0.5669  0.1098
   33CHL1   H17 2393   5.586   3.737   7.675  1.1341 -0.0886  2.9887
   33CHL1   C13 2394   5.616   3.603   7.507  0.6938 -0.4356  0.1646
   33CHL1   C18 2395   5.656   3.457   7.480  0.2127  0.1744  0.8054
   33CHL1  H18A 2396   5.764   3.431   7.483  0.5658  1.6670  1.5044
   33CHL1  H18B 2397   5.602   3.389   7.549 -1.9975 -1.5677 -2.4562
   33CHL1  H18C 2398   5.630   3.424   7.377  1.1604 -0.6137  0.8148
   33CHL1   C12 2399   5.474   3.617   7.448  0.2886  0.1427 -0.7030
   33CHL1  H12A 2400   5.405   3.535   7.478 -0.4546  1.0821  0.2124
   33CHL1  H12B 2401   5.448   3.716   7.490  0.1910 -0.6075  1.0493
   33CHL1   C11 2402   5.474   3.619   7.292  0.1806  0.0461 -0.1056
   33CHL1  H11A 2403   5.476   3.517   7.247  1.6046 -1.7150  3.7490
   33CHL1  H11B 2404   5.378   3.662   7.255 -0.7401 -1.1777  0.8327
   33CHL1    C9 2405   5.585   3.706   7.227  0.1796  0.1618  0.3235
   33CHL1    H9 2406   5.568   3.812   7.259  1.6005 -0.3494  2.9154
   33CHL1   C10 2407   5.591   3.698   7.071  0.8168  0.5616 -0.2623
   33CHL1   C19 2408   5.596   3.548   7.021 -0.1714  0.1549 -0.4092
   33CHL1  H19A 2409   5.495   3.503   7.033  0.2721 -0.6978  0.1614
   33CHL1  H19B 2410   5.611   3.528   6.913 -2.3965 -0.3707 -0.6307
   33CHL1  H19C 2411   5.669   3.480   7.070  0.2734  3.1290  3.3097
   33CHL1    C1 2412   5.464   3.762   7.020 -0.1822 -0.1766  0.5534
   33CHL1   H1A 2413   5.373   3.701   7.042 -2.3178  2.1403 -1.4775
   33CHL1   H1B 2414   5.454   3.864   7.062 -2.6259 -0.5511  0.9976
   33CHL1    C2 2415   5.470   3.766   6.863  0.2874 -0.0578  0.3955
   33CHL1   H2A 2416   5.378   3.811   6.819 -0.4027 -2.2164 -0.4189
   33CHL1   H2B 2417   5.478   3.663   6.823 -0.9001 -0.1111  0.2731
   33CHL1   C20 2418   5.587   3.543   7.762  0.5799  0.4555  0.5864
   33CHL1   H20 2419   5.621   3.437   7.758 -3.0075 -0.7428 -0.6173
   33CHL1   C21 2420   5.429   3.544   7.764  0.7831  0.0665 -0.1542
   33CHL1  H21A 2421   5.383   3.490   7.679  0.7144  0.7727 -0.5709
   33CHL1  H21B 2422   5.392   3.649   7.760  0.7000 -0.0067 -1.4487
   33CHL1  H21C 2423   5.393   3.500   7.859 -0.9538  0.0024 -0.8361
   33CHL1   C22 2424   5.637   3.596   7.907 -0.5607 -0.3888  0.2073
   33CHL1  H22A 2425   5.598   3.524   7.982 -0.0094 -1.2336 -0.3032
   33CHL1  H22B 2426   5.748   3.594   7.913 -0.3084  4.5585 -0.8315
   33CHL1   C23 2427   5.581   3.733   7.953  0.0550 -0.1665 -0.1275
   33CHL1  H23A 2428   5.584   3.810   7.872  1.7658  1.0151  1.0168
   33CHL1  H23B 2429   5.472   3.728   7.973  0.7477 -1.0260  3.8915
   33CHL1   C24 2430   5.624   3.771   8.093 -0.0628 -0.1680 -0.3132
   33CHL1  H24A 2431   5.565   3.853   8.139  1.5439  0.1446  1.2819
   33CHL1  H24B 2432   5.613   3.680   8.156  0.5141 -0.7669 -1.0765
   33CHL1   C25 2433   5.766   3.828   8.106 -0.1127  0.2218  0.4306
   33CHL1   H25 2434   5.831   3.743   8.075  0.2810  0.7291 -0.1476
   33CHL1   C26 2435   5.792   3.946   8.013 -0.4633 -0.3650 -0.2169
   33CHL1  H26A 2436   5.733   4.036   8.039  0.5997  0.1595  0.4117
   33CHL1  H26B 2437   5.901   3.968   8.016 -0.0507 -2.0346 -2.1328
   33CHL1  H26C 2438   5.771   3.924   7.906 -0.6129  0.9019 -0.4457
   33CHL1   C27 2439   5.796   3.882   8.246  0.4278  0.5412 -0.1430
   33CHL1  H27A 2440   5.788   3.814   8.334  2.7880  2.3995  1.6020
   33CHL1  H27B 2441   5.901   3.918   8.233  0.4597  0.7335  0.6349
   33CHL1  H27C 2442   5.729   3.967   8.271  0.4134  1.0155 -1.7754
   34CHL1    C3 2443   6.116   2.458   7.269  0.4871 -0.6071 -0.7978
   34CHL1    H3 2444   6.083   2.554   7.314  3.7785 -0.5054  1.6666
   34CHL1    O3 2445   6.050   2.455   7.144  0.0727 -0.7699 -0.0636
   34CHL1   H3' 2446   6.037   2.545   7.113  0.8823 -0.9656 -1.0206
   34CHL1    C4 2447   6.272   2.462   7.253 -0.3154  0.0190 -0.3564
   34CHL1   H4A 2448   6.297   2.376   7.187  0.0267  0.9605 -1.4658
   34CHL1   H4B 2449   6.307   2.556   7.205 -0.1881  0.3788  0.4349
   34CHL1    C5 2450   6.347   2.457   7.382 -0.5390  0.2468  0.0413
   34CHL1    C6 2451   6.460   2.532   7.411 -0.3411  0.7665  0.4273
   34CHL1    H6 2452   6.494   2.610   7.341 -1.0967  0.6962 -0.0242
   34CHL1    C7 2453   6.525   2.527   7.545  0.4323  0.1703 -0.4229
   34CHL1   H7A 2454   6.634   2.517   7.523  0.4598  3.1770 -1.8724
   34CHL1   H7B 2455   6.505   2.622   7.597  1.5653 -0.1652  0.6454
   34CHL1    C8 2456   6.489   2.399   7.633 -0.3747  0.0740  0.8142
   34CHL1    H8 2457   6.540   2.310   7.591  0.0927  0.2640  0.9763
   34CHL1   C14 2458   6.552   2.422   7.766  0.6683 -0.0818 -1.1260
   34CHL1   H14 2459   6.502   2.519   7.789  1.1651 -0.2070  0.5431
   34CHL1   C15 2460   6.699   2.441   7.787  0.2185 -0.0322  0.1662
   34CHL1  H15A 2461   6.755   2.357   7.739 -0.4971  1.5132 -3.5695
   34CHL1  H15B 2462   6.724   2.542   7.750 -0.2985 -0.0166 -0.1380
   34CHL1   C16 2463   6.714   2.440   7.941 -0.6693  0.3873 -0.0543
   34CHL1  H16A 2464   6.795   2.373   7.978 -0.6108  0.9811  0.9196
   34CHL1  H16B 2465   6.738   2.543   7.975 -0.6052  1.2582 -2.6649
   34CHL1   C17 2466   6.575   2.390   7.998  0.0849  0.0028  0.2986
   34CHL1   H17 2467   6.516   2.483   8.010  2.6364  1.4369  2.2165
   34CHL1   C13 2468   6.506   2.323   7.874  0.2595  0.1010 -0.1179
   34CHL1   C18 2469   6.560   2.184   7.849 -0.2339 -1.3919 -0.0112
   34CHL1  H18A 2470   6.534   2.157   7.745  1.3872  0.8361 -1.0397
   34CHL1  H18B 2471   6.671   2.175   7.854 -0.2361 -1.2050  0.4320
   34CHL1  H18C 2472   6.511   2.118   7.925 -0.8887 -0.4873  0.3607
   34CHL1   C12 2473   6.350   2.316   7.887  0.2657 -0.3384  0.6652
   34CHL1  H12A 2474   6.310   2.238   7.956 -1.5354  0.1157  0.1706
   34CHL1  H12B 2475   6.315   2.417   7.915 -1.6949 -1.2125  1.4473
   34CHL1   C11 2476   6.289   2.294   7.745 -0.1390  0.1278 -0.8694
   34CHL1  H11A 2477   6.323   2.190   7.725  1.1793  0.5579 -0.9102
   34CHL1  H11B 2478   6.178   2.289   7.744 -0.0869 -1.3586 -0.6946
   34CHL1    C9 2479   6.337   2.387   7.626  0.1441  0.4036 -0.1689
   34CHL1    H9 2480   6.300   2.489   7.650  1.3933  1.0030 -0.7117
   34CHL1   C10 2481   6.282   2.354   7.486 -0.5727  0.4798 -0.0076
   34CHL1   C19 2482   6.307   2.210   7.447  0.4198  0.1067  0.3964
   34CHL1  H19A 2483   6.401   2.175   7.495  0.4857  1.4340  1.2632
   34CHL1  H19B 2484   6.226   2.145   7.488  0.1287 -1.0941 -2.0220
   34CHL1  H19C 2485   6.310   2.191   7.338  1.7397 -1.3222  0.6664
   34CHL1    C1 2486   6.128   2.366   7.489  0.0839  0.3078  0.2648
   34CHL1   H1A 2487   6.093   2.288   7.560 -0.2266  0.5075  0.3318
   34CHL1   H1B 2488   6.117   2.467   7.535  0.5081  1.0568 -1.2226
   34CHL1    C2 2489   6.068   2.346   7.355 -0.5143 -0.3837  0.0191
   34CHL1   H2A 2490   5.957   2.352   7.364 -0.5126  1.1852 -0.8353
   34CHL1   H2B 2491   6.098   2.255   7.298 -0.7253 -0.8966  0.7206
   34CHL1   C20 2492   6.577   2.314   8.129 -0.5655  1.1647  0.8387
   34CHL1   H20 2493   6.491   2.246   8.107  0.5905  0.6418 -2.2104
   34CHL1   C21 2494   6.545   2.405   8.244 -0.4740 -0.2295 -0.1520
   34CHL1  H21A 2495   6.460   2.472   8.220  0.1038 -0.0237 -1.7353
   34CHL1  H21B 2496   6.632   2.472   8.262 -1.4669  1.0893 -0.2600
   34CHL1  H21C 2497   6.512   2.343   8.330 -2.1632 -1.3506 -1.5657
   34CHL1   C22 2498   6.695   2.210   8.151  0.0671 -0.4790 -0.0346
   34CHL1  H22A 2499   6.737   2.171   8.056 -1.4514 -0.2877 -0.8058
   34CHL1  H22B 2500   6.786   2.258   8.192  0.7486 -0.9665 -0.9578
   34CHL1   C23 2501   6.649   2.102   8.253  0.5949  0.1485  0.4616
   34CHL1  H23A 2502   6.575   2.141   8.325  0.1211 -1.8092  1.0532
   34CHL1  H23B 2503   6.593   2.021   8.202  0.2365  0.9816 -0.4904
   34CHL1   C24 2504   6.773   2.033   8.319 -0.0316  0.6566 -0.2929
   34CHL1  H24A 2505   6.837   2.000   8.235  0.4204  0.0240  0.2923
   34CHL1  H24B 2506   6.841   2.091   8.384  0.2871 -0.6907  0.6007
   34CHL1   C25 2507   6.749   1.920   8.425  0.1998 -0.0855 -0.1348
   34CHL1   H25 2508   6.689   1.963   8.508 -0.6863 -1.9439  0.2307
   34CHL1   C26 2509   6.670   1.797   8.383 -0.0628 -0.6337 -0.0093
   34CHL1  H26A 2510   6.650   1.728   8.468 -0.8908 -1.1436 -0.6182
   34CHL1  H26B 2511   6.571   1.826   8.344  0.3988  0.3190 -0.4800
   34CHL1  H26C 2512   6.730   1.750   8.302  1.6751  1.6082 -0.0941
   34CHL1   C27 2513   6.877   1.871   8.492  0.0891 -0.3883 -0.0289
   34CHL1  H27A 2514   6.903   1.957   8.558 -2.0937  0.6984 -0.5368
   34CHL1  H27B 2515   6.853   1.776   8.544  6.3525 -0.4434  3.1508
   34CHL1  H27C 2516   6.960   1.858   8.419  0.7393  3.8118 -0.2082
   35CHL1    C3 2517   3.147   3.551   7.242  0.5238 -0.3577 -0.4929
   35CHL1    H3 2518   3.257   3.548   7.226  0.8940 -0.3720  1.9079
   35CHL1    O3 2519   3.075   3.584   7.125  0.4375 -0.0753 -0.1215
   35CHL1   H3' 2520   3.071   3.502   7.075 -0.2955 -0.2582  0.2214
   35CHL1    C4 2521   3.114   3.409   7.284 -1.0902 -0.4440  0.5396
   35CHL1   H4A 2522   3.004   3.395   7.284 -1.2522  0.7477  0.2494
   35CHL1   H4B 2523   3.151   3.349   7.198  1.0785  2.9395 -1.0015
   35CHL1    C5 2524   3.184   3.368   7.413  0.5713 -0.2874 -0.5333
   35CHL1    C6 2525   3.276   3.272   7.417  0.4964 -0.0021 -0.0261
   35CHL1    H6 2526   3.308   3.215   7.328 -0.1148  0.3994 -0.5111
   35CHL1    C7 2527   3.339   3.224   7.542  0.2102  0.7704 -0.1568
   35CHL1   H7A 2528   3.340   3.113   7.536 -1.4604  0.7836 -0.8976
   35CHL1   H7B 2529   3.440   3.267   7.557 -0.0486  0.5145  2.6647
   35CHL1    C8 2530   3.253   3.267   7.665  0.1603  0.1517  0.7002
   35CHL1    H8 2531   3.152   3.220   7.668  0.0680  0.3291  0.4003
   35CHL1   C14 2532   3.335   3.236   7.795 -0.1025  0.2113  0.5810
   35CHL1   H14 2533   3.421   3.307   7.799 -0.4508  0.6890 -0.2493
   35CHL1   C15 2534   3.384   3.093   7.807  0.2928 -0.1327  0.0620
   35CHL1  H15A 2535   3.305   3.022   7.776 -1.3839  0.8909  1.8365
   35CHL1  H15B 2536   3.477   3.079   7.748  0.2067  0.1917 -0.1531
   35CHL1   C16 2537   3.414   3.076   7.959  0.4044  0.3732 -0.0597
   35CHL1  H16A 2538   3.361   2.986   7.997  1.8714 -0.4738  0.0163
   35CHL1  H16B 2539   3.519   3.040   7.971 -0.5705 -2.0615  1.4287
   35CHL1   C17 2540   3.371   3.208   8.030  0.1238 -0.2663  0.2268
   35CHL1   H17 2541   3.456   3.279   8.032 -0.1233  0.0478 -0.1281
   35CHL1   C13 2542   3.268   3.274   7.930  0.1254  0.1540 -0.2402
   35CHL1   C18 2543   3.124   3.210   7.938 -0.2951 -0.0884  0.4410
   35CHL1  H18A 2544   3.130   3.099   7.934 -0.3158 -0.0721 -0.1018
   35CHL1  H18B 2545   3.079   3.246   8.033  2.5498 -0.8700  2.1722
   35CHL1  H18C 2546   3.063   3.244   7.852  1.7022 -0.4171 -1.1379
   35CHL1   C12 2547   3.254   3.429   7.922  0.3175  0.2142 -0.6676
   35CHL1  H12A 2548   3.204   3.466   8.014  1.4690 -0.1234  0.1078
   35CHL1  H12B 2549   3.358   3.470   7.917 -0.2291  1.5753 -0.9312
   35CHL1   C11 2550   3.193   3.486   7.793  0.0326  0.8784 -0.1141
   35CHL1  H11A 2551   3.085   3.477   7.818  0.1060 -0.7759 -0.3900
   35CHL1  H11B 2552   3.215   3.595   7.798  0.7647  0.7788 -1.0866
   35CHL1    C9 2553   3.232   3.421   7.661 -0.3641 -0.1491 -0.0550
   35CHL1    H9 2554   3.336   3.458   7.651 -0.0661 -1.0191 -0.1399
   35CHL1   C10 2555   3.149   3.459   7.535 -0.2824 -0.0080 -0.8337
   35CHL1   C19 2556   3.006   3.434   7.574 -0.5386 -0.6144 -0.9345
   35CHL1  H19A 2557   2.937   3.453   7.489 -0.5997 -2.5870 -1.3335
   35CHL1  H19B 2558   2.998   3.335   7.623 -0.8632  0.6085  1.5787
   35CHL1  H19C 2559   2.968   3.503   7.652 -2.8240 -1.9730 -0.7961
   35CHL1    C1 2560   3.170   3.610   7.489 -0.3788  0.3685 -0.7391
   35CHL1   H1A 2561   3.142   3.687   7.564  1.2441 -0.3547  0.6568
   35CHL1   H1B 2562   3.280   3.614   7.481 -0.5473  2.8088 -2.0349
   35CHL1    C2 2563   3.114   3.650   7.351  0.4920 -0.3644  0.2307
   35CHL1   H2A 2564   3.161   3.747   7.325 -0.6044 -0.3268 -1.6672
   35CHL1   H2B 2565   3.004   3.659   7.352  0.5935  1.4798 -1.3701
   35CHL1   C20 2566   3.329   3.185   8.179 -0.1358  0.4247 -0.0590
   35CHL1   H20 2567   3.233   3.128   8.182 -1.0597  1.8821 -0.9301
   35CHL1   C21 2568   3.304   3.327   8.242  0.1461  0.2022 -0.0334
   35CHL1  H21A 2569   3.385   3.396   8.210  1.6958  0.1581  3.5646
   35CHL1  H21B 2570   3.302   3.314   8.353  0.7472 -0.3364 -0.0847
   35CHL1  H21C 2571   3.206   3.365   8.206 -1.7569 -2.1264  2.4577
   35CHL1   C22 2572   3.435   3.105   8.261  0.2216 -0.4388  0.3437
   35CHL1  H22A 2573   3.402   3.081   8.364  1.3154  0.3789  0.8951
   35CHL1  H22B 2574   3.436   3.002   8.218 -0.3385 -0.0668 -0.5742
   35CHL1   C23 2575   3.566   3.175   8.258 -0.2981  0.3496 -0.2408
   35CHL1  H23A 2576   3.606   3.192   8.156 -0.2625 -0.6250 -0.3946
   35CHL1  H23B 2577   3.564   3.272   8.311  2.2114  0.2808  0.0430
   35CHL1   C24 2578   3.674   3.097   8.333 -0.3729 -0.6642 -0.4192
   35CHL1  H24A 2579   3.763   3.158   8.358 -1.7189  0.9913  0.4464
   35CHL1  H24B 2580   3.632   3.065   8.431 -0.7173  1.5163  0.1701
   35CHL1   C25 2581   3.724   2.974   8.259  0.5408  1.0267  0.0714
   35CHL1   H25 2582   3.632   2.919   8.228  0.7143  1.4556 -1.2789
   35CHL1   C26 2583   3.788   3.009   8.124 -0.6443 -0.1994  0.4683
   35CHL1  H26A 2584   3.856   3.096   8.132 -2.2317  1.0326  0.7713
   35CHL1  H26B 2585   3.857   2.927   8.094 -1.8589 -1.2204  0.4510
   35CHL1  H26C 2586   3.724   3.031   8.036 -1.0881  0.7028  1.0097
   35CHL1   C27 2587   3.810   2.882   8.345  0.6805  0.2373  0.1350
   35CHL1  H27A 2588   3.818   2.790   8.284  0.9315  1.5734 -1.8997
   35CHL1  H27B 2589   3.771   2.875   8.449  0.7294 -0.9082  0.0758
   35CHL1  H27C 2590   3.914   2.921   8.356  0.8001 -0.6992  2.7051
   36CHL1    C3 2591   3.556   2.780   7.055 -0.5795  0.3918 -0.5312
   36CHL1    H3 2592   3.475   2.706   7.076  0.0991  0.5973  3.1398
   36CHL1    O3 2593   3.546   2.833   6.917  0.1563  0.1642 -0.1165
   36CHL1   H3' 2594   3.622   2.891   6.909  0.5511 -0.2605  0.4380
   36CHL1    C4 2595   3.533   2.896   7.152  0.3538  0.0600 -0.2418
   36CHL1   H4A 2596   3.607   2.970   7.116 -1.1999  1.3632 -0.8566
   36CHL1   H4B 2597   3.434   2.945   7.136  1.5505  1.8988 -2.4959
   36CHL1    C5 2598   3.557   2.857   7.295  0.0384 -0.8374 -0.1118
   36CHL1    C6 2599   3.453   2.870   7.381 -0.0276 -0.1558 -0.5638
   36CHL1    H6 2600   3.358   2.915   7.350  0.6525  1.6307 -0.1068
   36CHL1    C7 2601   3.482   2.839   7.527  0.1570  0.8561  0.2363
   36CHL1   H7A 2602   3.461   2.921   7.598 -0.3659  0.1757  0.8785
   36CHL1   H7B 2603   3.422   2.750   7.556 -1.6152  1.2367 -2.0962
   36CHL1    C8 2604   3.627   2.796   7.568  0.6366  0.4139 -0.3808
   36CHL1    H8 2605   3.676   2.894   7.587 -1.6111  1.5020  0.0235
   36CHL1   C14 2606   3.633   2.707   7.694  0.2315  0.6541 -0.1500
   36CHL1   H14 2607   3.596   2.606   7.667  1.5131  0.3215 -0.7239
   36CHL1   C15 2608   3.551   2.756   7.816  0.3693  0.3055 -0.2265
   36CHL1  H15A 2609   3.561   2.864   7.838 -0.4592  0.6448 -1.4379
   36CHL1  H15B 2610   3.443   2.734   7.802  0.3676  0.8036 -1.0833
   36CHL1   C16 2611   3.608   2.663   7.926 -0.1720  0.8268 -0.1990
   36CHL1  H16A 2612   3.644   2.729   8.008  0.7261  0.6514 -0.4520
   36CHL1  H16B 2613   3.532   2.590   7.961  3.2030 -1.5897  2.4924
   36CHL1   C17 2614   3.744   2.594   7.874  0.2284 -0.1751  0.5481
   36CHL1   H17 2615   3.717   2.492   7.838 -2.2924  1.1365 -1.4773
   36CHL1   C13 2616   3.775   2.672   7.740  0.5038 -0.0361 -0.6395
   36CHL1   C18 2617   3.853   2.792   7.782 -0.0367 -0.3888 -0.6348
   36CHL1  H18A 2618   3.958   2.789   7.819  0.3298  2.1075 -1.3555
   36CHL1  H18B 2619   3.862   2.867   7.700 -2.3106  1.3454  0.6381
   36CHL1  H18C 2620   3.799   2.849   7.860  1.9057  1.2675 -0.4424
   36CHL1   C12 2621   3.842   2.597   7.625 -0.2290 -0.1308 -0.3306
   36CHL1  H12A 2622   3.947   2.571   7.650 -0.3530 -0.1941  0.1356
   36CHL1  H12B 2623   3.780   2.508   7.603 -1.0595  0.7414 -1.6140
   36CHL1   C11 2624   3.851   2.685   7.499  0.0228  0.7603  0.6414
   36CHL1  H11A 2625   3.915   2.776   7.504  1.6812 -0.2387 -1.3167
   36CHL1  H11B 2626   3.895   2.619   7.421  1.1203  0.9118  1.1145
   36CHL1    C9 2627   3.711   2.730   7.456 -0.3871 -0.3566 -0.3230
   36CHL1    H9 2628   3.658   2.636   7.435 -1.3324  0.2440 -0.6490
   36CHL1   C10 2629   3.702   2.811   7.317  0.4280 -0.0147  0.4674
   36CHL1   C19 2630   3.805   2.926   7.311 -0.6915  0.0178 -0.0144
   36CHL1  H19A 2631   3.908   2.889   7.331 -0.4625  1.0410  0.7006
   36CHL1  H19B 2632   3.814   2.975   7.212  0.8933 -0.2100  0.0021
   36CHL1  H19C 2633   3.777   3.006   7.382  0.3896 -0.2349  0.7096
   36CHL1    C1 2634   3.748   2.703   7.212  0.1272 -0.4586 -0.0826
   36CHL1   H1A 2635   3.859   2.707   7.211  0.1439  0.0143  1.3081
   36CHL1   H1B 2636   3.732   2.596   7.236 -0.1962 -0.1457  1.1549
   36CHL1    C2 2637   3.700   2.720   7.074 -0.2287  0.3035  0.2435
   36CHL1   H2A 2638   3.705   2.628   7.012 -1.6526  0.1698  0.2996
   36CHL1   H2B 2639   3.769   2.796   7.031 -1.5904  1.1988 -0.4089
   36CHL1   C20 2640   3.852   2.575   7.982 -0.8544 -0.3388  0.6363
   36CHL1   H20 2641   3.871   2.677   8.023 -2.1447 -0.4955  1.6765
   36CHL1   C21 2642   3.977   2.515   7.923  0.2149  0.2400  0.2824
   36CHL1  H21A 2643   4.026   2.585   7.853  1.2346 -1.6139 -0.9227
   36CHL1  H21B 2644   3.945   2.420   7.874 -0.3194 -0.7693  2.5081
   36CHL1  H21C 2645   4.059   2.488   7.994  1.6224  1.2800 -0.9325
   36CHL1   C22 2646   3.788   2.491   8.095 -0.0409  0.5190  0.4074
   36CHL1  H22A 2647   3.696   2.541   8.131  1.4521  2.8730  1.0544
   36CHL1  H22B 2648   3.768   2.387   8.059 -0.5255  0.6259  0.3676
   36CHL1   C23 2649   3.877   2.472   8.222  0.9188 -0.4070  0.5768
   36CHL1  H23A 2650   3.973   2.427   8.190  0.1310 -0.9710 -1.0661
   36CHL1  H23B 2651   3.885   2.575   8.264 -0.8477  0.1695 -0.4294
   36CHL1   C24 2652   3.820   2.369   8.318 -0.3219  0.7415  0.1495
   36CHL1  H24A 2653   3.715   2.395   8.343  0.0440  2.5593 -0.1522
   36CHL1  H24B 2654   3.817   2.270   8.267 -0.1084  0.2604  1.0779
   36CHL1   C25 2655   3.911   2.347   8.438 -0.0336 -0.4107  0.3155
   36CHL1   H25 2656   3.922   2.444   8.491  2.2351  0.4770 -1.6406
   36CHL1   C26 2657   3.843   2.254   8.538  0.8057  0.2126  0.4057
   36CHL1  H26A 2658   3.852   2.152   8.494  0.9748 -0.3219  1.6364
   36CHL1  H26B 2659   3.894   2.255   8.637  1.7678 -1.6812 -0.0552
   36CHL1  H26C 2660   3.734   2.273   8.550  0.4426 -0.4063 -1.6988
   36CHL1   C27 2661   4.054   2.294   8.410  0.0906  0.3643  0.8402
   36CHL1  H27A 2662   4.111   2.351   8.334  0.9965 -0.3682  0.9637
   36CHL1  H27B 2663   4.116   2.307   8.501  1.4449  0.1049 -0.0281
   36CHL1  H27C 2664   4.053   2.188   8.374 -0.5056  0.7854 -0.4461
   37CHL1    C3 2665   0.309   5.411   6.846 -0.4109  0.3869  0.5234
   37CHL1    H3 2666   0.284   5.516   6.820  0.5127  0.3439 -0.5791
   37CHL1    O3 2667   0.322   5.351   6.711 -0.1027  0.1087 -0.0088
   37CHL1   H3' 2668   0.229   5.344   6.688  0.0521 -1.9251 -0.1033
   37CHL1    C4 2669   0.447   5.403   6.916 -0.0394  0.5919  0.1521
   37CHL1   H4A 2670   0.483   5.298   6.911 -1.4427  0.1715 -2.0628
   37CHL1   H4B 2671   0.525   5.448   6.851  3.6619 -2.3788  2.3518
   37CHL1    C5 2672   0.453   5.460   7.053  0.3236 -0.4159 -0.2193
   37CHL1    C6 2673   0.540   5.557   7.090  0.0972 -0.8840  0.2954
   37CHL1    H6 2674   0.618   5.593   7.021 -0.6372  0.9450  0.3971
   37CHL1    C7 2675   0.547   5.612   7.223  0.1672  0.4130 -0.0705
   37CHL1   H7A 2676   0.656   5.614   7.244  0.6053 -0.8385 -2.1018
   37CHL1   H7B 2677   0.510   5.717   7.223  1.3060  0.8565  2.1362
   37CHL1    C8 2678   0.476   5.530   7.334  0.0225  0.4170  0.6183
   37CHL1    H8 2679   0.533   5.437   7.357  1.6073  1.8271  2.6078
   37CHL1   C14 2680   0.469   5.617   7.467  0.2141 -0.2486  0.1692
   37CHL1   H14 2681   0.406   5.705   7.442 -0.0890 -0.3262  0.6408
   37CHL1   C15 2682   0.600   5.677   7.525 -0.2575 -0.1953 -0.2793
   37CHL1  H15A 2683   0.675   5.596   7.540  0.2732  0.3236 -0.0784
   37CHL1  H15B 2684   0.646   5.759   7.465  0.1517  1.3968  2.1365
   37CHL1   C16 2685   0.542   5.727   7.660 -0.6095 -0.6773 -0.0182
   37CHL1  H16A 2686   0.616   5.686   7.733 -0.4920 -2.7450 -1.2659
   37CHL1  H16B 2687   0.567   5.836   7.664  3.1350 -1.4583  0.5496
   37CHL1   C17 2688   0.409   5.673   7.691  0.4369 -0.3347 -0.3000
   37CHL1   H17 2689   0.340   5.753   7.657 -2.7450 -2.8335  0.0154
   37CHL1   C13 2690   0.387   5.555   7.583 -0.7132 -0.3155 -0.3641
   37CHL1   C18 2691   0.462   5.426   7.628  0.3587  0.5893 -0.1278
   37CHL1  H18A 2692   0.435   5.348   7.554  0.6035  1.1749 -0.8422
   37CHL1  H18B 2693   0.572   5.441   7.632  0.2316  2.2261 -1.9474
   37CHL1  H18C 2694   0.424   5.401   7.729  1.8380 -2.5167 -0.2806
   37CHL1   C12 2695   0.245   5.526   7.523 -0.8872  0.0627 -0.3874
   37CHL1  H12A 2696   0.175   5.485   7.599  0.2721 -0.6799  0.2901
   37CHL1  H12B 2697   0.202   5.626   7.501 -0.8346  0.4306  1.0961
   37CHL1   C11 2698   0.247   5.431   7.399 -0.5092 -0.2995  0.3135
   37CHL1  H11A 2699   0.285   5.328   7.415 -0.5307 -0.6347 -1.6932
   37CHL1  H11B 2700   0.146   5.419   7.354  0.1589  2.8499 -2.2115
   37CHL1    C9 2701   0.336   5.487   7.281 -0.2700  0.0256 -0.0109
   37CHL1    H9 2702   0.296   5.588   7.257  3.0149  1.4781  0.4112
   37CHL1   C10 2703   0.344   5.405   7.149  0.0503 -0.4956  0.4708
   37CHL1   C19 2704   0.395   5.255   7.173 -0.3362 -0.6241 -0.3291
   37CHL1  H19A 2705   0.311   5.211   7.231  0.1382  0.8495  1.5184
   37CHL1  H19B 2706   0.412   5.207   7.074  1.8087  0.3351 -0.4618
   37CHL1  H19C 2707   0.488   5.259   7.234 -0.6168  1.4559 -0.0304
   37CHL1    C1 2708   0.201   5.400   7.080 -0.2975 -0.3176 -0.9576
   37CHL1   H1A 2709   0.124   5.350   7.141  0.7162 -1.9123 -0.9448
   37CHL1   H1B 2710   0.173   5.508   7.077 -0.3672 -0.3420 -1.1834
   37CHL1    C2 2711   0.201   5.339   6.938  0.2460 -0.2063  0.2341
   37CHL1   H2A 2712   0.099   5.361   6.897  0.2717 -0.0847  0.2357
   37CHL1   H2B 2713   0.228   5.232   6.935  1.2786  0.0571  0.1622
   37CHL1   C20 2714   0.382   5.650   7.843 -0.4083  0.3605  0.5466
   37CHL1   H20 2715   0.426   5.553   7.874 -0.2825 -0.1337 -1.1411
   37CHL1   C21 2716   0.235   5.630   7.862 -0.0680 -0.5581  0.4958
   37CHL1  H21A 2717   0.174   5.714   7.823  0.0647 -0.9602 -0.5821
   37CHL1  H21B 2718   0.202   5.603   7.965 -2.8185  1.8728  0.3210
   37CHL1  H21C 2719   0.209   5.537   7.807 -1.4713 -0.8261  1.5763
   37CHL1   C22 2720   0.433   5.763   7.935 -0.3513 -0.5084 -0.5354
   37CHL1  H22A 2721   0.544   5.763   7.945 -0.1623 -3.5330 -2.2269
   37CHL1  H22B 2722   0.397   5.861   7.897  2.2650  0.9947  0.6999
   37CHL1   C23 2723   0.390   5.758   8.089  0.0139  0.2965  0.3264
   37CHL1  H23A 2724   0.282   5.736   8.103  0.3928 -0.7539  1.7143
   37CHL1  H23B 2725   0.440   5.669   8.132  0.9161  0.0119 -1.2545
   37CHL1   C24 2726   0.428   5.887   8.162 -0.4432 -0.6814  0.6501
   37CHL1  H24A 2727   0.536   5.907   8.151 -0.3227 -1.8876 -0.3795
   37CHL1  H24B 2728   0.383   5.980   8.120  3.6055  1.4300  0.8043
   37CHL1   C25 2729   0.416   5.880   8.318  0.4255 -0.1302  0.1734
   37CHL1   H25 2730   0.319   5.840   8.352  1.1024 -3.3575 -1.4969
   37CHL1   C26 2731   0.530   5.790   8.376 -0.3923  0.0132  0.1308
   37CHL1  H26A 2732   0.536   5.778   8.486  0.0596  2.8043  0.4435
   37CHL1  H26B 2733   0.527   5.685   8.340  0.8635  0.2820 -0.7707
   37CHL1  H26C 2734   0.621   5.841   8.338  0.0034 -0.7269  0.0675
   37CHL1   C27 2735   0.421   6.023   8.379 -0.1788 -0.2152  1.2325
   37CHL1  H27A 2736   0.328   6.085   8.383  0.4395  0.7144  1.3700
   37CHL1  H27B 2737   0.446   6.012   8.487  0.1040  0.8598  1.2775
   37CHL1  H27C 2738   0.498   6.087   8.331 -2.2253  2.0898  0.9216
   38CHL1    C3 2739   3.506   5.724   6.669 -0.1513  0.6294 -0.2837
   38CHL1    H3 2740   3.547   5.625   6.699 -1.8866 -0.3912 -1.1980
   38CHL1    O3 2741   3.494   5.718   6.529 -0.0640  0.4189  0.6102
   38CHL1   H3' 2742   3.451   5.800   6.504 -0.8933 -0.7228 -1.8686
   38CHL1    C4 2743   3.371   5.738   6.723  0.7058  0.6645  0.3260
   38CHL1   H4A 2744   3.320   5.827   6.679 -1.1148 -0.2241  0.5862
   38CHL1   H4B 2745   3.301   5.655   6.698 -0.4751  1.2675  1.5771
   38CHL1    C5 2746   3.370   5.747   6.881 -0.1593 -0.3881  0.6415
   38CHL1    C6 2747   3.295   5.656   6.953  0.1324  0.3075  0.6508
   38CHL1    H6 2748   3.230   5.584   6.901  1.5663  0.8097 -1.9348
   38CHL1    C7 2749   3.301   5.665   7.107 -0.0999 -0.1204 -0.3078
   38CHL1   H7A 2750   3.195   5.654   7.139 -0.2255 -0.3783 -0.7996
   38CHL1   H7B 2751   3.350   5.575   7.150 -0.1878 -0.4213 -0.8209
   38CHL1    C8 2752   3.365   5.788   7.168 -0.4367  0.1882  0.0151
   38CHL1    H8 2753   3.291   5.870   7.158  2.3250  3.0046  1.6440
   38CHL1   C14 2754   3.403   5.768   7.314  0.6920  0.3703  0.3629
   38CHL1   H14 2755   3.484   5.693   7.311  0.8509  0.5145  0.9449
   38CHL1   C15 2756   3.294   5.713   7.407 -0.5479  0.2638  0.0052
   38CHL1  H15A 2757   3.207   5.775   7.378 -0.4528  1.0242  1.2848
   38CHL1  H15B 2758   3.280   5.603   7.401  0.8165  0.1415 -1.4245
   38CHL1   C16 2759   3.336   5.752   7.552 -1.1284 -0.4950  0.3376
   38CHL1  H16A 2760   3.252   5.813   7.590  0.2728  2.9729 -1.9274
   38CHL1  H16B 2761   3.356   5.662   7.615  0.6255  1.3329  2.4612
   38CHL1   C17 2762   3.465   5.838   7.532 -0.6268 -0.2496  0.1200
   38CHL1   H17 2763   3.554   5.772   7.533 -1.5443 -1.5105 -0.8618
   38CHL1   C13 2764   3.458   5.890   7.381  0.1570 -0.0602  0.6461
   38CHL1   C18 2765   3.354   6.005   7.383  0.3165 -0.2697  0.6044
   38CHL1  H18A 2766   3.336   6.049   7.283 -1.5091 -0.0277  1.0319
   38CHL1  H18B 2767   3.262   5.961   7.426 -0.4437  1.8325  1.1548
   38CHL1  H18C 2768   3.385   6.089   7.449 -0.5718 -0.5945  1.4321
   38CHL1   C12 2769   3.588   5.922   7.308 -0.5890  0.4495  0.6862
   38CHL1  H12A 2770   3.646   6.011   7.340  1.0545 -0.0760 -0.7505
   38CHL1  H12B 2771   3.664   5.843   7.327 -0.5237  0.6251  1.1514
   38CHL1   C11 2772   3.572   5.943   7.157 -0.4073  0.1076 -0.2577
   38CHL1  H11A 2773   3.522   6.042   7.149 -0.2174  0.2938  0.8149
   38CHL1  H11B 2774   3.672   5.958   7.112 -0.8159  2.6204 -0.4435
   38CHL1    C9 2775   3.487   5.825   7.096  0.2610  0.1716  0.5487
   38CHL1    H9 2776   3.557   5.739   7.095  0.6047  0.4412 -0.9034
   38CHL1   C10 2777   3.462   5.848   6.939  0.2593  0.1987 -0.3526
   38CHL1   C19 2778   3.394   5.989   6.915 -0.0916 -0.4523  0.5113
   38CHL1  H19A 2779   3.290   5.986   6.952 -0.3395 -1.0482 -0.2158
   38CHL1  H19B 2780   3.443   6.076   6.965 -2.2219  1.1890 -0.1993
   38CHL1  H19C 2781   3.404   6.029   6.811 -0.4884 -1.1967  0.1864
   38CHL1    C1 2782   3.598   5.828   6.869  0.3067 -0.2436 -0.6087
   38CHL1   H1A 2783   3.664   5.912   6.900 -0.1631 -0.4251  0.9097
   38CHL1   H1B 2784   3.633   5.730   6.905 -0.4206  0.1800  1.2793
   38CHL1    C2 2785   3.587   5.837   6.713 -0.1804 -0.0415  0.4434
   38CHL1   H2A 2786   3.687   5.815   6.669  0.1290 -0.2374  1.2484
   38CHL1   H2B 2787   3.544   5.934   6.677  0.0278  0.3531  1.2666
   38CHL1   C20 2788   3.490   5.941   7.650  0.5583 -0.5742  0.3453
   38CHL1   H20 2789   3.419   6.026   7.644  0.3149 -0.5958  2.5156
   38CHL1   C21 2790   3.628   6.010   7.636  0.2004  0.2581  0.3443
   38CHL1  H21A 2791   3.718   5.945   7.636  0.5036  0.6734 -0.5075
   38CHL1  H21B 2792   3.640   6.075   7.725  1.4488 -0.2761  0.5757
   38CHL1  H21C 2793   3.633   6.068   7.541  2.9431  1.2416  1.0376
   38CHL1   C22 2794   3.457   5.888   7.788  0.1915  0.6990  0.0332
   38CHL1  H22A 2795   3.355   5.845   7.780  0.0605  0.7830  1.1254
   38CHL1  H22B 2796   3.526   5.809   7.826 -0.5237  0.0327 -0.0459
   38CHL1   C23 2797   3.438   6.002   7.884  0.2080 -0.2904 -0.4628
   38CHL1  H23A 2798   3.536   6.047   7.910 -1.7517  3.1597  1.2670
   38CHL1  H23B 2799   3.375   6.079   7.833 -1.1511  0.2421  1.9495
   38CHL1   C24 2800   3.367   5.946   8.010 -0.0734 -0.2590  0.5558
   38CHL1  H24A 2801   3.281   5.887   7.972  1.5384 -2.7026  0.6115
   38CHL1  H24B 2802   3.420   5.863   8.061  0.8477 -0.3063 -0.4740
   38CHL1   C25 2803   3.313   6.057   8.101 -0.3153  0.0965  0.4721
   38CHL1   H25 2804   3.272   6.012   8.194 -0.2228  0.1545  0.5406
   38CHL1   C26 2805   3.422   6.146   8.155 -0.6931 -0.3099  0.6090
   38CHL1  H26A 2806   3.454   6.221   8.079 -2.7404 -1.6171 -1.6248
   38CHL1  H26B 2807   3.377   6.201   8.240 -1.1078  0.5731 -0.1686
   38CHL1  H26C 2808   3.513   6.087   8.181 -0.8668 -0.2490  1.3560
   38CHL1   C27 2809   3.202   6.137   8.040 -0.2260 -0.1652  0.7789
   38CHL1  H27A 2810   3.224   6.162   7.934 -0.8132 -0.7202  0.5229
   38CHL1  H27B 2811   3.113   6.072   8.026  1.6455 -2.4599 -1.0151
   38CHL1  H27C 2812   3.185   6.226   8.105  0.0326 -0.3521  1.1055
   39CHL1    C3 2813   2.832   5.320   6.786 -0.4829  0.1360 -0.0169
   39CHL1    H3 2814   2.732   5.332   6.831 -0.5697  0.6402 -0.3393
   39CHL1    O3 2815   2.829   5.324   6.639 -0.1825  0.4957 -0.1818
   39CHL1   H3' 2816   2.835   5.417   6.616  0.9785 -0.0858 -2.3388
   39CHL1    C4 2817   2.936   5.420   6.837 -0.1380  0.2828  0.1870
   39CHL1   H4A 2818   3.037   5.406   6.793 -0.3610  0.2711 -0.3286
   39CHL1   H4B 2819   2.918   5.522   6.795  1.7722  1.3358  1.7962
   39CHL1    C5 2820   2.936   5.412   6.990 -0.7224 -0.1232 -0.1034
   39CHL1    C6 2821   2.894   5.515   7.064 -0.3658 -0.1426 -0.4371
   39CHL1    H6 2822   2.868   5.607   7.009  2.0868  0.8674  0.0141
   39CHL1    C7 2823   2.885   5.523   7.211 -0.0040  0.1759 -0.5722
   39CHL1   H7A 2824   2.927   5.618   7.249 -0.8593  0.6302 -0.7611
   39CHL1   H7B 2825   2.780   5.511   7.245  0.1294  2.1304  0.5546
   39CHL1    C8 2826   2.978   5.402   7.267  0.4834 -0.6086 -0.5419
   39CHL1    H8 2827   3.080   5.431   7.235  0.4741  0.3861  0.2896
   39CHL1   C14 2828   2.964   5.391   7.424 -0.4962 -0.0340  0.8769
   39CHL1   H14 2829   2.858   5.357   7.434 -0.8872  0.5639 -1.0341
   39CHL1   C15 2830   2.972   5.519   7.511  0.1338 -0.3926  0.8930
   39CHL1  H15A 2831   3.059   5.573   7.467 -0.6867  1.1869  1.1654
   39CHL1  H15B 2832   2.883   5.584   7.495  1.3125  1.6178  2.2107
   39CHL1   C16 2833   2.986   5.465   7.652 -0.5660 -0.0990  0.3738
   39CHL1  H16A 2834   3.081   5.501   7.697 -1.6263  2.2851  0.7829
   39CHL1  H16B 2835   2.893   5.491   7.707  0.2287  1.6976  0.9100
   39CHL1   C17 2836   3.009   5.309   7.643  0.1188 -0.7865 -0.3154
   39CHL1   H17 2837   2.907   5.266   7.654  0.0136 -0.1869  1.1209
   39CHL1   C13 2838   3.043   5.281   7.493 -0.3003 -0.4790 -0.6615
   39CHL1   C18 2839   3.201   5.302   7.469  0.0789 -0.5396  0.4852
   39CHL1  H18A 2840   3.262   5.223   7.518 -0.0393 -1.3393 -0.6452
   39CHL1  H18B 2841   3.225   5.297   7.361 -0.3167 -3.3437  0.4975
   39CHL1  H18C 2842   3.239   5.402   7.499 -1.9299  0.2532  0.4733
   39CHL1   C12 2843   3.006   5.146   7.428  0.1458  0.4646  0.3732
   39CHL1  H12A 2844   3.060   5.066   7.482 -0.4418 -0.1138  0.1004
   39CHL1  H12B 2845   2.900   5.128   7.458 -0.0731 -0.0113 -0.6931
   39CHL1   C11 2846   3.017   5.146   7.274 -0.4568 -0.4077  0.3884
   39CHL1  H11A 2847   3.126   5.145   7.252 -0.0375 -2.5960  2.3525
   39CHL1  H11B 2848   2.971   5.055   7.229  0.7725 -1.5495  1.3888
   39CHL1    C9 2849   2.949   5.266   7.205 -0.2715 -0.2978 -0.4048
   39CHL1    H9 2850   2.841   5.248   7.222 -0.4451  1.8811  1.0662
   39CHL1   C10 2851   2.978   5.276   7.050  0.5555  0.2694  0.3926
   39CHL1   C19 2852   3.130   5.254   7.014 -0.1121  0.0263 -0.4607
   39CHL1  H19A 2853   3.184   5.324   7.080  1.8060 -0.9549 -0.9363
   39CHL1  H19B 2854   3.164   5.150   7.033 -0.1405  0.1403  0.2098
   39CHL1  H19C 2855   3.156   5.269   6.907  1.5795 -0.5244 -0.1442
   39CHL1    C1 2856   2.893   5.160   6.981 -0.6782 -0.0379  0.2341
   39CHL1   H1A 2857   2.944   5.061   6.978  0.7481  0.7152 -0.7763
   39CHL1   H1B 2858   2.789   5.143   7.016 -0.4632  1.0736  1.4642
   39CHL1    C2 2859   2.871   5.177   6.826 -0.1773 -0.5057 -0.5717
   39CHL1   H2A 2860   2.802   5.103   6.780 -1.2612  1.1548 -1.6660
   39CHL1   H2B 2861   2.972   5.160   6.782  0.7892  0.3079  1.2934
   39CHL1   C20 2862   3.082   5.242   7.766 -0.1800 -0.2472 -0.1550
   39CHL1   H20 2863   3.170   5.305   7.791 -0.0565 -0.6073  0.3341
   39CHL1   C21 2864   3.115   5.098   7.744 -0.2524 -0.0228 -0.4330
   39CHL1  H21A 2865   3.023   5.036   7.734 -0.9007  0.9376 -0.5120
   39CHL1  H21B 2866   3.162   5.054   7.835 -0.9849  4.2440  2.1713
   39CHL1  H21C 2867   3.186   5.077   7.661 -0.5236  2.6316 -1.3925
   39CHL1   C22 2868   2.990   5.247   7.892  0.1467 -0.7244 -0.2137
   39CHL1  H22A 2869   2.965   5.355   7.899  2.4680 -0.2404  1.1768
   39CHL1  H22B 2870   2.897   5.189   7.873 -0.8420  0.0828  1.9760
   39CHL1   C23 2871   3.052   5.192   8.028  0.0981 -0.4553  0.0687
   39CHL1  H23A 2872   3.077   5.084   8.024 -1.2091 -0.7435 -0.6295
   39CHL1  H23B 2873   3.141   5.253   8.055 -0.3620 -0.0394  0.6720
   39CHL1   C24 2874   2.950   5.198   8.143 -0.0794 -0.1231  0.2538
   39CHL1  H24A 2875   2.934   5.302   8.177  1.0291 -0.8672  3.2633
   39CHL1  H24B 2876   2.856   5.159   8.099 -0.0815  1.9656 -1.6658
   39CHL1   C25 2877   2.979   5.107   8.264 -0.5300  0.0014 -0.4502
   39CHL1   H25 2878   3.003   5.008   8.219 -0.9114 -0.6773  0.7972
   39CHL1   C26 2879   3.100   5.164   8.342  0.0677 -0.2088 -0.4570
   39CHL1  H26A 2880   3.084   5.270   8.369 -2.2534 -0.8559  0.8344
   39CHL1  H26B 2881   3.131   5.113   8.436 -0.5642  0.5348  0.1669
   39CHL1  H26C 2882   3.189   5.162   8.276  0.1492  1.4517 -0.4209
   39CHL1   C27 2883   2.852   5.082   8.348  0.5126 -0.6067  0.0137
   39CHL1  H27A 2884   2.879   5.015   8.432  1.8893  1.5965  1.4131
   39CHL1  H27B 2885   2.817   5.178   8.393  0.5818 -1.0692  1.0614
   39CHL1  H27C 2886   2.770   5.033   8.292  1.4446 -1.5453 -0.5434
   40CHL1    C3 2887   6.273   3.746   6.818 -0.6428 -0.2348 -0.2223
   40CHL1    H3 2888   6.163   3.732   6.810 -0.5153 -0.5578 -1.6632
   40CHL1    O3 2889   6.320   3.741   6.684  0.3903  0.1806 -0.0319
   40CHL1   H3' 2890   6.387   3.807   6.667  0.4168  0.2071  0.1725
   40CHL1    C4 2891   6.323   3.879   6.881  0.1003 -0.3555 -0.4509
   40CHL1   H4A 2892   6.431   3.899   6.865 -0.3832  1.8186 -1.1859
   40CHL1   H4B 2893   6.270   3.965   6.834  0.6612 -0.1061 -0.6296
   40CHL1    C5 2894   6.301   3.879   7.036 -0.5881 -0.0926 -0.1069
   40CHL1    C6 2895   6.219   3.968   7.093 -0.5521 -0.3496  0.9866
   40CHL1    H6 2896   6.171   4.049   7.037  0.3544 -1.0655 -0.8777
   40CHL1    C7 2897   6.181   3.967   7.241 -0.1506 -0.3592  0.3484
   40CHL1   H7A 2898   6.176   4.064   7.294 -0.6921 -0.7544  1.0320
   40CHL1   H7B 2899   6.089   3.908   7.262 -1.1964  0.2625 -2.2687
   40CHL1    C8 2900   6.283   3.878   7.330 -0.0762 -0.0195  0.0483
   40CHL1    H8 2901   6.380   3.931   7.339  0.7672 -1.3998 -0.6890
   40CHL1   C14 2902   6.227   3.859   7.466 -0.2797  0.4329 -0.2921
   40CHL1   H14 2903   6.138   3.794   7.453 -0.1282 -0.1915  1.6035
   40CHL1   C15 2904   6.188   3.982   7.550  0.6853  0.2018 -0.7816
   40CHL1  H15A 2905   6.258   4.063   7.522  3.7124 -2.5525 -1.5359
   40CHL1  H15B 2906   6.090   4.008   7.504  1.2090  1.2301 -1.3154
   40CHL1   C16 2907   6.181   3.934   7.691  0.0648 -0.1790 -0.4123
   40CHL1  H16A 2908   6.241   4.007   7.749  0.5988  0.2354 -1.4779
   40CHL1  H16B 2909   6.079   3.934   7.736 -0.0255  1.9347 -0.5786
   40CHL1   C17 2910   6.239   3.792   7.692  0.1463  0.3395 -0.8043
   40CHL1   H17 2911   6.148   3.730   7.677 -0.3460  0.9519 -0.4053
   40CHL1   C13 2912   6.320   3.781   7.560  0.0135  0.2250  0.7992
   40CHL1   C18 2913   6.454   3.862   7.584  0.1656 -0.4064 -0.6123
   40CHL1  H18A 2914   6.516   3.791   7.642  0.5770 -0.7653 -1.4783
   40CHL1  H18B 2915   6.512   3.887   7.493  0.9357 -0.0260 -0.0189
   40CHL1  H18C 2916   6.438   3.948   7.652  2.9765 -0.2973 -0.0401
   40CHL1   C12 2917   6.343   3.644   7.495  0.4790  0.1182 -0.4073
   40CHL1  H12A 2918   6.414   3.580   7.552  0.8392  1.7243  1.0110
   40CHL1  H12B 2919   6.246   3.597   7.472  1.7297 -2.7095 -0.0241
   40CHL1   C11 2920   6.404   3.660   7.351  0.0671 -0.0339  0.0036
   40CHL1  H11A 2921   6.495   3.723   7.357  1.3485 -1.9451  1.1020
   40CHL1  H11B 2922   6.434   3.558   7.320 -0.3006  0.1991 -1.1373
   40CHL1    C9 2923   6.307   3.743   7.264  1.0217 -0.6197 -0.1540
   40CHL1    H9 2924   6.207   3.693   7.259  0.2537  0.5919  2.2359
   40CHL1   C10 2925   6.354   3.754   7.109 -0.4073  0.1089  0.2559
   40CHL1   C19 2926   6.507   3.771   7.108  0.1393  0.0133  0.4649
   40CHL1  H19A 2927   6.556   3.680   7.149 -1.1192 -1.3345 -0.9364
   40CHL1  H19B 2928   6.538   3.768   7.001  0.8685 -0.5056  0.6838
   40CHL1  H19C 2929   6.544   3.866   7.152  3.3530 -1.7065  1.6128
   40CHL1    C1 2930   6.311   3.625   7.037  0.0431 -0.3703 -0.1522
   40CHL1   H1A 2931   6.353   3.543   7.100  0.9696 -0.4034 -0.8003
   40CHL1   H1B 2932   6.202   3.611   7.050 -0.3427  0.9164 -1.8562
   40CHL1    C2 2933   6.336   3.626   6.890  0.2020  0.6057  0.4996
   40CHL1   H2A 2934   6.307   3.534   6.836 -2.2282  1.1223  0.8754
   40CHL1   H2B 2935   6.446   3.622   6.872  0.4483  1.4055  1.7522
   40CHL1   C20 2936   6.310   3.760   7.827  0.6853 -0.0379  0.0427
   40CHL1   H20 2937   6.400   3.822   7.849  0.6771  0.2053 -0.6226
   40CHL1   C21 2938   6.365   3.620   7.820  0.4938 -0.4930 -0.3779
   40CHL1  H21A 2939   6.393   3.585   7.922 -1.1871 -0.0171  0.2654
   40CHL1  H21B 2940   6.454   3.603   7.756  0.7713 -0.8400  0.0975
   40CHL1  H21C 2941   6.277   3.563   7.783 -1.1221  2.2859 -0.9908
   40CHL1   C22 2942   6.209   3.766   7.952 -0.4262  0.1656  0.5465
   40CHL1  H22A 2943   6.168   3.868   7.962 -0.4209  0.2376 -0.1154
   40CHL1  H22B 2944   6.126   3.694   7.936  0.5648 -0.6353 -1.1660
   40CHL1   C23 2945   6.261   3.718   8.089 -0.1020  0.3667  0.3650
   40CHL1  H23A 2946   6.296   3.614   8.105 -0.0085  0.1475 -1.2547
   40CHL1  H23B 2947   6.358   3.770   8.106 -0.7077  0.6550  3.2926
   40CHL1   C24 2948   6.156   3.747   8.205 -0.0336 -0.5397 -0.4283
   40CHL1  H24A 2949   6.118   3.847   8.179 -2.2215 -1.6671 -1.6693
   40CHL1  H24B 2950   6.071   3.678   8.224 -0.2368  0.0606  0.8756
   40CHL1   C25 2951   6.221   3.781   8.342  0.5306 -0.0495 -0.2448
   40CHL1   H25 2952   6.280   3.875   8.335 -0.5834  0.6391 -0.4568
   40CHL1   C26 2953   6.102   3.819   8.436 -0.2987 -0.5107 -0.0718
   40CHL1  H26A 2954   6.018   3.746   8.442 -3.4693  3.1130  2.7813
   40CHL1  H26B 2955   6.131   3.855   8.537 -1.1071  0.4054 -0.1505
   40CHL1  H26C 2956   6.056   3.906   8.384  0.1175  0.1351  0.6234
   40CHL1   C27 2957   6.294   3.662   8.401  0.0767  0.1350  0.7058
   40CHL1  H27A 2958   6.376   3.626   8.334 -1.1023 -2.2419  0.4885
   40CHL1  H27B 2959   6.319   3.684   8.507  0.2073 -0.9270  0.8981
   40CHL1  H27C 2960   6.216   3.584   8.414 -0.1061  0.0357 -0.8806
   41CHL1    C3 2961   0.204   3.786   7.053 -0.1875  0.7323  0.5910
   41CHL1    H3 2962   0.311   3.815   7.050 -0.2680  1.2832  2.3236
   41CHL1    O3 2963   0.171   3.727   6.925  0.4280  0.3325 -0.1468
   41CHL1   H3' 2964   0.215   3.785   6.863  1.4366  2.8546  2.8309
   41CHL1    C4 2965   0.184   3.679   7.156  0.6610  0.0816  0.4519
   41CHL1   H4A 2966   0.087   3.630   7.135  3.0121 -3.6487 -2.2444
   41CHL1   H4B 2967   0.252   3.594   7.133 -0.8238 -0.9798 -0.0555
   41CHL1    C5 2968   0.205   3.741   7.293  0.3547  0.1064 -0.2730
   41CHL1    C6 2969   0.292   3.688   7.380  1.0732  0.4068  0.5581
   41CHL1    H6 2970   0.333   3.588   7.359 -3.1426 -1.7353  1.8071
   41CHL1    C7 2971   0.318   3.744   7.513  0.8794 -0.0889 -0.2003
   41CHL1   H7A 2972   0.347   3.665   7.585  1.8934  1.2969  0.9419
   41CHL1   H7B 2973   0.414   3.800   7.505  1.5172 -1.0244  0.8767
   41CHL1    C8 2974   0.205   3.838   7.571  0.8379 -0.5439 -0.4369
   41CHL1    H8 2975   0.120   3.772   7.596  0.8167  0.2754  1.7515
   41CHL1   C14 2976   0.243   3.906   7.704 -0.0789 -0.4256 -0.6068
   41CHL1   H14 2977   0.325   3.976   7.678 -0.1847 -0.8753 -2.2499
   41CHL1   C15 2978   0.304   3.820   7.814 -1.1582  0.3712 -0.0303
   41CHL1  H15A 2979   0.232   3.736   7.822  0.0316 -0.6939 -0.3436
   41CHL1  H15B 2980   0.405   3.776   7.797 -0.6634  0.9355  1.3424
   41CHL1   C16 2981   0.298   3.912   7.933  0.1703 -0.2658 -0.8526
   41CHL1  H16A 2982   0.260   3.868   8.027 -0.2581  1.0488 -0.4130
   41CHL1  H16B 2983   0.401   3.949   7.953  0.4001 -1.3913  0.0974
   41CHL1   C17 2984   0.208   4.034   7.896 -0.2369  0.0845 -0.8977
   41CHL1   H17 2985   0.269   4.120   7.861  0.4937 -0.2439 -0.4440
   41CHL1   C13 2986   0.133   3.986   7.772 -0.1212 -0.4284  0.0647
   41CHL1   C18 2987   0.018   3.898   7.829  0.0313 -0.5318  0.1358
   41CHL1  H18A 2988  -0.029   3.839   7.748 -1.2714  0.1497  0.3791
   41CHL1  H18B 2989   0.040   3.826   7.910  1.5043 -0.7767 -0.4795
   41CHL1  H18C 2990  -0.066   3.966   7.855  0.1152  0.2868 -1.6427
   41CHL1   C12 2991   0.091   4.091   7.664  0.3034  0.7116  0.0556
   41CHL1  H12A 2992   0.006   4.156   7.694 -1.7453 -0.4727 -2.9898
   41CHL1  H12B 2993   0.173   4.164   7.651 -0.1420  1.4176  1.0750
   41CHL1   C11 2994   0.056   4.032   7.523  0.5424 -0.0469  0.1411
   41CHL1  H11A 2995  -0.037   3.974   7.536  0.0096  0.3545 -1.7078
   41CHL1  H11B 2996   0.031   4.117   7.455 -0.6129  0.2402  0.9268
   41CHL1    C9 2997   0.163   3.939   7.463 -0.1977 -0.1340  0.3805
   41CHL1    H9 2998   0.247   4.011   7.450 -0.1642  0.2509  2.4784
   41CHL1   C10 2999   0.120   3.870   7.332 -0.1852 -0.2639  0.1816
   41CHL1   C19 3000  -0.028   3.819   7.343 -0.0210  0.1578 -0.1861
   41CHL1  H19A 3001  -0.055   3.745   7.265 -0.6705  1.4942 -1.2444
   41CHL1  H19B 3002  -0.046   3.765   7.438 -1.6899  1.6323  0.3646
   41CHL1  H19C 3003  -0.090   3.911   7.350  1.0574  0.8516  0.4857
   41CHL1    C1 3004   0.140   3.975   7.212  0.5747  0.2915 -0.0740
   41CHL1   H1A 3005   0.081   4.068   7.226  1.2658  0.2696  3.2812
   41CHL1   H1B 3006   0.244   4.012   7.205  0.5546  0.7023  1.6400
   41CHL1    C2 3007   0.116   3.908   7.075 -0.3081  0.0286 -0.1447
   41CHL1   H2A 3008   0.144   3.987   7.002  0.3348 -0.8293 -0.8516
   41CHL1   H2B 3009   0.010   3.875   7.070 -0.5753  0.4346  2.2795
   41CHL1   C20 3010   0.133   4.104   8.013  0.0401  0.3284  0.2778
   41CHL1   H20 3011   0.070   4.030   8.067 -1.3566  2.1399  1.1891
   41CHL1   C21 3012   0.046   4.217   7.957 -0.1461  0.0406 -0.6473
   41CHL1  H21A 3013   0.102   4.285   7.889 -0.3478  0.3679 -0.4868
   41CHL1  H21B 3014   0.007   4.274   8.044 -1.7130  1.8616 -2.5039
   41CHL1  H21C 3015  -0.049   4.193   7.906 -1.1615 -1.1705  1.7282
   41CHL1   C22 3016   0.233   4.168   8.121  0.2809  0.1068 -0.5946
   41CHL1  H22A 3017   0.321   4.102   8.136 -0.6516 -1.2060 -0.7990
   41CHL1  H22B 3018   0.266   4.266   8.078  0.8932  0.1885  0.0550
   41CHL1   C23 3019   0.162   4.188   8.261 -0.0641 -0.8197  0.2075
   41CHL1  H23A 3020   0.059   4.227   8.249  0.4616  0.3216 -0.7002
   41CHL1  H23B 3021   0.152   4.087   8.307 -1.8107 -1.2085 -0.9835
   41CHL1   C24 3022   0.241   4.279   8.348 -0.5202  0.2586 -0.1667
   41CHL1  H24A 3023   0.345   4.240   8.354  0.7555  3.6671  0.8113
   41CHL1  H24B 3024   0.241   4.382   8.307  5.1804  1.1861  1.6563
   41CHL1   C25 3025   0.197   4.287   8.495 -0.3616 -0.2838  0.1931
   41CHL1   H25 3026   0.218   4.190   8.544  0.6768 -0.9477 -1.5011
   41CHL1   C26 3027   0.297   4.381   8.579 -0.2619 -0.9432 -0.1335
   41CHL1  H26A 3028   0.246   4.478   8.601 -2.2327 -2.4115  1.9646
   41CHL1  H26B 3029   0.304   4.340   8.682  1.5877  2.7951  1.3122
   41CHL1  H26C 3030   0.396   4.393   8.530 -0.0250  0.5451  0.6823
   41CHL1   C27 3031   0.055   4.330   8.517  0.7386  1.1980 -0.3600
   41CHL1  H27A 3032  -0.028   4.278   8.465  0.0273  0.2069  1.6995
   41CHL1  H27B 3033   0.041   4.338   8.627  1.0461 -1.6593 -0.0803
   41CHL1  H27C 3034   0.039   4.436   8.489 -1.1948  0.8457 -0.6347
   42CHL1    C3 3035   1.045   1.586   6.969  0.1915  0.3636 -0.1067
   42CHL1    H3 3036   1.149   1.601   7.005  0.4133 -1.1321 -0.1032
   42CHL1    O3 3037   1.047   1.551   6.832 -0.1948 -0.1621  0.1238
   42CHL1   H3' 3038   1.070   1.458   6.835  1.5221  0.2445  0.2683
   42CHL1    C4 3039   0.975   1.479   7.054  0.0411 -0.3191 -0.2335
   42CHL1   H4A 3040   0.877   1.443   7.017 -0.6047  1.2202 -0.0630
   42CHL1   H4B 3041   1.028   1.382   7.059 -2.3603 -1.7200 -1.4711
   42CHL1    C5 3042   0.948   1.530   7.194  0.4532 -0.4730  0.4495
   42CHL1    C6 3043   0.988   1.465   7.300  0.3892 -0.4870 -0.0512
   42CHL1    H6 3044   1.045   1.373   7.279  1.3925  0.3988 -1.3030
   42CHL1    C7 3045   0.975   1.506   7.444  0.1033  0.6023 -0.2254
   42CHL1   H7A 3046   0.954   1.415   7.504 -1.8782  0.7976 -0.5679
   42CHL1   H7B 3047   1.076   1.546   7.468  0.3170  0.9268 -1.6221
   42CHL1    C8 3048   0.861   1.615   7.466 -0.6225  0.1284  0.6055
   42CHL1    H8 3049   0.770   1.552   7.450 -0.1753 -0.2507 -0.5365
   42CHL1   C14 3050   0.873   1.674   7.598  0.0749 -0.0189 -0.0602
   42CHL1   H14 3051   0.968   1.732   7.598  1.2932 -1.8743 -3.5437
   42CHL1   C15 3052   0.884   1.581   7.721 -0.5735  0.8083 -0.7500
   42CHL1  H15A 3053   0.803   1.508   7.700  0.9017 -0.6827 -1.2796
   42CHL1  H15B 3054   0.983   1.532   7.710 -1.0825 -0.8811  1.9285
   42CHL1   C16 3055   0.844   1.669   7.842  0.0099  0.2426 -0.0393
   42CHL1  H16A 3056   0.749   1.634   7.888 -0.4057  0.0953 -0.9913
   42CHL1  H16B 3057   0.920   1.681   7.921 -0.6880  0.9462  0.5305
   42CHL1   C17 3058   0.800   1.809   7.783  0.4323 -0.2835  0.0541
   42CHL1   H17 3059   0.891   1.872   7.788  0.0984  0.2205 -0.2276
   42CHL1   C13 3060   0.775   1.784   7.630  0.1632  0.1000 -0.4012
   42CHL1   C18 3061   0.632   1.727   7.615 -0.0720  0.2353 -0.4282
   42CHL1  H18A 3062   0.625   1.641   7.685  0.2487 -0.6109 -1.4196
   42CHL1  H18B 3063   0.552   1.801   7.636 -0.1172 -0.8227  3.5209
   42CHL1  H18C 3064   0.612   1.699   7.510  0.4625  0.5754 -0.6191
   42CHL1   C12 3065   0.800   1.902   7.533  0.0863 -0.2465  0.0241
   42CHL1  H12A 3066   0.723   1.982   7.537 -1.4560 -1.7753  1.5450
   42CHL1  H12B 3067   0.898   1.955   7.547  0.0612 -0.6408  1.8972
   42CHL1   C11 3068   0.788   1.851   7.384 -0.2398 -0.2028  0.0780
   42CHL1  H11A 3069   0.685   1.822   7.353 -0.2761 -1.7320  1.5549
   42CHL1  H11B 3070   0.811   1.925   7.305 -1.4494 -1.8817 -1.9193
   42CHL1    C9 3071   0.873   1.720   7.358 -0.2372  0.1674  0.2931
   42CHL1    H9 3072   0.976   1.759   7.375 -0.1034  0.5756 -1.3722
   42CHL1   C10 3073   0.872   1.668   7.213  0.1167  0.6135  0.0129
   42CHL1   C19 3074   0.721   1.635   7.178 -0.2633  0.2923 -0.2043
   42CHL1  H19A 3075   0.680   1.570   7.258 -0.7109  1.1751  0.2905
   42CHL1  H19B 3076   0.679   1.738   7.175  0.6187  0.6859  0.6697
   42CHL1  H19C 3077   0.721   1.583   7.080 -1.9411 -1.3734  0.6655
   42CHL1    C1 3078   0.935   1.771   7.114  0.5791 -0.0113  1.0499
   42CHL1   H1A 3079   0.870   1.861   7.110  0.0255 -0.4796 -1.1916
   42CHL1   H1B 3080   1.036   1.790   7.157  0.5489  0.7272  0.8079
   42CHL1    C2 3081   0.964   1.713   6.971  0.1127 -0.1910 -0.1021
   42CHL1   H2A 3082   1.010   1.793   6.909 -1.4654  0.9983  0.2024
   42CHL1   H2B 3083   0.865   1.691   6.927  0.9810  0.2560 -2.3408
   42CHL1   C20 3084   0.695   1.876   7.871  0.7610 -1.0603  0.1639
   42CHL1   H20 3085   0.596   1.829   7.855  0.5172  0.2660 -2.4619
   42CHL1   C21 3086   0.683   2.021   7.822 -0.6663  0.4660 -0.5136
   42CHL1  H21A 3087   0.619   2.036   7.733 -2.9229  1.9880  1.3399
   42CHL1  H21B 3088   0.782   2.069   7.810 -0.5389  0.0636 -1.0920
   42CHL1  H21C 3089   0.635   2.081   7.902  0.9263 -1.4349  1.9444
   42CHL1   C22 3090   0.730   1.875   8.022  0.2341  0.5873 -0.9190
   42CHL1  H22A 3091   0.827   1.825   8.043 -0.7138 -0.2880  1.5952
   42CHL1  H22B 3092   0.754   1.982   8.043  1.2497  0.3454 -0.8169
   42CHL1   C23 3093   0.614   1.817   8.105  0.5365  0.5216 -0.5869
   42CHL1  H23A 3094   0.529   1.886   8.087  1.5630  2.2451  1.1489
   42CHL1  H23B 3095   0.585   1.719   8.061  0.4475  0.0996  0.4150
   42CHL1   C24 3096   0.631   1.802   8.253  0.7816  0.1972 -0.5295
   42CHL1  H24A 3097   0.551   1.732   8.285  1.2567  0.1582  0.5854
   42CHL1  H24B 3098   0.730   1.752   8.261  0.9629  0.3873 -1.4822
   42CHL1   C25 3099   0.618   1.926   8.337  0.2691  0.3931 -0.4782
   42CHL1   H25 3100   0.676   2.008   8.291  0.7682 -0.3473 -1.1863
   42CHL1   C26 3101   0.478   1.963   8.361  0.8432  0.1196 -0.7512
   42CHL1  H26A 3102   0.475   2.059   8.416  0.5711  1.1182 -2.4727
   42CHL1  H26B 3103   0.422   1.970   8.265  1.1799 -1.0098 -1.0437
   42CHL1  H26C 3104   0.432   1.882   8.422  0.8096  0.7446  0.0597
   42CHL1   C27 3105   0.689   1.900   8.481  0.3867 -0.0523 -0.0479
   42CHL1  H27A 3106   0.692   1.995   8.537 -0.2929 -0.5026  0.7619
   42CHL1  H27B 3107   0.786   1.849   8.463  1.4716  0.9135  2.7889
   42CHL1  H27C 3108   0.641   1.820   8.541 -0.0887 -0.4028 -0.8852
   43CHL1    C3 3109   1.015   5.496   6.879 -0.8197 -0.4426  1.1408
   43CHL1    H3 3110   0.964   5.593   6.894  0.4414  0.6950 -1.4834
   43CHL1    O3 3111   1.091   5.495   6.759  0.1767  0.3092 -0.7215
   43CHL1   H3' 3112   1.142   5.414   6.768  0.2160  0.3096 -0.9428
   43CHL1    C4 3113   1.115   5.471   6.994 -0.2861 -0.0826 -0.1870
   43CHL1   H4A 3114   1.180   5.387   6.962  0.5304  0.7562 -0.7871
   43CHL1   H4B 3115   1.191   5.550   7.007  0.9104 -1.1880 -0.4081
   43CHL1    C5 3116   1.047   5.446   7.124 -0.3045  0.5501  0.3761
   43CHL1    C6 3117   1.077   5.512   7.235 -0.7971  0.0457 -0.1706
   43CHL1    H6 3118   1.152   5.591   7.222  0.5168 -1.3391 -1.2894
   43CHL1    C7 3119   1.008   5.489   7.361  0.3619  0.9857 -0.6132
   43CHL1   H7A 3120   1.078   5.513   7.444 -0.3070  2.3878 -0.4475
   43CHL1   H7B 3121   0.913   5.546   7.370 -0.9759 -1.1266 -1.0878
   43CHL1    C8 3122   0.955   5.349   7.374  0.4774 -0.1474 -0.2877
   43CHL1    H8 3123   1.044   5.283   7.374  0.9240  0.4452 -1.1974
   43CHL1   C14 3124   0.876   5.337   7.495 -0.4929  0.2626  0.1165
   43CHL1   H14 3125   0.789   5.406   7.495 -1.2567 -0.6990  0.4625
   43CHL1   C15 3126   0.954   5.374   7.621  0.0837  0.7402 -0.1919
   43CHL1  H15A 3127   1.058   5.336   7.617 -0.8135 -1.7181 -3.0009
   43CHL1  H15B 3128   0.952   5.484   7.634 -0.1006  0.4628  2.3693
   43CHL1   C16 3129   0.869   5.310   7.732  0.1982 -0.2896 -0.4284
   43CHL1  H16A 3130   0.929   5.251   7.804 -0.3123 -2.1968 -1.5299
   43CHL1  H16B 3131   0.813   5.386   7.790  2.3871  0.8536  0.2528
   43CHL1   C17 3132   0.771   5.213   7.655 -0.3088  0.3242 -0.0121
   43CHL1   H17 3133   0.673   5.264   7.645 -0.1593  1.0614  1.9455
   43CHL1   C13 3134   0.826   5.195   7.512  0.0643  0.5800  0.0502
   43CHL1   C18 3135   0.946   5.096   7.526  0.2867  0.2602 -0.3333
   43CHL1  H18A 3136   1.003   5.104   7.432 -3.1310  2.8761 -2.3245
   43CHL1  H18B 3137   1.017   5.124   7.607  0.7120  1.0909 -0.9953
   43CHL1  H18C 3138   0.912   4.990   7.530 -0.5659  0.4908 -1.1100
   43CHL1   C12 3139   0.721   5.160   7.404  0.8052 -0.5147  0.3623
   43CHL1  H12A 3140   0.695   5.053   7.415  0.8250 -0.4417  1.1950
   43CHL1  H12B 3141   0.636   5.226   7.432  0.7836 -0.5682  0.4230
   43CHL1   C11 3142   0.781   5.185   7.265  0.5243 -0.5674  1.2945
   43CHL1  H11A 3143   0.844   5.095   7.246  0.1303 -0.5324 -0.2578
   43CHL1  H11B 3144   0.702   5.185   7.187  0.2253  0.1286  1.6040
   43CHL1    C9 3145   0.860   5.315   7.254 -0.6264  0.3657 -1.0135
   43CHL1    H9 3146   0.782   5.395   7.265  0.9319  1.5082  2.5675
   43CHL1   C10 3147   0.941   5.325   7.118 -0.3037 -0.5056  0.1965
   43CHL1   C19 3148   1.033   5.196   7.102 -0.5485 -0.6051  0.1744
   43CHL1  H19A 3149   0.974   5.102   7.090 -0.5957 -0.5748  0.1691
   43CHL1  H19B 3150   1.105   5.205   7.018 -2.9318 -0.8746 -1.9727
   43CHL1  H19C 3151   1.096   5.173   7.191 -0.5718 -2.4163 -0.2652
   43CHL1    C1 3152   0.841   5.350   7.004  0.6678 -1.1308  0.3641
   43CHL1   H1A 3153   0.788   5.258   6.971 -1.0152 -0.4847  1.2069
   43CHL1   H1B 3154   0.779   5.436   7.036  0.8237 -1.0120  0.3413
   43CHL1    C2 3155   0.913   5.381   6.865 -0.1711  0.5042  0.5582
   43CHL1   H2A 3156   0.838   5.409   6.789 -0.4827 -1.7688 -0.0041
   43CHL1   H2B 3157   0.968   5.285   6.851 -0.9112  0.2221 -0.4411
   43CHL1   C20 3158   0.740   5.090   7.739 -0.6621  0.3861  0.8619
   43CHL1   H20 3159   0.829   5.023   7.740 -0.8817 -0.0489 -2.7089
   43CHL1   C21 3160   0.621   5.017   7.678  0.4623 -0.3322 -0.9776
   43CHL1  H21A 3161   0.574   4.943   7.746  1.0153  1.3740  1.3404
   43CHL1  H21B 3162   0.666   4.968   7.588  1.8066  0.2202 -0.6202
   43CHL1  H21C 3163   0.538   5.088   7.659  0.0440 -0.0225  1.8834
   43CHL1   C22 3164   0.712   5.118   7.890 -0.0632 -0.4252  0.3166
   43CHL1  H22A 3165   0.681   5.022   7.937 -2.2687 -0.6663 -1.5025
   43CHL1  H22B 3166   0.794   5.164   7.948 -0.3198  0.4863 -0.0429
   43CHL1   C23 3167   0.596   5.214   7.917  0.6648 -0.0545 -0.3751
   43CHL1  H23A 3168   0.617   5.309   7.863 -2.0407  0.3268 -0.8256
   43CHL1  H23B 3169   0.503   5.170   7.877 -1.7461  2.3328  2.3514
   43CHL1   C24 3170   0.579   5.233   8.070 -0.5510  0.2081  0.0323
   43CHL1  H24A 3171   0.586   5.130   8.112  0.2849  0.4426  0.4962
   43CHL1  H24B 3172   0.656   5.306   8.104 -1.2561  2.2932 -2.7161
   43CHL1   C25 3173   0.443   5.293   8.109  0.3609 -0.2082  0.5799
   43CHL1   H25 3174   0.439   5.383   8.044  2.5633  1.4933  2.6773
   43CHL1   C26 3175   0.317   5.213   8.068 -0.5814  0.1830 -0.0839
   43CHL1  H26A 3176   0.305   5.218   7.958  0.3436  1.8132 -0.1273
   43CHL1  H26B 3177   0.313   5.109   8.107 -1.2441 -0.2043 -1.1807
   43CHL1  H26C 3178   0.233   5.273   8.108 -1.1851 -0.3423 -0.5718
   43CHL1   C27 3179   0.430   5.352   8.248 -0.4811 -1.0178 -0.7272
   43CHL1  H27A 3180   0.331   5.395   8.271  0.7676  1.1837  0.6535
   43CHL1  H27B 3181   0.445   5.269   8.321 -0.6365 -0.3774  0.0440
   43CHL1  H27C 3182   0.511   5.422   8.278 -1.1969  0.0487 -1.2723
   44CHL1    C3 3183   0.914   4.120   6.707  0.1715  0.5660 -0.0334
   44CHL1    H3 3184   0.809   4.133   6.740  0.6871  0.5511  1.6284
   44CHL1    O3 3185   0.906   4.122   6.567 -0.1868  1.2557  0.0400
   44CHL1   H3' 3186   0.999   4.141   6.553  0.3056 -0.6809  0.4348
   44CHL1    C4 3187   1.011   4.229   6.759  0.1412 -0.1589  0.3249
   44CHL1   H4A 3188   1.105   4.195   6.710 -0.3869 -0.1658 -0.7180
   44CHL1   H4B 3189   0.979   4.326   6.715  0.1621 -0.0448  0.5666
   44CHL1    C5 3190   1.024   4.231   6.910  0.0733  1.0415  0.0168
   44CHL1    C6 3191   1.010   4.340   6.976  0.7838  0.0514 -0.6441
   44CHL1    H6 3192   0.996   4.434   6.920  1.9909  1.4150  1.2799
   44CHL1    C7 3193   1.019   4.348   7.132  0.3054 -0.3184 -0.0771
   44CHL1   H7A 3194   1.085   4.434   7.156 -1.6168  1.6926 -1.8152
   44CHL1   H7B 3195   0.916   4.366   7.169  0.5031  1.6549 -0.4368
   44CHL1    C8 3196   1.083   4.225   7.198 -0.1249 -0.6530  0.5276
   44CHL1    H8 3197   1.189   4.239   7.169 -0.3600 -1.5000 -0.7733
   44CHL1   C14 3198   1.056   4.234   7.339 -0.1346  0.2827  0.5086
   44CHL1   H14 3199   0.946   4.223   7.345 -0.4616  3.2273  0.7653
   44CHL1   C15 3200   1.108   4.359   7.420 -0.5428  0.1407 -0.4159
   44CHL1  H15A 3201   1.213   4.379   7.392 -0.5148 -1.1616 -1.2937
   44CHL1  H15B 3202   1.063   4.455   7.387 -0.8418  0.4319  0.8044
   44CHL1   C16 3203   1.088   4.326   7.566 -0.3831 -0.7497  0.5380
   44CHL1  H16A 3204   1.179   4.344   7.627 -1.0351  1.5661  0.8640
   44CHL1  H16B 3205   1.012   4.393   7.611 -0.2239 -0.1267 -0.1233
   44CHL1   C17 3206   1.073   4.168   7.564  0.6510  0.1922 -0.1957
   44CHL1   H17 3207   0.965   4.148   7.578  0.6625 -0.8945 -1.4916
   44CHL1   C13 3208   1.106   4.117   7.419 -0.0671  0.3415  0.1938
   44CHL1   C18 3209   1.270   4.103   7.415 -0.0021 -0.6980  0.3734
   44CHL1  H18A 3210   1.303   4.127   7.311 -0.9759 -0.7115  0.0478
   44CHL1  H18B 3211   1.325   4.171   7.483 -0.8706  1.3979 -0.9436
   44CHL1  H18C 3212   1.283   3.995   7.436 -2.4074 -2.2645 -5.1252
   44CHL1   C12 3213   1.043   3.992   7.368 -0.0085 -0.5564  0.3517
   44CHL1  H12A 3214   1.088   3.899   7.409  1.8251  0.0100 -0.2913
   44CHL1  H12B 3215   0.935   3.990   7.391 -0.4056  1.5831 -1.1030
   44CHL1   C11 3216   1.059   3.970   7.211  0.0407 -0.3669 -0.2331
   44CHL1  H11A 3217   1.166   3.952   7.190 -0.0422  0.3980 -1.3739
   44CHL1  H11B 3218   0.999   3.881   7.181 -0.0427 -0.6503  0.7580
   44CHL1    C9 3219   1.018   4.104   7.132  0.0493  0.8803  0.2758
   44CHL1    H9 3220   0.908   4.114   7.144 -0.3139  1.9345 -3.3649
   44CHL1   C10 3221   1.047   4.093   6.980 -0.1731 -0.1930 -0.0653
   44CHL1   C19 3222   1.194   4.045   6.949  0.1570 -0.1114  0.0066
   44CHL1  H19A 3223   1.232   4.067   6.847  0.9982 -3.4547 -0.4657
   44CHL1  H19B 3224   1.252   4.101   7.026 -1.6785  0.5822  0.9134
   44CHL1  H19C 3225   1.211   3.938   6.973  1.6807  0.0233 -0.4007
   44CHL1    C1 3226   0.956   3.987   6.910  0.7255 -0.4546  0.2053
   44CHL1   H1A 3227   0.990   3.887   6.943  0.0961 -0.7213  0.0459
   44CHL1   H1B 3228   0.848   3.992   6.936  1.1507  0.2897  1.9019
   44CHL1    C2 3229   0.965   3.988   6.756  0.3068 -0.1184  0.3395
   44CHL1   H2A 3230   0.903   3.906   6.713 -0.5698  0.7529 -0.0867
   44CHL1   H2B 3231   1.065   3.953   6.723  1.1800  1.3535  1.3931
   44CHL1   C20 3232   1.134   4.093   7.686  0.7039 -0.0545 -0.1235
   44CHL1   H20 3233   1.244   4.104   7.689  0.6582  0.1521  0.9462
   44CHL1   C21 3234   1.098   3.937   7.683  0.0770 -0.3017 -0.0025
   44CHL1  H21A 3235   0.989   3.915   7.685  0.3627 -1.7905 -0.2176
   44CHL1  H21B 3236   1.147   3.882   7.766 -1.8362 -0.7408  0.8793
   44CHL1  H21C 3237   1.143   3.896   7.590  0.4949 -1.6995  0.8002
   44CHL1   C22 3238   1.080   4.151   7.824 -0.0312  1.1390  0.3284
   44CHL1  H22A 3239   1.088   4.261   7.837 -1.6033  1.4382 -0.9788
   44CHL1  H22B 3240   0.972   4.126   7.822  0.0365  0.7256  1.7236
   44CHL1   C23 3241   1.139   4.085   7.951  0.1012  0.3146 -0.0898
   44CHL1  H23A 3242   1.082   3.990   7.961  1.6492 -0.6016  0.3211
   44CHL1  H23B 3243   1.250   4.081   7.940  0.0098  0.4880 -1.1401
   44CHL1   C24 3244   1.106   4.171   8.077 -0.6467  0.1933  0.2060
   44CHL1  H24A 3245   1.172   4.260   8.076  0.3503 -0.5264  0.5777
   44CHL1  H24B 3246   0.998   4.196   8.073 -1.2241 -2.3705 -2.1355
   44CHL1   C25 3247   1.124   4.105   8.214 -0.5904  0.0570 -0.2773
   44CHL1   H25 3248   1.112   3.995   8.198  0.4759 -0.4940  2.5149
   44CHL1   C26 3249   1.271   4.108   8.270  0.4417 -0.5511 -1.0656
   44CHL1  H26A 3250   1.281   4.045   8.361  0.1426  1.3003  0.2953
   44CHL1  H26B 3251   1.340   4.073   8.191  1.9471 -0.3771  0.1463
   44CHL1  H26C 3252   1.301   4.211   8.301  1.4266 -0.9833 -0.5417
   44CHL1   C27 3253   1.033   4.159   8.314  0.4027  0.0453  0.0929
   44CHL1  H27A 3254   1.051   4.108   8.411 -1.4350 -0.4027  0.2265
   44CHL1  H27B 3255   1.035   4.270   8.324 -1.5322  0.1761 -0.7230
   44CHL1  H27C 3256   0.925   4.134   8.301 -0.0866  1.3812  1.4421
   45CHL1    C3 3257   2.380   2.272   6.725 -0.3694 -0.2236 -0.4370
   45CHL1    H3 3258   2.333   2.173   6.743 -0.1818  0.0271  1.5760
   45CHL1    O3 3259   2.421   2.285   6.590  0.1416  0.4575 -0.2069
   45CHL1   H3' 3260   2.338   2.276   6.542  0.3895  1.4066 -0.8378
   45CHL1    C4 3261   2.280   2.380   6.756  0.2464 -0.0924  0.7198
   45CHL1   H4A 3262   2.315   2.475   6.709  0.6799 -1.0298 -0.8806
   45CHL1   H4B 3263   2.192   2.370   6.688 -0.3982 -0.7344  1.6351
   45CHL1    C5 3264   2.250   2.405   6.901 -0.2403 -0.3442  0.4250
   45CHL1    C6 3265   2.121   2.400   6.945 -0.2255 -0.0206 -0.8531
   45CHL1    H6 3266   2.040   2.374   6.876 -1.5192 -0.4088  0.7842
   45CHL1    C7 3267   2.098   2.429   7.093  0.4681  0.0045 -0.8853
   45CHL1   H7A 3268   2.002   2.483   7.105  0.2683 -0.3352 -0.9448
   45CHL1   H7B 3269   2.082   2.328   7.136  1.6986  0.3026  0.2893
   45CHL1    C8 3270   2.209   2.509   7.163 -0.9794 -0.0358 -0.1601
   45CHL1    H8 3271   2.234   2.603   7.109  1.6540 -0.6393 -0.0504
   45CHL1   C14 3272   2.175   2.526   7.308  0.9158  1.1907  0.1962
   45CHL1   H14 3273   2.172   2.420   7.341  0.6867  0.3184 -2.4880
   45CHL1   C15 3274   2.043   2.598   7.342 -0.5977 -0.1951 -0.2541
   45CHL1  H15A 3275   2.023   2.687   7.279 -0.2013 -2.1694 -3.2395
   45CHL1  H15B 3276   1.960   2.526   7.325 -1.3555  0.7817 -0.8312
   45CHL1   C16 3277   2.057   2.630   7.492 -0.0570  0.4261  0.1180
   45CHL1  H16A 3278   2.047   2.739   7.512 -0.5678  0.6593 -1.3551
   45CHL1  H16B 3279   1.989   2.567   7.554  0.0826  0.5688  0.4168
   45CHL1   C17 3280   2.205   2.586   7.525 -0.1910  0.5579  0.3561
   45CHL1   H17 3281   2.205   2.478   7.551  0.4503  0.4827  0.0656
   45CHL1   C13 3282   2.281   2.594   7.393 -0.1182  0.0863  0.5522
   45CHL1   C18 3283   2.301   2.732   7.342 -0.2161 -0.7967  0.0566
   45CHL1  H18A 3284   2.373   2.778   7.412 -2.7186  2.1913  0.7848
   45CHL1  H18B 3285   2.344   2.737   7.239  1.0783  4.9832  0.6939
   45CHL1  H18C 3286   2.203   2.785   7.332  0.7610  2.1955  4.9803
   45CHL1   C12 3287   2.418   2.512   7.378  0.0468 -0.2769  0.6904
   45CHL1  H12A 3288   2.503   2.566   7.425  0.3008  0.6613 -0.8345
   45CHL1  H12B 3289   2.405   2.411   7.423 -2.4398 -0.6973 -0.8910
   45CHL1   C11 3290   2.458   2.482   7.228 -0.3700 -0.1013 -0.0369
   45CHL1  H11A 3291   2.488   2.584   7.196  0.3627 -0.3504 -0.1754
   45CHL1  H11B 3292   2.554   2.427   7.219 -0.2426 -0.0159  0.7920
   45CHL1    C9 3293   2.341   2.432   7.147  0.5333 -0.8923  0.7656
   45CHL1    H9 3294   2.324   2.329   7.186  0.7780 -0.1880  2.7773
   45CHL1   C10 3295   2.370   2.423   6.993  0.3306 -1.2604 -0.0191
   45CHL1   C19 3296   2.447   2.561   6.950 -0.0073 -0.1996  0.2789
   45CHL1  H19A 3297   2.552   2.553   6.985  1.2429  1.5547 -2.7719
   45CHL1  H19B 3298   2.454   2.575   6.840  1.2934 -0.0592  0.3695
   45CHL1  H19C 3299   2.411   2.654   7.000  1.6286  1.0179 -0.7285
   45CHL1    C1 3300   2.459   2.299   6.973 -0.4001  0.6964  0.0368
   45CHL1   H1A 3301   2.553   2.324   7.027 -0.1222 -0.0711 -0.0871
   45CHL1   H1B 3302   2.430   2.202   7.017 -0.2402 -0.3527 -2.1248
   45CHL1    C2 3303   2.499   2.290   6.828  0.2994  0.2985  0.2911
   45CHL1   H2A 3304   2.564   2.201   6.813  0.1001  0.3032 -0.6540
   45CHL1   H2B 3305   2.557   2.383   6.809  0.2167  0.3306  0.1942
   45CHL1   C20 3306   2.262   2.658   7.648  0.0481  0.3840  0.0657
   45CHL1   H20 3307   2.247   2.768   7.637 -0.8451  0.4057  1.4029
   45CHL1   C21 3308   2.417   2.632   7.664 -0.0851  0.4628  0.1759
   45CHL1  H21A 3309   2.432   2.522   7.665 -1.9437  0.1856  1.2334
   45CHL1  H21B 3310   2.448   2.687   7.755 -0.1261  0.2498  0.3195
   45CHL1  H21C 3311   2.471   2.682   7.581 -1.1477  0.8150 -0.3184
   45CHL1   C22 3312   2.194   2.618   7.777  0.3696  0.3711 -0.7569
   45CHL1  H22A 3313   2.090   2.658   7.770  0.3174  0.2874 -0.4671
   45CHL1  H22B 3314   2.180   2.508   7.787  0.7845  0.3611 -0.2386
   45CHL1   C23 3315   2.245   2.668   7.917 -0.4482  0.3361  0.2404
   45CHL1  H23A 3316   2.347   2.632   7.942 -0.5295  1.1046  1.7083
   45CHL1  H23B 3317   2.259   2.778   7.905 -1.2543  0.0412 -4.1504
   45CHL1   C24 3318   2.155   2.640   8.038 -0.9436 -0.4693  0.4522
   45CHL1  H24A 3319   2.072   2.713   8.044 -0.6317  0.0384 -1.1460
   45CHL1  H24B 3320   2.124   2.534   8.026  0.6744 -0.9298  0.1269
   45CHL1   C25 3321   2.245   2.644   8.167  0.2236 -0.0014  0.2584
   45CHL1   H25 3322   2.324   2.568   8.149  0.0733  0.1400 -0.9814
   45CHL1   C26 3323   2.317   2.776   8.189 -0.1603  0.0013  0.1296
   45CHL1  H26A 3324   2.381   2.788   8.280  1.2890  0.0787 -0.8800
   45CHL1  H26B 3325   2.391   2.792   8.108 -1.4485  0.3709 -0.9759
   45CHL1  H26C 3326   2.237   2.851   8.202 -3.1617 -2.9220 -0.7975
   45CHL1   C27 3327   2.169   2.596   8.293 -0.2512 -0.6514  0.1058
   45CHL1  H27A 3328   2.083   2.664   8.310  1.4945  1.8934 -0.9984
   45CHL1  H27B 3329   2.143   2.489   8.277 -1.2838 -0.1901 -1.5033
   45CHL1  H27C 3330   2.234   2.600   8.383  1.3365  0.4084 -1.0493
   46CHL1    C3 3331   2.071   3.828   7.040 -0.1968 -0.5659 -0.0579
   46CHL1    H3 3332   2.013   3.914   7.079  0.3798  0.2878 -1.0494
   46CHL1    O3 3333   2.077   3.856   6.901 -0.4172 -0.1963 -0.0364
   46CHL1   H3' 3334   2.040   3.777   6.862 -1.3122 -0.7800  1.9379
   46CHL1    C4 3335   2.210   3.828   7.105  0.5713  0.1824  0.0230
   46CHL1   H4A 3336   2.273   3.754   7.050 -0.4313  0.1116 -1.0597
   46CHL1   H4B 3337   2.253   3.928   7.085  3.2333 -0.9554 -0.1111
   46CHL1    C5 3338   2.188   3.806   7.256 -0.8224  0.0798  0.2566
   46CHL1    C6 3339   2.241   3.895   7.338  0.7422 -0.6062 -0.2963
   46CHL1    H6 3340   2.302   3.975   7.293 -2.1539  0.0866 -3.1384
   46CHL1    C7 3341   2.233   3.899   7.486 -0.2970  0.5935  0.2196
   46CHL1   H7A 3342   2.326   3.923   7.540 -0.5887 -1.9406  1.9153
   46CHL1   H7B 3343   2.166   3.980   7.523 -0.0914  1.5698 -1.5066
   46CHL1    C8 3344   2.178   3.766   7.543 -0.5171  0.3575  0.6097
   46CHL1    H8 3345   2.256   3.688   7.530 -1.3752 -0.3010 -0.7460
   46CHL1   C14 3346   2.115   3.790   7.677 -0.3093 -0.2952 -0.4212
   46CHL1   H14 3347   2.025   3.854   7.666 -2.4928 -3.1452  0.4175
   46CHL1   C15 3348   2.202   3.864   7.783  0.0859  0.5138 -0.1072
   46CHL1  H15A 3349   2.307   3.833   7.765  0.0720  0.0132  0.6504
   46CHL1  H15B 3350   2.196   3.975   7.781  0.4739  0.5316 -0.2946
   46CHL1   C16 3351   2.144   3.813   7.920 -0.3202  0.3474 -0.5748
   46CHL1  H16A 3352   2.220   3.763   7.984 -0.5803 -0.2334 -0.7217
   46CHL1  H16B 3353   2.096   3.897   7.975  1.7954 -0.1250  2.0970
   46CHL1   C17 3354   2.032   3.708   7.883  0.0843 -0.5566 -0.0473
   46CHL1   H17 3355   1.944   3.775   7.878  1.2322  0.9387 -0.9297
   46CHL1   C13 3356   2.067   3.659   7.745  0.4804 -0.1575 -0.4244
   46CHL1   C18 3357   2.180   3.552   7.754  0.7426 -0.2507  0.9630
   46CHL1  H18A 3358   2.149   3.454   7.796 -1.1863  0.1548  0.5443
   46CHL1  H18B 3359   2.211   3.524   7.651 -0.4391  0.5607  0.3699
   46CHL1  H18C 3360   2.268   3.584   7.813  0.8970  0.8567  0.1328
   46CHL1   C12 3361   1.944   3.604   7.659 -0.2172 -0.0084 -0.1386
   46CHL1  H12A 3362   1.914   3.502   7.690  0.5419  0.0528  0.8338
   46CHL1  H12B 3363   1.865   3.677   7.683 -1.8130 -2.0739  1.0627
   46CHL1   C11 3364   1.986   3.592   7.514 -0.4374 -0.6740  0.1203
   46CHL1  H11A 3365   2.056   3.506   7.504  0.4502  0.3132 -2.7539
   46CHL1  H11B 3366   1.899   3.575   7.449 -0.0518 -1.1468 -0.2721
   46CHL1    C9 3367   2.055   3.718   7.462  0.4965 -0.0463 -0.5014
   46CHL1    H9 3368   1.979   3.799   7.467  1.4280  0.9135 -1.4695
   46CHL1   C10 3369   2.088   3.700   7.310  0.0121  0.3031 -0.5581
   46CHL1   C19 3370   2.166   3.570   7.287  0.0541 -0.1014  0.2504
   46CHL1  H19A 3371   2.234   3.569   7.199  2.5525 -0.0903  2.1063
   46CHL1  H19B 3372   2.238   3.558   7.371 -0.8330 -1.9932  0.7642
   46CHL1  H19C 3373   2.097   3.484   7.279 -0.2456  0.0368  1.2620
   46CHL1    C1 3374   1.959   3.699   7.220 -0.6098  0.1950 -0.8605
   46CHL1   H1A 3375   1.895   3.610   7.238 -0.2953  0.3949  1.4181
   46CHL1   H1B 3376   1.913   3.796   7.249  3.6855  1.7391  1.1414
   46CHL1    C2 3377   1.984   3.710   7.073 -0.5290  0.1342 -0.4647
   46CHL1   H2A 3378   1.881   3.723   7.034 -1.0048 -0.1318  0.6859
   46CHL1   H2B 3379   2.023   3.619   7.023 -0.2689  0.9750 -1.8083
   46CHL1   C20 3380   2.010   3.604   7.995  0.7662  0.0768  0.0949
   46CHL1   H20 3381   2.108   3.565   8.030  1.2941 -0.0991 -1.5485
   46CHL1   C21 3382   1.930   3.468   7.948  0.4732  0.0560 -0.4332
   46CHL1  H21A 3383   1.972   3.410   7.863  0.7834 -1.0315  0.4479
   46CHL1  H21B 3384   1.832   3.492   7.903  0.1096 -2.7873 -1.2960
   46CHL1  H21C 3385   1.922   3.388   8.025 -3.2295  1.3500  0.6194
   46CHL1   C22 3386   1.927   3.667   8.111  0.3368  0.0364 -0.5319
   46CHL1  H22A 3387   1.980   3.760   8.138 -1.3417  0.6859  0.5647
   46CHL1  H22B 3388   1.830   3.691   8.063  1.0976 -0.9934 -2.6809
   46CHL1   C23 3389   1.900   3.596   8.244 -0.3746  0.1856  0.2135
   46CHL1  H23A 3390   1.807   3.638   8.289  0.0425  0.5578  0.7318
   46CHL1  H23B 3391   1.883   3.493   8.206 -1.8811  0.6299 -0.3653
   46CHL1   C24 3392   2.026   3.594   8.337  0.1710  0.0826  0.6376
   46CHL1  H24A 3393   2.094   3.529   8.279 -0.8342 -1.1562  0.8201
   46CHL1  H24B 3394   2.081   3.691   8.340 -0.6877  0.6198 -0.3074
   46CHL1   C25 3395   2.005   3.538   8.484 -0.9405  0.0747 -0.1776
   46CHL1   H25 3396   1.904   3.567   8.523 -1.5667 -1.3789 -0.6799
   46CHL1   C26 3397   1.998   3.381   8.492 -0.4802  0.6279 -0.4530
   46CHL1  H26A 3398   1.917   3.352   8.422  0.7087 -2.1559 -0.7346
   46CHL1  H26B 3399   2.081   3.327   8.441  0.1113 -0.8907  2.0378
   46CHL1  H26C 3400   1.972   3.346   8.594  3.6462 -1.2833  0.0394
   46CHL1   C27 3401   2.109   3.588   8.581 -0.3241 -0.5991 -0.1415
   46CHL1  H27A 3402   2.100   3.698   8.598  0.0267 -0.6721  0.5426
   46CHL1  H27B 3403   2.091   3.537   8.678  1.3177 -0.9017  0.0166
   46CHL1  H27C 3404   2.208   3.569   8.535 -0.0032  2.9371 -1.0883
   47CHL1    C3 3405   1.383   3.659   6.598 -0.1400  0.0858 -0.4000
   47CHL1    H3 3406   1.454   3.744   6.604  0.5855 -0.5630  0.1618
   47CHL1    O3 3407   1.350   3.647   6.460  0.5674 -0.2012 -0.2601
   47CHL1   H3' 3408   1.291   3.571   6.466  0.3109  0.0284  0.0924
   47CHL1    C4 3409   1.438   3.529   6.657 -0.5094  0.3311 -0.1679
   47CHL1   H4A 3410   1.374   3.439   6.650  0.8966 -0.4881 -3.2107
   47CHL1   H4B 3411   1.529   3.499   6.600  0.0795  3.1419 -0.7888
   47CHL1    C5 3412   1.453   3.543   6.804  0.2165  0.5164 -0.0860
   47CHL1    C6 3413   1.570   3.532   6.865  0.2104  0.7833 -0.2354
   47CHL1    H6 3414   1.663   3.493   6.821 -0.6539 -2.8743  0.9882
   47CHL1    C7 3415   1.594   3.528   7.013  0.4204 -0.6881 -0.1215
   47CHL1   H7A 3416   1.657   3.442   7.043  1.3772 -0.5240 -1.6582
   47CHL1   H7B 3417   1.649   3.624   7.023  1.1721 -1.0863 -0.4176
   47CHL1    C8 3418   1.454   3.532   7.098 -0.4009  0.0453 -0.6211
   47CHL1    H8 3419   1.418   3.427   7.089  1.3223 -0.5688 -0.5935
   47CHL1   C14 3420   1.482   3.574   7.237  0.2001 -0.3418 -0.2457
   47CHL1   H14 3421   1.505   3.682   7.232 -0.3371 -0.2493 -0.7563
   47CHL1   C15 3422   1.605   3.517   7.308  0.1763  0.2083 -0.5889
   47CHL1  H15A 3423   1.596   3.407   7.295 -0.2465  0.3496 -1.5591
   47CHL1  H15B 3424   1.699   3.546   7.256  0.0923 -1.3437 -1.6351
   47CHL1   C16 3425   1.586   3.561   7.453 -0.4784 -0.3134 -0.4314
   47CHL1  H16A 3426   1.615   3.482   7.526  0.0801  0.2411 -0.0442
   47CHL1  H16B 3427   1.643   3.655   7.470 -0.7024 -0.0712 -0.9802
   47CHL1   C17 3428   1.436   3.601   7.463  0.0692 -0.5320 -0.5566
   47CHL1   H17 3429   1.438   3.712   7.460 -2.7362 -0.4647 -1.7130
   47CHL1   C13 3430   1.368   3.561   7.329  0.4591 -0.1403  0.4140
   47CHL1   C18 3431   1.310   3.413   7.334  0.4117  0.2909  0.4338
   47CHL1  H18A 3432   1.280   3.379   7.232  1.9281 -2.9015  1.0106
   47CHL1  H18B 3433   1.388   3.353   7.385  0.5444 -1.8493 -2.1850
   47CHL1  H18C 3434   1.212   3.412   7.385  1.2392 -2.1554  2.0500
   47CHL1   C12 3435   1.259   3.659   7.274 -0.8889  0.2882  0.4275
   47CHL1  H12A 3436   1.162   3.662   7.329 -2.6001 -0.6022 -2.4613
   47CHL1  H12B 3437   1.309   3.757   7.281  0.8160 -0.4015 -1.4878
   47CHL1   C11 3438   1.225   3.630   7.126 -0.5286 -0.0554 -0.4220
   47CHL1  H11A 3439   1.178   3.530   7.134  0.8812 -0.8068 -1.2593
   47CHL1  H11B 3440   1.154   3.710   7.098 -0.3271  1.0893  2.2000
   47CHL1    C9 3441   1.347   3.620   7.031 -0.0987 -0.1179  0.5096
   47CHL1    H9 3442   1.402   3.716   7.021  0.1137 -0.2315  0.5910
   47CHL1   C10 3443   1.325   3.577   6.882  0.3974  0.0682 -0.6466
   47CHL1   C19 3444   1.228   3.445   6.879 -0.4119 -0.5210 -0.1728
   47CHL1  H19A 3445   1.205   3.407   6.777  1.2457 -0.1782 -0.6888
   47CHL1  H19B 3446   1.277   3.366   6.940  0.9509  0.5355  0.1257
   47CHL1  H19C 3447   1.128   3.481   6.911 -0.1321  1.4267 -1.3913
   47CHL1    C1 3448   1.254   3.697   6.815  1.1910  0.8605  0.4478
   47CHL1   H1A 3449   1.153   3.711   6.859  0.9494 -1.3104  0.6360
   47CHL1   H1B 3450   1.317   3.787   6.827  0.1574  1.5553  0.7256
   47CHL1    C2 3451   1.246   3.687   6.661 -0.0447 -0.3419  0.0569
   47CHL1   H2A 3452   1.206   3.779   6.613  0.9688  0.7957  1.3474
   47CHL1   H2B 3453   1.173   3.608   6.633  0.8237 -0.7413 -1.0983
   47CHL1   C20 3454   1.367   3.558   7.589  0.2622 -0.4828  0.2751
   47CHL1   H20 3455   1.361   3.447   7.597 -0.8512 -0.4176  0.5376
   47CHL1   C21 3456   1.226   3.623   7.592  0.3734  0.7662 -0.1462
   47CHL1  H21A 3457   1.157   3.573   7.521  2.1343  0.3043 -1.5883
   47CHL1  H21B 3458   1.247   3.731   7.574  1.4520  0.5269 -0.3911
   47CHL1  H21C 3459   1.171   3.627   7.689 -0.8368 -1.1099 -0.7321
   47CHL1   C22 3460   1.437   3.626   7.719 -0.1898  0.2045 -1.0336
   47CHL1  H22A 3461   1.548   3.626   7.718 -0.1856 -0.4435 -0.5219
   47CHL1  H22B 3462   1.418   3.735   7.707  0.5762  0.2283 -2.0893
   47CHL1   C23 3463   1.384   3.583   7.860 -0.0692  0.2924 -0.5408
   47CHL1  H23A 3464   1.273   3.594   7.859  0.0185  1.2225 -1.5327
   47CHL1  H23B 3465   1.407   3.475   7.873  0.9274  0.6056  0.2737
   47CHL1   C24 3466   1.440   3.660   7.975 -0.9629  0.0175  0.2504
   47CHL1  H24A 3467   1.549   3.639   7.979 -0.8352  0.4906 -0.5554
   47CHL1  H24B 3468   1.438   3.771   7.964  0.7238 -0.0448 -0.8184
   47CHL1   C25 3469   1.359   3.631   8.101 -0.4799 -0.2606  0.2312
   47CHL1   H25 3470   1.339   3.522   8.089 -1.5896  0.1375 -1.8896
   47CHL1   C26 3471   1.438   3.658   8.233 -0.1524 -0.4493  0.2720
   47CHL1  H26A 3472   1.402   3.604   8.323 -1.7188  4.0409  2.4587
   47CHL1  H26B 3473   1.546   3.637   8.215  0.0784  1.3521 -0.4998
   47CHL1  H26C 3474   1.453   3.765   8.260  1.7581 -0.6732  0.2225
   47CHL1   C27 3475   1.220   3.709   8.110  0.0521  0.3550 -0.0143
   47CHL1  H27A 3476   1.233   3.819   8.123 -1.0583  0.7751 -2.1120
   47CHL1  H27B 3477   1.170   3.695   8.011 -0.9140  0.1435  0.4988
   47CHL1  H27C 3478   1.155   3.665   8.189 -1.9484 -0.1754 -1.8914
   48CHL1    C3 3479   4.760   5.420   6.586 -0.0545  0.4663 -0.5450
   48CHL1    H3 3480   4.724   5.318   6.560  0.7841 -0.0792  0.4010
   48CHL1    O3 3481   4.819   5.463   6.466 -0.1285  0.3539 -0.2915
   48CHL1   H3' 3482   4.746   5.469   6.404  0.6356 -0.6091 -1.2886
   48CHL1    C4 3483   4.648   5.516   6.622 -0.1479 -0.7856  0.4877
   48CHL1   H4A 3484   4.685   5.620   6.618 -3.4204  0.3732 -3.0243
   48CHL1   H4B 3485   4.575   5.503   6.539 -0.0049 -1.2705  0.4379
   48CHL1    C5 3486   4.581   5.487   6.762 -0.1663 -0.0482  0.5391
   48CHL1    C6 3487   4.450   5.473   6.784 -0.0272 -0.5607 -0.3770
   48CHL1    H6 3488   4.369   5.480   6.710 -1.3805  2.2710  1.2756
   48CHL1    C7 3489   4.380   5.452   6.918 -1.1984 -0.5811 -1.0919
   48CHL1   H7A 3490   4.289   5.514   6.935 -1.3187 -1.3755  1.2906
   48CHL1   H7B 3491   4.354   5.345   6.928 -0.7971 -0.6867 -1.1817
   48CHL1    C8 3492   4.486   5.483   7.032 -0.8501  0.0438  0.0676
   48CHL1    H8 3493   4.501   5.593   7.027  1.4123 -0.2937 -1.0384
   48CHL1   C14 3494   4.429   5.448   7.165  0.2129  0.2397 -0.7907
   48CHL1   H14 3495   4.418   5.337   7.164  0.9254  0.1638 -0.3228
   48CHL1   C15 3496   4.284   5.484   7.195 -0.9304  0.3821 -0.6098
   48CHL1  H15A 3497   4.262   5.592   7.178 -4.9402 -0.8052 -3.8447
   48CHL1  H15B 3498   4.212   5.422   7.137 -1.8471 -0.1538  1.0787
   48CHL1   C16 3499   4.267   5.449   7.352  0.4259 -0.2570  0.3612
   48CHL1  H16A 3500   4.224   5.542   7.397  4.0681  2.1973 -0.9999
   48CHL1  H16B 3501   4.208   5.356   7.366 -0.9333  0.6636  0.8423
   48CHL1   C17 3502   4.414   5.422   7.401  0.5100  0.2616 -0.9568
   48CHL1   H17 3503   4.423   5.311   7.397 -1.8664 -0.0361  0.8567
   48CHL1   C13 3504   4.506   5.476   7.292  0.5777  0.1081  1.0512
   48CHL1   C18 3505   4.515   5.630   7.313 -0.0725  0.5467  0.5973
   48CHL1  H18A 3506   4.416   5.677   7.337  0.5132  2.4031 -0.4832
   48CHL1  H18B 3507   4.580   5.659   7.398 -1.4700 -1.4899  2.3965
   48CHL1  H18C 3508   4.554   5.683   7.223  1.1640 -2.1839 -0.5127
   48CHL1   C12 3509   4.640   5.402   7.271 -0.0502  0.2747  1.0058
   48CHL1  H12A 3510   4.713   5.431   7.350  0.2560  0.6786  0.5745
   48CHL1  H12B 3511   4.623   5.294   7.254 -0.9475  0.8758 -2.3127
   48CHL1   C11 3512   4.708   5.452   7.141  0.1717  0.1526 -0.4689
   48CHL1  H11A 3513   4.732   5.559   7.161 -1.7818  0.5795 -0.2547
   48CHL1  H11B 3514   4.803   5.400   7.119  0.5767  1.2068 -1.2851
   48CHL1    C9 3515   4.622   5.421   7.011  0.4106  0.0219 -0.0690
   48CHL1    H9 3516   4.615   5.310   7.012  0.3705  0.0195 -0.6154
   48CHL1   C10 3517   4.687   5.473   6.872 -1.1401  0.3632 -0.2607
   48CHL1   C19 3518   4.759   5.611   6.896  0.2964 -0.5825  0.7264
   48CHL1  H19A 3519   4.796   5.642   6.797 -4.0668 -0.4135 -0.9880
   48CHL1  H19B 3520   4.694   5.690   6.941  1.9336  0.9163  0.4866
   48CHL1  H19C 3521   4.841   5.592   6.968  0.5297  1.6855  1.1209
   48CHL1    C1 3522   4.791   5.368   6.827  0.3875 -0.0317 -0.0200
   48CHL1   H1A 3523   4.856   5.357   6.916  1.4399  0.2910 -0.7404
   48CHL1   H1B 3524   4.734   5.274   6.811  3.0552 -1.2627 -2.7782
   48CHL1    C2 3525   4.865   5.408   6.695 -0.2204 -0.4715  0.7274
   48CHL1   H2A 3526   4.943   5.334   6.666  0.5516  0.3590  0.6445
   48CHL1   H2B 3527   4.919   5.503   6.715  1.5763 -1.0699 -1.0486
   48CHL1   C20 3528   4.427   5.469   7.548  0.1871  0.1710 -0.6409
   48CHL1   H20 3529   4.402   5.576   7.537  0.0632  0.2872  0.6994
   48CHL1   C21 3530   4.573   5.443   7.593  0.3574  0.0594  0.6935
   48CHL1  H21A 3531   4.638   5.515   7.539  1.7557  0.9285  3.4203
   48CHL1  H21B 3532   4.583   5.335   7.566 -3.3717 -0.0342 -0.5632
   48CHL1  H21C 3533   4.588   5.459   7.702 -0.3247  0.0241  0.7935
   48CHL1   C22 3534   4.325   5.405   7.644 -0.6294 -0.7037 -0.6537
   48CHL1  H22A 3535   4.222   5.417   7.603 -0.8919 -1.0786 -0.1085
   48CHL1  H22B 3536   4.342   5.297   7.666 -1.3130 -0.8764 -0.9568
   48CHL1   C23 3537   4.326   5.474   7.780  0.4647  0.2913  0.2405
   48CHL1  H23A 3538   4.414   5.437   7.837  0.8238 -0.7201 -0.9603
   48CHL1  H23B 3539   4.335   5.585   7.774  1.9201  0.1078 -1.2128
   48CHL1   C24 3540   4.195   5.437   7.864 -1.0247  0.1706  0.0586
   48CHL1  H24A 3541   4.112   5.482   7.806 -1.8946  0.5656  1.5835
   48CHL1  H24B 3542   4.189   5.326   7.871  0.7660 -0.0062 -1.0212
   48CHL1   C25 3543   4.210   5.486   8.005 -0.2798 -0.3915 -0.0349
   48CHL1   H25 3544   4.316   5.480   8.036  0.0158  3.3982 -0.1837
   48CHL1   C26 3545   4.186   5.644   8.014 -0.2094 -0.1116 -0.2400
   48CHL1  H26A 3546   4.151   5.673   8.115 -1.2301 -0.8590 -0.3702
   48CHL1  H26B 3547   4.283   5.697   8.000 -1.4903  2.2602 -0.3616
   48CHL1  H26C 3548   4.113   5.689   7.944 -1.2355 -0.6882  0.4486
   48CHL1   C27 3549   4.113   5.413   8.105 -0.1376 -0.4868  0.2734
   48CHL1  H27A 3550   4.129   5.458   8.205  0.2932  2.3232 -1.0020
   48CHL1  H27B 3551   4.009   5.425   8.066 -0.6047  1.8753  2.1383
   48CHL1  H27C 3552   4.137   5.305   8.107  0.1683 -0.3921  2.1213
   49CHL1    C3 3553   3.474   0.467   6.685 -0.0246 -0.1949  0.1637
   49CHL1    H3 3554   3.412   0.554   6.653 -0.1488 -0.1125  0.6228
   49CHL1    O3 3555   3.518   0.388   6.574  0.0467 -0.7930  0.3286
   49CHL1   H3' 3556   3.597   0.346   6.609 -0.2801 -0.2901  1.6813
   49CHL1    C4 3557   3.606   0.507   6.747  0.1298  0.1971  0.3960
   49CHL1   H4A 3558   3.681   0.426   6.743 -0.1624 -0.1399  1.5094
   49CHL1   H4B 3559   3.658   0.585   6.687  3.1684 -1.0200  1.3022
   49CHL1    C5 3560   3.599   0.544   6.894  0.2433 -0.2431 -0.1016
   49CHL1    C6 3561   3.655   0.662   6.940  0.0314 -0.0382 -0.0683
   49CHL1    H6 3562   3.708   0.734   6.876  2.0334 -0.0855  1.4977
   49CHL1    C7 3563   3.650   0.696   7.087 -0.3360 -0.2895 -0.6828
   49CHL1   H7A 3564   3.739   0.755   7.118 -0.7509  0.6124 -1.1988
   49CHL1   H7B 3565   3.569   0.771   7.100 -0.7161 -0.6341 -1.0385
   49CHL1    C8 3566   3.617   0.577   7.183  0.0721  0.0671 -0.3766
   49CHL1    H8 3567   3.711   0.518   7.182 -1.0872 -1.8321 -2.2833
   49CHL1   C14 3568   3.594   0.624   7.331  0.1299  0.3717  0.2939
   49CHL1   H14 3569   3.501   0.685   7.330 -1.0556 -1.3848  0.9501
   49CHL1   C15 3570   3.698   0.713   7.396  0.0927  0.1461  0.0375
   49CHL1  H15A 3571   3.805   0.685   7.383  0.0609  0.8319 -1.7506
   49CHL1  H15B 3572   3.699   0.819   7.363  1.7769  1.0113  2.7054
   49CHL1   C16 3573   3.666   0.706   7.544  0.2982  0.1875 -0.2376
   49CHL1  H16A 3574   3.763   0.714   7.597  0.6924  0.6661 -1.0310
   49CHL1  H16B 3575   3.612   0.802   7.564  2.4743  1.3490  0.2223
   49CHL1   C17 3576   3.568   0.587   7.571 -0.3145 -0.2503 -0.0336
   49CHL1   H17 3577   3.469   0.638   7.572 -0.2550 -0.1426  0.5764
   49CHL1   C13 3578   3.572   0.515   7.431  0.1861 -0.0857  0.0793
   49CHL1   C18 3579   3.702   0.427   7.429 -0.0652 -0.6812 -1.3261
   49CHL1  H18A 3580   3.683   0.342   7.497 -0.7464 -0.1808 -0.8819
   49CHL1  H18B 3581   3.723   0.380   7.330 -2.0268 -4.2800 -0.1466
   49CHL1  H18C 3582   3.791   0.475   7.474 -2.2981  1.7806  0.6143
   49CHL1   C12 3583   3.456   0.431   7.384  0.3602  0.1439  0.6772
   49CHL1  H12A 3584   3.452   0.340   7.448 -0.2928  1.4504  2.5491
   49CHL1  H12B 3585   3.360   0.486   7.398 -1.1821 -1.6581 -2.4988
   49CHL1   C11 3586   3.462   0.379   7.239  0.0094 -0.6743 -0.1097
   49CHL1  H11A 3587   3.543   0.303   7.242 -1.6023 -2.4594 -0.8044
   49CHL1  H11B 3588   3.371   0.325   7.205 -0.7174  2.0115 -2.6528
   49CHL1    C9 3589   3.500   0.491   7.130  0.3620 -0.2155  0.1696
   49CHL1    H9 3590   3.413   0.560   7.125  0.2347 -0.1648  2.6003
   49CHL1   C10 3591   3.517   0.445   6.986 -0.7655 -0.4768 -0.3515
   49CHL1   C19 3592   3.587   0.310   6.999  0.6380  0.0194 -0.5006
   49CHL1  H19A 3593   3.619   0.260   6.904  0.3510  1.4290 -1.3604
   49CHL1  H19B 3594   3.675   0.306   7.067 -1.1636  0.1555  1.8834
   49CHL1  H19C 3595   3.514   0.233   7.033  0.8495 -0.4141 -1.0005
   49CHL1    C1 3596   3.378   0.446   6.918  0.6034  0.1753  0.4295
   49CHL1   H1A 3597   3.310   0.384   6.980  1.3572  0.2393  1.3302
   49CHL1   H1B 3598   3.334   0.548   6.916  0.0253 -0.0689  0.8559
   49CHL1    C2 3599   3.385   0.390   6.778 -0.4369 -0.3686  0.1457
   49CHL1   H2A 3600   3.280   0.401   6.742  0.0416  2.3706 -0.5790
   49CHL1   H2B 3601   3.415   0.284   6.769 -0.5089 -0.3246 -0.7241
   49CHL1   C20 3602   3.589   0.502   7.701  0.2757 -0.4013 -0.3484
   49CHL1   H20 3603   3.680   0.440   7.691  0.2575 -0.2245 -1.8312
   49CHL1   C21 3604   3.471   0.408   7.729  0.4021  0.0495 -0.1297
   49CHL1  H21A 3605   3.498   0.335   7.809  0.2263  0.1790  0.0470
   49CHL1  H21B 3606   3.454   0.330   7.652 -0.6603 -0.6466  0.7945
   49CHL1  H21C 3607   3.385   0.475   7.746 -0.0744  0.3697 -3.3815
   49CHL1   C22 3608   3.605   0.589   7.827 -0.3241  0.6757 -0.4107
   49CHL1  H22A 3609   3.670   0.675   7.799  1.4637 -0.2322  0.8431
   49CHL1  H22B 3610   3.504   0.627   7.853 -0.7227 -0.8631  0.3227
   49CHL1   C23 3611   3.670   0.517   7.944  0.1713 -0.1980  0.8998
   49CHL1  H23A 3612   3.615   0.427   7.977 -0.0361 -0.1525  0.6790
   49CHL1  H23B 3613   3.767   0.473   7.913 -0.4952 -1.7336  0.9477
   49CHL1   C24 3614   3.698   0.598   8.074 -0.6015 -0.6663  0.0317
   49CHL1  H24A 3615   3.764   0.537   8.140  0.1805  2.2049  1.9711
   49CHL1  H24B 3616   3.748   0.688   8.034  0.1128 -1.1885 -0.2646
   49CHL1   C25 3617   3.574   0.627   8.153  0.5417 -0.0532 -0.3521
   49CHL1   H25 3618   3.506   0.686   8.088 -0.1418 -1.1102 -0.6256
   49CHL1   C26 3619   3.499   0.496   8.205 -0.0431  0.2894  0.1494
   49CHL1  H26A 3620   3.402   0.532   8.244 -0.4807 -2.1442  1.3973
   49CHL1  H26B 3621   3.489   0.427   8.117  0.8741  1.8624 -1.2217
   49CHL1  H26C 3622   3.560   0.445   8.283  2.7068  1.2502 -1.3239
   49CHL1   C27 3623   3.614   0.722   8.268  0.3031  0.6604  1.3364
   49CHL1  H27A 3624   3.634   0.821   8.221 -0.7111 -0.3758 -1.3622
   49CHL1  H27B 3625   3.531   0.735   8.340 -2.0680 -0.6741 -1.0615
   49CHL1  H27C 3626   3.692   0.673   8.330  1.5946  1.4424  0.3588
   50CHL1    C3 3627   4.498   1.451   6.926 -0.1530 -1.0780 -0.1154
   50CHL1    H3 3628   4.584   1.518   6.951 -0.2578 -0.6874 -0.7936
   50CHL1    O3 3629   4.482   1.408   6.793  0.2816 -0.2645  0.2711
   50CHL1   H3' 3630   4.456   1.492   6.756 -1.0935 -0.0041  1.7449
   50CHL1    C4 3631   4.528   1.327   7.011  0.3445  0.1037  0.7903
   50CHL1   H4A 3632   4.459   1.244   6.986  2.6780 -1.7873  0.5228
   50CHL1   H4B 3633   4.628   1.295   6.976 -0.3584 -0.7493 -0.4400
   50CHL1    C5 3634   4.526   1.348   7.159 -0.1835  0.2452 -0.8548
   50CHL1    C6 3635   4.630   1.314   7.239  0.1911  0.0760 -0.2030
   50CHL1    H6 3636   4.722   1.271   7.197  1.5482 -1.6489  4.2265
   50CHL1    C7 3637   4.639   1.324   7.385  0.5305 -0.4985  0.1459
   50CHL1   H7A 3638   4.663   1.225   7.430 -1.1647  0.8449  4.2932
   50CHL1   H7B 3639   4.713   1.405   7.406 -0.2527  0.0457  0.8325
   50CHL1    C8 3640   4.510   1.364   7.452  0.6173  0.6775  0.0017
   50CHL1    H8 3641   4.454   1.270   7.467  0.8127  0.5416 -0.1130
   50CHL1   C14 3642   4.538   1.436   7.585 -0.2253  0.1270  0.5460
   50CHL1   H14 3643   4.587   1.528   7.546  1.8112 -0.8460  0.7162
   50CHL1   C15 3644   4.639   1.372   7.683 -0.8556 -0.2937  0.3671
   50CHL1  H15A 3645   4.626   1.263   7.704 -2.4297 -0.2588 -0.3703
   50CHL1  H15B 3646   4.739   1.395   7.642 -0.3542 -1.2088  1.0642
   50CHL1   C16 3647   4.614   1.462   7.809  0.0126 -0.1194  0.1376
   50CHL1  H16A 3648   4.585   1.391   7.889  0.1682 -1.6883 -1.1764
   50CHL1  H16B 3649   4.698   1.523   7.848  0.8090 -0.5368 -0.9053
   50CHL1   C17 3650   4.489   1.550   7.786 -0.4262  0.0052  0.0757
   50CHL1   H17 3651   4.539   1.634   7.733  2.1945  0.0947  2.5603
   50CHL1   C13 3652   4.419   1.474   7.670  0.6030 -0.1340  0.3030
   50CHL1   C18 3653   4.347   1.344   7.714 -0.1067 -0.2867 -0.8386
   50CHL1  H18A 3654   4.294   1.297   7.628 -2.2706  0.6431 -0.0582
   50CHL1  H18B 3655   4.403   1.276   7.781  1.0184 -0.5414 -2.0124
   50CHL1  H18C 3656   4.270   1.379   7.786 -1.8380 -0.9951 -2.2810
   50CHL1   C12 3657   4.325   1.561   7.581  0.3431  0.5680  0.2427
   50CHL1  H12A 3658   4.223   1.562   7.625 -0.3933  2.9477 -1.3884
   50CHL1  H12B 3659   4.364   1.665   7.582  1.0427  0.3014  1.3421
   50CHL1   C11 3660   4.301   1.499   7.445  0.1206  0.5757  0.0311
   50CHL1  H11A 3661   4.225   1.417   7.449  0.6972  0.0808  0.8277
   50CHL1  H11B 3662   4.242   1.573   7.387 -1.7014  1.3049  2.7202
   50CHL1    C9 3663   4.426   1.462   7.364 -0.2695 -0.5346 -0.0906
   50CHL1    H9 3664   4.482   1.558   7.361 -2.8983  1.0904  1.3615
   50CHL1   C10 3665   4.402   1.419   7.213  0.8662 -0.2070  0.2812
   50CHL1   C19 3666   4.280   1.319   7.214  0.0321 -0.2967 -0.0165
   50CHL1  H19A 3667   4.187   1.363   7.255  0.0865 -1.3415  1.2689
   50CHL1  H19B 3668   4.259   1.305   7.106  2.0790  0.3865 -0.5331
   50CHL1  H19C 3669   4.304   1.227   7.271  0.3638  0.3178  0.8498
   50CHL1    C1 3670   4.351   1.543   7.126  0.0246 -0.1923 -0.0357
   50CHL1   H1A 3671   4.250   1.581   7.151  0.7441  2.0089 -0.4160
   50CHL1   H1B 3672   4.418   1.630   7.145  0.0754 -0.6595  2.1190
   50CHL1    C2 3673   4.361   1.515   6.973 -0.5126  0.1527  0.6327
   50CHL1   H2A 3674   4.336   1.608   6.917 -0.8870 -0.4005 -0.1268
   50CHL1   H2B 3675   4.282   1.443   6.943  0.4125 -0.9283  0.7379
   50CHL1   C20 3676   4.427   1.582   7.916  0.4596 -0.6515  0.5639
   50CHL1   H20 3677   4.388   1.484   7.952  1.8445 -1.5094 -0.2166
   50CHL1   C21 3678   4.297   1.669   7.894  0.6515 -0.2331 -0.1963
   50CHL1  H21A 3679   4.335   1.764   7.852  1.1246  0.6048  2.0769
   50CHL1  H21B 3680   4.240   1.685   7.989  0.5017  2.7830 -0.7494
   50CHL1  H21C 3681   4.227   1.621   7.822  0.2068 -1.9612  1.3318
   50CHL1   C22 3682   4.520   1.664   8.008 -0.0070  0.2268  0.6155
   50CHL1  H22A 3683   4.618   1.619   8.035 -0.1664 -1.1015 -0.9830
   50CHL1  H22B 3684   4.553   1.762   7.966  0.0313  1.6583  3.8066
   50CHL1   C23 3685   4.457   1.707   8.136 -0.1131 -0.1435 -0.3046
   50CHL1  H23A 3686   4.389   1.792   8.117  1.1236  1.0996  0.7203
   50CHL1  H23B 3687   4.406   1.627   8.194  0.5810  1.0893  2.0602
   50CHL1   C24 3688   4.561   1.772   8.233  1.1422  0.4305 -0.3537
   50CHL1  H24A 3689   4.651   1.710   8.251 -0.6456 -2.0521  0.4404
   50CHL1  H24B 3690   4.598   1.861   8.178 -0.2803  1.0692 -0.3173
   50CHL1   C25 3691   4.491   1.828   8.362 -0.1720 -0.5255  0.2311
   50CHL1   H25 3692   4.447   1.738   8.411  0.9300 -0.3616  1.5763
   50CHL1   C26 3693   4.612   1.855   8.465 -0.2709 -0.0136  0.1739
   50CHL1  H26A 3694   4.665   1.941   8.418  1.9889 -1.2224  0.4426
   50CHL1  H26B 3695   4.567   1.875   8.565 -1.5937  1.2057 -0.6424
   50CHL1  H26C 3696   4.677   1.766   8.465 -0.5609 -0.2436 -1.3137
   50CHL1   C27 3697   4.391   1.941   8.331 -0.7775 -0.1642  0.0801
   50CHL1  H27A 3698   4.316   1.908   8.256  1.2864 -0.4579 -1.9062
   50CHL1  H27B 3699   4.347   1.984   8.423 -0.0468  1.0923 -0.1485
   50CHL1  H27C 3700   4.455   2.023   8.292 -0.5995 -0.7940 -0.9830
   51CHL1    C3 3701   4.107   0.518   6.768 -0.0890  0.3307 -0.2350
   51CHL1    H3 3702   4.146   0.622   6.764  1.7785 -0.3168  0.3451
   51CHL1    O3 3703   4.071   0.471   6.637  0.2813  0.9768 -0.5801
   51CHL1   H3' 3704   4.136   0.404   6.615 -0.6802 -0.3006  0.4238
   51CHL1    C4 3705   4.208   0.424   6.832  0.4898  0.1280 -0.0965
   51CHL1   H4A 3706   4.174   0.320   6.817  0.9379 -0.4937  2.8537
   51CHL1   H4B 3707   4.300   0.446   6.773 -1.0012  2.9328 -1.4873
   51CHL1    C5 3708   4.229   0.435   6.978  0.2373  0.5264  0.0164
   51CHL1    C6 3709   4.357   0.440   7.016 -0.8905 -0.0185  0.1802
   51CHL1    H6 3710   4.437   0.419   6.944 -2.0632 -1.4378 -0.7430
   51CHL1    C7 3711   4.393   0.441   7.161  0.6124 -0.3188  0.2394
   51CHL1   H7A 3712   4.468   0.362   7.181  1.3642  0.2113 -0.4645
   51CHL1   H7B 3713   4.451   0.533   7.187  0.5545  0.5803 -2.6538
   51CHL1    C8 3714   4.272   0.429   7.259  0.2542 -0.1722  0.0093
   51CHL1    H8 3715   4.250   0.320   7.268  0.5953 -0.0941  2.0029
   51CHL1   C14 3716   4.311   0.471   7.392 -0.2220  0.0574  0.6625
   51CHL1   H14 3717   4.330   0.579   7.374  1.1555 -0.4388 -0.9947
   51CHL1   C15 3718   4.438   0.420   7.448 -0.1871 -0.1979 -0.2116
   51CHL1  H15A 3719   4.443   0.311   7.427 -0.6358 -0.7198  2.2019
   51CHL1  H15B 3720   4.524   0.476   7.407 -0.8162  0.0997 -1.1513
   51CHL1   C16 3721   4.426   0.452   7.597 -1.1843  0.0988 -0.0471
   51CHL1  H16A 3722   4.432   0.365   7.665 -2.0770  0.3227  0.3262
   51CHL1  H16B 3723   4.500   0.531   7.623 -1.4726  0.4808 -0.3680
   51CHL1   C17 3724   4.289   0.502   7.620 -0.6569  0.6877 -0.1392
   51CHL1   H17 3725   4.295   0.612   7.609  0.6035  0.4568 -2.1049
   51CHL1   C13 3726   4.211   0.451   7.501 -0.9315  0.0702 -0.4901
   51CHL1   C18 3727   4.186   0.300   7.530 -0.0085 -1.1423  0.7713
   51CHL1  H18A 3728   4.280   0.241   7.529  0.5354 -0.3266  2.6553
   51CHL1  H18B 3729   4.133   0.291   7.627 -0.9369 -1.0343  0.2871
   51CHL1  H18C 3730   4.114   0.264   7.452 -0.2994  0.6823  0.1843
   51CHL1   C12 3731   4.088   0.533   7.451  0.0448 -0.0140 -0.3082
   51CHL1  H12A 3732   4.004   0.519   7.523 -1.3602  1.0185 -1.7358
   51CHL1  H12B 3733   4.119   0.640   7.454  1.7509 -0.4753 -1.1303
   51CHL1   C11 3734   4.043   0.501   7.310 -0.1600  0.3437 -0.6068
   51CHL1  H11A 3735   3.994   0.401   7.315 -2.3122  1.3967  0.0159
   51CHL1  H11B 3736   3.964   0.577   7.291 -0.9280  0.7591  3.6026
   51CHL1    C9 3737   4.148   0.503   7.206 -0.2517 -0.6418  0.9169
   51CHL1    H9 3738   4.168   0.611   7.189  2.8695 -1.3653 -0.4198
   51CHL1   C10 3739   4.111   0.450   7.076  0.1319  0.4223  0.7262
   51CHL1   C19 3740   4.053   0.306   7.085 -0.1445 -0.3453 -0.6492
   51CHL1  H19A 3741   4.019   0.263   6.989 -1.3267 -1.7851  0.4016
   51CHL1  H19B 3742   4.137   0.235   7.105  2.0225  2.2481 -0.1881
   51CHL1  H19C 3743   3.970   0.308   7.159 -1.1654  4.3246 -1.7639
   51CHL1    C1 3744   4.013   0.541   6.998  0.3233 -0.0079  0.2949
   51CHL1   H1A 3745   3.918   0.531   7.055  0.6631  2.2273  1.3009
   51CHL1   H1B 3746   4.046   0.647   7.000 -0.5698  0.2600  2.0423
   51CHL1    C2 3747   3.981   0.513   6.857  0.0102 -0.6061  1.0934
   51CHL1   H2A 3748   3.912   0.586   6.810  0.7449  1.4635  3.1855
   51CHL1   H2B 3749   3.932   0.413   6.846 -1.8262  0.5827 -2.0668
   51CHL1   C20 3750   4.240   0.466   7.763  0.1635 -0.1021  0.7217
   51CHL1   H20 3751   4.247   0.357   7.784  0.1596 -0.0411  1.0400
   51CHL1   C21 3752   4.100   0.525   7.777 -0.1875  0.8794 -0.3296
   51CHL1  H21A 3753   4.105   0.633   7.753  2.7389  0.7467 -0.5076
   51CHL1  H21B 3754   4.063   0.519   7.882 -0.3182 -2.0924 -0.4900
   51CHL1  H21C 3755   4.035   0.475   7.703 -0.1370 -0.0754  0.2549
   51CHL1   C22 3756   4.337   0.529   7.862 -0.3200  0.1655 -0.0519
   51CHL1  H22A 3757   4.438   0.490   7.837  0.7842  3.3508 -0.7143
   51CHL1  H22B 3758   4.348   0.639   7.858  0.5204  0.0860 -0.0295
   51CHL1   C23 3759   4.316   0.482   8.002  0.5136  0.1160  1.0528
   51CHL1  H23A 3760   4.211   0.504   8.030  0.4172  0.3562  0.5151
   51CHL1  H23B 3761   4.327   0.372   8.007  1.7186 -0.0136 -2.6560
   51CHL1   C24 3762   4.411   0.566   8.097 -0.0126  0.6581  0.1723
   51CHL1  H24A 3763   4.515   0.551   8.061  0.5112  1.8226  1.1708
   51CHL1  H24B 3764   4.386   0.672   8.077  0.4756  0.9481  1.0762
   51CHL1   C25 3765   4.387   0.534   8.251 -0.1029 -0.0472  0.5688
   51CHL1   H25 3766   4.277   0.529   8.261  0.0276 -1.5707  1.4315
   51CHL1   C26 3767   4.446   0.400   8.287  0.2142  0.1776 -0.0617
   51CHL1  H26A 3768   4.449   0.372   8.394  0.6779  0.1360 -0.0842
   51CHL1  H26B 3769   4.397   0.330   8.216 -0.1952  1.6751 -1.2816
   51CHL1  H26C 3770   4.553   0.402   8.258  0.9347  1.8327  2.5482
   51CHL1   C27 3771   4.436   0.640   8.342 -0.8339  0.2644 -0.0029
   51CHL1  H27A 3772   4.398   0.620   8.444 -0.4344  1.1162  0.3148
   51CHL1  H27B 3773   4.546   0.654   8.348 -0.4994 -2.4254  0.6300
   51CHL1  H27C 3774   4.383   0.735   8.321 -0.6222  0.2279 -0.7253
   52CHL1    C3 3775   5.865   1.288   6.946 -0.8135  0.7698 -0.2380
   52CHL1    H3 3776   5.883   1.182   6.972 -1.7674  0.7359  0.3149
   52CHL1    O3 3777   5.908   1.285   6.814  0.0296  0.1832  0.6846
   52CHL1   H3' 3778   6.001   1.261   6.820 -0.2860 -2.1596 -2.4356
   52CHL1    C4 3779   5.717   1.334   6.959 -0.1199  0.1257 -0.1696
   52CHL1   H4A 3780   5.718   1.439   6.923  0.8697 -0.3394 -1.5465
   52CHL1   H4B 3781   5.648   1.274   6.896  0.7816 -0.9389 -0.1745
   52CHL1    C5 3782   5.670   1.330   7.100  0.9605  0.3600  1.2485
   52CHL1    C6 3783   5.565   1.250   7.133  0.1997 -0.4178  0.0180
   52CHL1    H6 3784   5.505   1.196   7.058  0.6354 -0.1546 -0.5218
   52CHL1    C7 3785   5.508   1.247   7.273  0.1505  0.2541  0.2734
   52CHL1   H7A 3786   5.397   1.242   7.274  0.0595 -1.0015 -4.3046
   52CHL1   H7B 3787   5.538   1.148   7.315 -3.5728 -0.6330  1.0722
   52CHL1    C8 3788   5.571   1.352   7.371 -0.0300  0.2504  0.0148
   52CHL1    H8 3789   5.511   1.444   7.355  1.1924  1.0458 -0.0944
   52CHL1   C14 3790   5.551   1.314   7.514 -0.3477  0.4197 -0.2963
   52CHL1   H14 3791   5.615   1.228   7.544  0.1078  0.8426 -0.0442
   52CHL1   C15 3792   5.402   1.286   7.552  0.4981  0.9159  0.0521
   52CHL1  H15A 3793   5.330   1.345   7.490 -0.7946 -0.3567  0.3308
   52CHL1  H15B 3794   5.373   1.179   7.549  0.4527  0.8864  1.4371
   52CHL1   C16 3795   5.397   1.314   7.702 -0.3421  0.3026 -0.4465
   52CHL1  H16A 3796   5.322   1.390   7.729 -2.9032 -2.3438  0.1341
   52CHL1  H16B 3797   5.374   1.220   7.757 -0.7311  2.1056  2.5698
   52CHL1   C17 3798   5.541   1.359   7.747 -0.6402  0.4984 -0.5919
   52CHL1   H17 3799   5.600   1.265   7.760 -2.8896 -0.9542 -0.6712
   52CHL1   C13 3800   5.599   1.425   7.612 -0.4720 -0.5304  0.1949
   52CHL1   C18 3801   5.535   1.565   7.595  0.2896 -0.5393 -0.6734
   52CHL1  H18A 3802   5.575   1.597   7.496  0.7756 -0.2176 -0.3783
   52CHL1  H18B 3803   5.424   1.565   7.602  0.4264 -3.1119  2.4203
   52CHL1  H18C 3804   5.576   1.634   7.672 -1.8865 -2.2885  2.1547
   52CHL1   C12 3805   5.749   1.434   7.597  0.2921  0.5822 -0.1957
   52CHL1  H12A 3806   5.778   1.514   7.668 -0.8413 -0.2641  1.2497
   52CHL1  H12B 3807   5.801   1.342   7.629  0.1524  0.1755 -1.1206
   52CHL1   C11 3808   5.794   1.459   7.457  0.7075  0.3497  0.3004
   52CHL1  H11A 3809   5.766   1.565   7.435  1.0225  0.7600  1.8000
   52CHL1  H11B 3810   5.904   1.460   7.448  0.7053  0.4078  0.2840
   52CHL1    C9 3811   5.722   1.368   7.348 -0.3057  0.2492 -0.3164
   52CHL1    H9 3812   5.769   1.269   7.364  1.1582  0.9318 -0.2856
   52CHL1   C10 3813   5.755   1.406   7.199 -0.5649 -0.4229 -0.5095
   52CHL1   C19 3814   5.729   1.556   7.185 -0.0433 -0.3750 -0.0217
   52CHL1  H19A 3815   5.728   1.593   7.081  0.0472  0.1164  0.1514
   52CHL1  H19B 3816   5.634   1.592   7.230  0.2240  0.3315 -0.0227
   52CHL1  H19C 3817   5.814   1.611   7.230 -0.1963 -1.5156  1.7424
   52CHL1    C1 3818   5.904   1.372   7.176  0.7474 -0.7738 -0.2071
   52CHL1   H1A 3819   5.975   1.421   7.245 -1.7161  0.5274  1.4667
   52CHL1   H1B 3820   5.907   1.261   7.189  1.8618 -0.5799  1.2637
   52CHL1    C2 3821   5.951   1.379   7.027 -0.0261 -0.3636  0.0336
   52CHL1   H2A 3822   6.052   1.333   7.032 -0.1544 -0.4761  2.3947
   52CHL1   H2B 3823   5.949   1.480   6.981 -0.9091 -0.5655 -0.3822
   52CHL1   C20 3824   5.542   1.434   7.876  0.7509 -0.1989 -0.3918
   52CHL1   H20 3825   5.463   1.511   7.867  0.8114 -0.1428 -0.4405
   52CHL1   C21 3826   5.680   1.494   7.919  0.2194 -0.1033  0.1979
   52CHL1  H21A 3827   5.762   1.421   7.902  2.9951  2.4882  1.9422
   52CHL1  H21B 3828   5.676   1.500   8.030  0.7033 -0.7059  0.2489
   52CHL1  H21C 3829   5.700   1.588   7.864 -0.2226 -0.4742 -0.6102
   52CHL1   C22 3830   5.499   1.335   7.992  0.0140 -0.9721 -0.3152
   52CHL1  H22A 3831   5.408   1.284   7.953 -1.7510  0.6189  1.5993
   52CHL1  H22B 3832   5.582   1.262   8.002  0.0495 -0.5789  2.7819
   52CHL1   C23 3833   5.472   1.388   8.131  0.7455 -0.7845  0.1052
   52CHL1  H23A 3834   5.435   1.296   8.180  0.3187 -1.0792 -0.7631
   52CHL1  H23B 3835   5.569   1.412   8.180  1.9765 -1.2501 -2.0631
   52CHL1   C24 3836   5.358   1.498   8.136  0.2933  0.3231 -0.2764
   52CHL1  H24A 3837   5.376   1.575   8.058 -2.6113  1.3887  0.0091
   52CHL1  H24B 3838   5.259   1.450   8.122  1.0145 -0.7697 -1.6915
   52CHL1   C25 3839   5.356   1.576   8.269 -0.0148  0.0260 -0.5899
   52CHL1   H25 3840   5.275   1.651   8.271 -1.7533 -1.8227  1.3254
   52CHL1   C26 3841   5.321   1.482   8.385  0.6548 -0.0473 -1.2250
   52CHL1  H26A 3842   5.312   1.544   8.477  3.6029  0.4381 -1.2071
   52CHL1  H26B 3843   5.224   1.431   8.365  0.7851 -0.4207 -0.9136
   52CHL1  H26C 3844   5.389   1.394   8.393 -0.7002 -1.3469 -3.2448
   52CHL1   C27 3845   5.486   1.659   8.291  0.0038 -0.7651 -0.2330
   52CHL1  H27A 3846   5.461   1.702   8.390  0.7299 -0.8414 -0.0175
   52CHL1  H27B 3847   5.574   1.592   8.300  0.1971 -0.3317  1.1987
   52CHL1  H27C 3848   5.489   1.732   8.208 -1.0990  1.1047  1.3374
   53CHL1    C3 3849   1.951   5.468   6.961  0.2177 -0.3584  0.1418
   53CHL1    H3 3850   1.993   5.569   6.982 -0.8866  0.2042 -0.2881
   53CHL1    O3 3851   1.957   5.458   6.817  0.2054 -0.2798 -0.7177
   53CHL1   H3' 3852   1.949   5.363   6.803 -0.3245 -0.4119  0.4314
   53CHL1    C4 3853   2.040   5.361   7.025 -0.2149 -0.1928 -0.2502
   53CHL1   H4A 3854   2.005   5.260   6.995 -2.3766  0.4148  0.1608
   53CHL1   H4B 3855   2.133   5.372   6.966 -0.2500 -0.7284 -0.4118
   53CHL1    C5 3856   2.045   5.382   7.171 -0.9563 -0.1166 -0.1634
   53CHL1    C6 3857   2.159   5.420   7.238  0.0544  0.2469 -0.2496
   53CHL1    H6 3858   2.259   5.420   7.191 -0.2168  1.7454 -0.8637
   53CHL1    C7 3859   2.174   5.440   7.388  0.1900 -0.3001 -0.3687
   53CHL1   H7A 3860   2.269   5.386   7.412  0.1711 -0.9540 -1.7081
   53CHL1   H7B 3861   2.169   5.547   7.415 -2.2837 -0.5783  0.3349
   53CHL1    C8 3862   2.049   5.372   7.458  0.0939  0.7051  0.3930
   53CHL1    H8 3863   2.057   5.261   7.451  1.6440  0.8919 -1.2575
   53CHL1   C14 3864   2.046   5.418   7.608  0.5971  0.2629  0.2788
   53CHL1   H14 3865   2.034   5.529   7.610 -1.3714  0.0969 -0.9466
   53CHL1   C15 3866   2.171   5.378   7.692  0.1761 -0.2872  0.1416
   53CHL1  H15A 3867   2.214   5.278   7.673 -1.4725 -0.9475 -0.1759
   53CHL1  H15B 3868   2.254   5.447   7.667  0.6186 -0.9473 -0.2025
   53CHL1   C16 3869   2.117   5.397   7.833  0.0962  0.5237 -0.4761
   53CHL1  H16A 3870   2.158   5.305   7.879  3.1708  0.8727 -2.4114
   53CHL1  H16B 3871   2.159   5.483   7.889  0.7813 -0.8065  1.0847
   53CHL1   C17 3872   1.962   5.404   7.820  0.2511 -0.7668  0.1763
   53CHL1   H17 3873   1.945   5.513   7.832 -0.6426 -1.0798  1.9647
   53CHL1   C13 3874   1.925   5.363   7.675  0.2519 -0.3143  0.1874
   53CHL1   C18 3875   1.922   5.207   7.677 -0.4031 -0.4995 -0.0487
   53CHL1  H18A 3876   1.825   5.174   7.719 -0.6260 -0.6388 -0.6712
   53CHL1  H18B 3877   1.909   5.162   7.576  1.0501  0.8467 -0.8605
   53CHL1  H18C 3878   1.998   5.151   7.735 -0.9195 -0.7969  0.3423
   53CHL1   C12 3879   1.805   5.435   7.617  0.4746 -0.3097 -0.4270
   53CHL1  H12A 3880   1.712   5.401   7.668  1.4561  1.6034  2.8039
   53CHL1  H12B 3881   1.824   5.544   7.627 -1.9394  0.0272  0.9587
   53CHL1   C11 3882   1.786   5.396   7.469  0.3724 -0.4488  0.3318
   53CHL1  H11A 3883   1.753   5.290   7.465 -0.6976 -0.0729 -1.2158
   53CHL1  H11B 3884   1.698   5.452   7.434  0.3556 -0.0769  0.9633
   53CHL1    C9 3885   1.916   5.419   7.387 -0.2374 -0.0385 -0.1323
   53CHL1    H9 3886   1.931   5.529   7.389 -2.2607  0.2690  0.5114
   53CHL1   C10 3887   1.903   5.378   7.238  0.2053 -0.1765 -0.5242
   53CHL1   C19 3888   1.858   5.230   7.246  0.2305 -0.1928 -0.6749
   53CHL1  H19A 3889   1.923   5.173   7.315 -1.8745 -1.0053  0.6997
   53CHL1  H19B 3890   1.751   5.217   7.273  0.9253  0.7033  2.6372
   53CHL1  H19C 3891   1.868   5.187   7.144 -3.3061  0.1262 -1.2183
   53CHL1    C1 3892   1.794   5.465   7.167  0.6861  0.5421  0.0077
   53CHL1   H1A 3893   1.693   5.435   7.201  1.3102 -2.9769 -1.0714
   53CHL1   H1B 3894   1.809   5.569   7.203  0.3242  0.2726  0.9473
   53CHL1    C2 3895   1.803   5.469   7.012 -0.7158  0.9418  0.1651
   53CHL1   H2A 3896   1.757   5.557   6.963  1.6999  1.8808 -0.4579
   53CHL1   H2B 3897   1.751   5.378   6.975 -2.5717  2.0116  0.1156
   53CHL1   C20 3898   1.894   5.339   7.939 -0.6364  0.2156 -0.3803
   53CHL1   H20 3899   1.912   5.229   7.933  0.7945  0.5032 -2.0689
   53CHL1   C21 3900   1.740   5.363   7.932 -0.4151 -0.0409  0.0992
   53CHL1  H21A 3901   1.693   5.279   7.876  0.4479  0.6098 -1.6373
   53CHL1  H21B 3902   1.726   5.460   7.881  2.1855 -0.8391 -2.2960
   53CHL1  H21C 3903   1.699   5.360   8.035 -0.5145  0.9971  0.0891
   53CHL1   C22 3904   1.940   5.390   8.080 -0.3321  0.7517  0.6679
   53CHL1  H22A 3905   2.043   5.430   8.088 -0.2862  0.4655  1.5395
   53CHL1  H22B 3906   1.867   5.472   8.100 -1.0063 -0.0891  1.7113
   53CHL1   C23 3907   1.926   5.277   8.189 -0.3606  0.1634 -0.0946
   53CHL1  H23A 3908   1.830   5.222   8.179 -0.2193 -0.0533 -0.2438
   53CHL1  H23B 3909   2.014   5.211   8.176  0.8978  1.4082  1.8374
   53CHL1   C24 3910   1.931   5.327   8.333  0.6218 -0.1881  0.3861
   53CHL1  H24A 3911   2.014   5.396   8.358  1.4739 -1.2314  0.4615
   53CHL1  H24B 3912   1.832   5.369   8.362 -0.2237 -1.4906 -0.5003
   53CHL1   C25 3913   1.962   5.216   8.431 -0.0443  0.5131  0.2073
   53CHL1   H25 3914   2.068   5.194   8.408 -0.0470  1.4316 -0.7080
   53CHL1   C26 3915   1.958   5.262   8.582 -0.8955  0.6080 -0.6585
   53CHL1  H26A 3916   1.858   5.237   8.624 -1.1813  2.1755 -0.3376
   53CHL1  H26B 3917   2.024   5.200   8.646  0.1387  0.7028 -1.6342
   53CHL1  H26C 3918   2.000   5.362   8.609  1.6771 -0.5220 -0.3518
   53CHL1   C27 3919   1.882   5.089   8.408 -0.5467 -0.1781  0.6189
   53CHL1  H27A 3920   1.928   5.038   8.321  0.8397  0.0113  1.2365
   53CHL1  H27B 3921   1.898   5.027   8.499 -0.7782 -0.9384  0.1514
   53CHL1  H27C 3922   1.776   5.117   8.390  0.2486  4.1235  2.2690
   54CHL1    C3 3923   2.168   6.771   7.097 -0.4116  0.4230 -0.1858
   54CHL1    H3 3924   2.102   6.683   7.106  0.8663 -0.4352  1.0159
   54CHL1    O3 3925   2.185   6.797   6.962  0.2341  0.0144 -0.4491
   54CHL1   H3' 3926   2.251   6.734   6.932  1.1776  0.8425 -0.1473
   54CHL1    C4 3927   2.106   6.887   7.177  0.4814 -0.6295  0.5182
   54CHL1   H4A 3928   2.172   6.976   7.178 -0.1784 -0.1448  1.4959
   54CHL1   H4B 3929   2.013   6.913   7.120  0.9147 -2.1338 -0.9004
   54CHL1    C5 3930   2.087   6.869   7.325 -0.3677 -0.0258  0.3557
   54CHL1    C6 3931   1.968   6.878   7.386 -0.2174  0.4795 -0.2668
   54CHL1    H6 3932   1.875   6.890   7.329 -0.5796  0.7591  0.3769
   54CHL1    C7 3933   1.958   6.853   7.536  0.1559  0.4203 -0.2060
   54CHL1   H7A 3934   1.884   6.916   7.589 -0.8424 -1.3827  0.5981
   54CHL1   H7B 3935   1.921   6.750   7.558  0.6223  0.3266  0.1368
   54CHL1    C8 3936   2.086   6.857   7.619 -0.3408  0.0681  0.1139
   54CHL1    H8 3937   2.113   6.964   7.621 -0.2101  0.0857 -2.0839
   54CHL1   C14 3938   2.067   6.797   7.759 -0.0533  0.0771  0.3599
   54CHL1   H14 3939   2.035   6.691   7.742  0.5098 -0.2895  1.5466
   54CHL1   C15 3940   1.960   6.872   7.841  0.1292 -0.4476 -0.2764
   54CHL1  H15A 3941   1.968   6.982   7.836  2.4769 -0.6654 -2.4472
   54CHL1  H15B 3942   1.856   6.840   7.817 -0.4589 -1.0370  2.8460
   54CHL1   C16 3943   1.985   6.808   7.982  0.1656 -0.1230  1.1469
   54CHL1  H16A 3944   1.992   6.893   8.053 -2.3519  0.0315  1.2838
   54CHL1  H16B 3945   1.910   6.733   8.013  2.7870 -3.0189  0.6825
   54CHL1   C17 3946   2.123   6.733   7.974  0.6502 -0.2247 -0.4819
   54CHL1   H17 3947   2.097   6.628   7.953 -1.8780  0.2762 -0.0175
   54CHL1   C13 3948   2.189   6.784   7.847 -0.8720  0.1052  0.7079
   54CHL1   C18 3949   2.239   6.921   7.883 -0.2575  0.2695 -0.5119
   54CHL1  H18A 3950   2.163   6.975   7.945  0.8313  0.3846  0.7450
   54CHL1  H18B 3951   2.334   6.914   7.941 -0.3743 -1.4204 -0.5101
   54CHL1  H18C 3952   2.266   6.988   7.799 -1.4927  1.1931 -0.1851
   54CHL1   C12 3953   2.294   6.691   7.773  0.7940 -0.6585 -0.1993
   54CHL1  H12A 3954   2.391   6.679   7.827 -0.4787  2.1976  2.9609
   54CHL1  H12B 3955   2.243   6.593   7.776  1.1135 -0.8335 -0.4229
   54CHL1   C11 3956   2.315   6.755   7.632  0.0459 -0.1430 -0.0329
   54CHL1  H11A 3957   2.365   6.853   7.650 -0.3736  0.5542 -2.5302
   54CHL1  H11B 3958   2.392   6.691   7.584  1.0097 -0.2001  1.5589
   54CHL1    C9 3959   2.191   6.774   7.546 -0.5793  0.1490  0.0707
   54CHL1    H9 3960   2.143   6.673   7.543  0.0173 -0.1317 -0.0280
   54CHL1   C10 3961   2.213   6.822   7.397  0.0872 -0.4447 -0.2885
   54CHL1   C19 3962   2.310   6.938   7.408  0.1165 -0.6379  0.3283
   54CHL1  H19A 3963   2.263   7.010   7.478 -0.2231  0.4171 -0.9730
   54CHL1  H19B 3964   2.404   6.901   7.453  1.4455 -0.2091 -2.0214
   54CHL1  H19C 3965   2.318   6.999   7.315  0.3661  0.4047  1.0295
   54CHL1    C1 3966   2.271   6.706   7.312 -0.6080 -0.0442 -0.6644
   54CHL1   H1A 3967   2.361   6.679   7.371 -0.0318 -1.6411 -2.2356
   54CHL1   H1B 3968   2.202   6.619   7.314 -0.3239 -0.2698 -0.6087
   54CHL1    C2 3969   2.301   6.742   7.166  0.8517  0.5763 -0.0385
   54CHL1   H2A 3970   2.351   6.656   7.116 -0.0586  0.7531 -1.2728
   54CHL1   H2B 3971   2.376   6.824   7.160  1.0332  0.3655 -0.7703
   54CHL1   C20 3972   2.197   6.721   8.112 -0.5506  0.2812  0.4280
   54CHL1   H20 3973   2.228   6.819   8.152  0.2864 -0.9031  2.8032
   54CHL1   C21 3974   2.315   6.634   8.085 -0.0325 -0.2022  0.5356
   54CHL1  H21A 3975   2.372   6.613   8.179  1.9770 -1.7709 -0.9834
   54CHL1  H21B 3976   2.385   6.687   8.017 -1.5806  0.8104 -0.2771
   54CHL1  H21C 3977   2.286   6.537   8.040  0.1930 -0.5430  1.1180
   54CHL1   C22 3978   2.103   6.662   8.215  0.0180 -0.4227 -0.1853
   54CHL1  H22A 3979   2.018   6.733   8.223 -2.0522 -2.8103 -0.1085
   54CHL1  H22B 3980   2.063   6.566   8.174 -1.5947  0.3397 -0.4338
   54CHL1   C23 3981   2.158   6.645   8.358 -0.6825 -0.4733  0.3407
   54CHL1  H23A 3982   2.233   6.563   8.351 -1.0861 -0.7987 -0.1341
   54CHL1  H23B 3983   2.209   6.738   8.392 -1.2198  0.1754 -0.6169
   54CHL1   C24 3984   2.049   6.598   8.450 -0.9013 -0.0729 -0.0074
   54CHL1  H24A 3985   1.975   6.681   8.460 -0.4510 -0.0332  3.9666
   54CHL1  H24B 3986   2.006   6.510   8.398 -0.5085 -0.3019  0.0594
   54CHL1   C25 3987   2.091   6.555   8.590 -1.4104  0.3454 -0.3006
   54CHL1   H25 3988   2.165   6.473   8.589 -0.5131  1.1176  0.7288
   54CHL1   C26 3989   2.173   6.671   8.657  0.4928 -0.8009 -0.2167
   54CHL1  H26A 3990   2.263   6.692   8.594 -0.1690  4.3121  0.2782
   54CHL1  H26B 3991   2.119   6.768   8.665 -0.0511 -1.0929 -0.3047
   54CHL1  H26C 3992   2.219   6.655   8.757 -0.4128 -0.5351  0.2452
   54CHL1   C27 3993   1.976   6.519   8.679  0.2853 -0.4839 -0.1487
   54CHL1  H27A 3994   1.924   6.434   8.629 -0.3013 -0.6561  0.7588
   54CHL1  H27B 3995   2.012   6.498   8.782 -0.3397 -0.1352  0.1442
   54CHL1  H27C 3996   1.892   6.592   8.680  0.5062 -0.2352  1.2098
   55CHL1    C3 3997   2.029   1.102   7.046 -0.3924 -0.0334 -0.3667
   55CHL1    H3 3998   2.131   1.138   7.071 -0.1137 -1.9805  1.4544
   55CHL1    O3 3999   2.041   1.073   6.906  0.9042  0.7798 -0.2880
   55CHL1   H3' 4000   1.953   1.045   6.881  0.1780  0.1081  2.7681
   55CHL1    C4 4001   2.027   0.974   7.128 -0.3319  0.3295  0.2677
   55CHL1   H4A 4002   1.932   0.919   7.110  0.0464 -0.7565  1.4918
   55CHL1   H4B 4003   2.106   0.904   7.092 -0.4449  0.5574 -0.4347
   55CHL1    C5 4004   2.037   0.992   7.277  0.2706 -0.4008  0.7917
   55CHL1    C6 4005   2.119   0.919   7.360  0.2771 -0.2059 -0.1782
   55CHL1    H6 4006   2.190   0.854   7.307  0.8252  1.9972 -2.2371
   55CHL1    C7 4007   2.125   0.945   7.509 -0.6174  0.7474 -0.0649
   55CHL1   H7A 4008   2.139   0.842   7.548  0.1083  1.2085  0.9301
   55CHL1   H7B 4009   2.221   0.998   7.528 -1.4153  1.8516  1.0087
   55CHL1    C8 4010   2.004   1.015   7.566  0.0488  0.0767  0.2489
   55CHL1    H8 4011   1.920   0.942   7.576 -2.1063  2.4879  0.1404
   55CHL1   C14 4012   2.033   1.071   7.704  0.2573  0.1923 -0.6063
   55CHL1   H14 4013   2.105   1.155   7.687  0.3760  0.1899 -0.1124
   55CHL1   C15 4014   2.095   0.974   7.801  0.1877  0.3348 -0.6586
   55CHL1  H15A 4015   2.049   0.873   7.796 -3.0913  1.7011  0.6681
   55CHL1  H15B 4016   2.203   0.977   7.778  0.2861 -1.4940 -0.5347
   55CHL1   C16 4017   2.075   1.039   7.935 -0.3036 -0.2162 -0.5340
   55CHL1  H16A 4018   2.020   0.976   8.008 -0.6949  1.1133  0.3299
   55CHL1  H16B 4019   2.159   1.084   7.990 -0.9003 -1.4217  1.3985
   55CHL1   C17 4020   1.990   1.172   7.910  0.3237 -0.3975  0.3448
   55CHL1   H17 4021   2.067   1.250   7.893 -0.0807 -0.4213 -1.8486
   55CHL1   C13 4022   1.918   1.144   7.777  0.1535  0.0747 -0.3706
   55CHL1   C18 4023   1.799   1.045   7.805 -0.1008 -0.1888  0.1159
   55CHL1  H18A 4024   1.722   1.093   7.868  0.4571 -1.1359  1.5531
   55CHL1  H18B 4025   1.741   1.022   7.713  0.4490  1.4215 -0.6510
   55CHL1  H18C 4026   1.836   0.954   7.858  0.3180 -0.0325  0.0939
   55CHL1   C12 4027   1.879   1.262   7.687 -0.3299 -0.8797 -1.1207
   55CHL1  H12A 4028   1.787   1.303   7.732 -0.3007  0.1011 -1.9307
   55CHL1  H12B 4029   1.955   1.341   7.704  0.7985 -2.1656 -0.1278
   55CHL1   C11 4030   1.854   1.222   7.543 -0.3789  0.3312 -0.7494
   55CHL1  H11A 4031   1.766   1.155   7.553 -0.1572 -0.2816 -2.6709
   55CHL1  H11B 4032   1.828   1.311   7.481 -1.4198 -0.1867 -1.0751
   55CHL1    C9 4033   1.965   1.129   7.476 -0.1158 -0.5489  0.5611
   55CHL1    H9 4034   2.062   1.183   7.481  0.7344 -2.1527  1.8228
   55CHL1   C10 4035   1.932   1.087   7.330 -0.1112  0.0794  0.2475
   55CHL1   C19 4036   1.786   1.027   7.319  0.5978  0.0290 -0.1374
   55CHL1  H19A 4037   1.709   1.104   7.340  1.1772  0.8508 -0.9718
   55CHL1  H19B 4038   1.757   0.989   7.219  2.0381  0.7668 -0.8614
   55CHL1  H19C 4039   1.768   0.948   7.394 -0.0232 -0.5507 -0.8896
   55CHL1    C1 4040   1.937   1.218   7.247 -0.3128 -0.3333  0.4806
   55CHL1   H1A 4041   1.855   1.283   7.285  1.0005  0.8533  1.3547
   55CHL1   H1B 4042   2.026   1.282   7.266 -0.6849  0.4688 -0.4493
   55CHL1    C2 4043   1.921   1.198   7.094  0.7555 -0.6016  0.4653
   55CHL1   H2A 4044   1.943   1.289   7.034  1.0498  0.3027  1.9043
   55CHL1   H2B 4045   1.817   1.165   7.073  0.5684 -1.4559  2.5602
   55CHL1   C20 4046   1.903   1.225   8.026 -0.2739  0.1163  0.0740
   55CHL1   H20 4047   1.814   1.159   8.021  1.7619 -2.5660 -2.3511
   55CHL1   C21 4048   1.840   1.364   7.999 -0.4255 -0.7476 -0.0752
   55CHL1  H21A 4049   1.767   1.348   7.917 -0.3986 -0.2574 -0.1997
   55CHL1  H21B 4050   1.925   1.433   7.979 -0.9100  0.2986  1.4289
   55CHL1  H21C 4051   1.783   1.397   8.088 -0.5017  1.2854 -0.8529
   55CHL1   C22 4052   1.965   1.205   8.172  0.3475  0.3319 -0.5355
   55CHL1  H22A 4053   1.989   1.098   8.190 -0.5872  0.2240  0.0935
   55CHL1  H22B 4054   2.062   1.260   8.174  0.0380  0.8539  0.2744
   55CHL1   C23 4055   1.872   1.258   8.284  0.8847  0.5253  0.1717
   55CHL1  H23A 4056   1.877   1.369   8.279 -2.1661  0.6453 -1.2115
   55CHL1  H23B 4057   1.767   1.229   8.265  1.0987 -0.0595 -0.1742
   55CHL1   C24 4058   1.909   1.207   8.424 -0.1306 -0.2521 -0.0579
   55CHL1  H24A 4059   1.872   1.108   8.457 -3.6126  0.7824 -0.6724
   55CHL1  H24B 4060   2.020   1.196   8.427 -0.0739  0.4010  0.3971
   55CHL1   C25 4061   1.878   1.298   8.551 -0.1219 -0.0334  0.8168
   55CHL1   H25 4062   1.769   1.289   8.571 -0.4550  1.4995 -0.2084
   55CHL1   C26 4063   1.942   1.233   8.674  0.3849  0.0130  0.7457
   55CHL1  H26A 4064   1.906   1.129   8.671  3.0709 -0.9779  0.8792
   55CHL1  H26B 4065   2.053   1.224   8.679  0.4889  0.0919 -1.0606
   55CHL1  H26C 4066   1.911   1.283   8.768  2.2692 -0.4260  1.6307
   55CHL1   C27 4067   1.922   1.444   8.542 -0.0460 -0.7426  0.2602
   55CHL1  H27A 4068   1.874   1.492   8.630 -0.5121 -0.3439 -0.2046
   55CHL1  H27B 4069   2.031   1.460   8.557  0.0366  1.6041 -2.4634
   55CHL1  H27C 4070   1.894   1.503   8.452  0.5698 -0.0754  0.5070
   56CHL1    C3 4071   1.278   6.382   6.739  0.0485 -0.0035  0.2541
   56CHL1    H3 4072   1.178   6.424   6.713 -0.7102 -1.6019  0.4489
   56CHL1    O3 4073   1.354   6.340   6.629  0.2056  0.2056 -0.0293
   56CHL1   H3' 4074   1.384   6.252   6.652 -0.0926  0.2973  0.7039
   56CHL1    C4 4075   1.356   6.496   6.818 -0.6006  0.3016 -0.3916
   56CHL1   H4A 4076   1.460   6.460   6.833 -0.0205  0.2620 -3.9633
   56CHL1   H4B 4077   1.354   6.585   6.751 -0.6551  1.6190  1.3434
   56CHL1    C5 4078   1.295   6.531   6.955 -0.6144 -0.1931  0.5216
   56CHL1    C6 4079   1.268   6.662   6.986  0.4078 -0.4929 -0.0032
   56CHL1    H6 4080   1.293   6.735   6.908 -0.1812 -2.9502 -2.5751
   56CHL1    C7 4081   1.203   6.703   7.121 -0.2466  0.0931  0.4766
   56CHL1   H7A 4082   1.245   6.795   7.167 -1.6161  0.0276  1.9195
   56CHL1   H7B 4083   1.098   6.735   7.106 -0.8893 -1.4682  1.5267
   56CHL1    C8 4084   1.211   6.590   7.221  0.5560  0.5480  0.0324
   56CHL1    H8 4085   1.318   6.580   7.249  0.5336 -1.3909 -0.5113
   56CHL1   C14 4086   1.127   6.626   7.340 -0.1066  0.4063 -0.0616
   56CHL1   H14 4087   1.026   6.646   7.300 -0.2593  1.3775  0.7797
   56CHL1   C15 4088   1.166   6.752   7.415  0.3150 -0.0797 -0.5431
   56CHL1  H15A 4089   1.275   6.764   7.436 -0.1604  1.3202  1.2388
   56CHL1  H15B 4090   1.134   6.839   7.353 -2.1764 -2.1053 -2.1940
   56CHL1   C16 4091   1.077   6.736   7.539 -0.1151  0.0890  0.7059
   56CHL1  H16A 4092   1.139   6.760   7.628  0.4774 -2.0962  0.9106
   56CHL1  H16B 4093   0.993   6.808   7.545 -0.1318  0.0510  0.9316
   56CHL1   C17 4094   1.035   6.587   7.554  0.6201 -0.4424  0.2116
   56CHL1   H17 4095   0.929   6.574   7.525  0.7505 -0.1080 -0.4107
   56CHL1   C13 4096   1.110   6.514   7.448 -0.2207 -0.6735  0.0232
   56CHL1   C18 4097   1.253   6.474   7.502 -0.2668  0.0708 -0.0235
   56CHL1  H18A 4098   1.302   6.558   7.556 -1.7642  0.5451  0.6423
   56CHL1  H18B 4099   1.237   6.395   7.579  1.9588  2.3333  2.8785
   56CHL1  H18C 4100   1.325   6.436   7.427 -0.4003  0.9337 -0.5957
   56CHL1   C12 4101   1.034   6.405   7.376  0.5584 -0.0997 -0.3569
   56CHL1  H12A 4102   1.016   6.320   7.446  2.3132 -0.3581 -0.2128
   56CHL1  H12B 4103   0.936   6.446   7.342  0.2757 -0.8962 -0.5103
   56CHL1   C11 4104   1.129   6.344   7.259  0.2859  0.2504  0.2267
   56CHL1  H11A 4105   1.218   6.292   7.300 -0.5919 -2.2611 -0.9018
   56CHL1  H11B 4106   1.069   6.268   7.205  2.9001 -1.1403 -0.8062
   56CHL1    C9 4107   1.168   6.454   7.158 -1.1115  0.1357 -0.1531
   56CHL1    H9 4108   1.070   6.472   7.109 -1.5600  0.4231  0.8614
   56CHL1   C10 4109   1.264   6.414   7.044 -0.0164 -0.6285  0.0669
   56CHL1   C19 4110   1.395   6.363   7.104  0.5959  0.5611  0.8207
   56CHL1  H19A 4111   1.384   6.296   7.192 -2.8547 -0.4087 -0.2560
   56CHL1  H19B 4112   1.449   6.308   7.024  0.1246 -1.9827  2.1983
   56CHL1  H19C 4113   1.446   6.451   7.148 -1.4167  1.4657  1.3976
   56CHL1    C1 4114   1.195   6.300   6.962  0.1103  0.6731 -0.4377
   56CHL1   H1A 4115   1.196   6.207   7.022  0.1334  0.4511 -0.7814
   56CHL1   H1B 4116   1.092   6.334   6.942 -0.1256  0.2799  0.0976
   56CHL1    C2 4117   1.262   6.262   6.831 -0.8640 -0.7010  0.3622
   56CHL1   H2A 4118   1.190   6.194   6.782 -1.0965  1.1534 -1.9600
   56CHL1   H2B 4119   1.360   6.213   6.846 -1.0504 -1.7659 -1.7757
   56CHL1   C20 4120   1.047   6.544   7.701 -0.2632  0.0391  0.0222
   56CHL1   H20 4121   1.153   6.553   7.736 -0.1604 -2.6428  0.5074
   56CHL1   C21 4122   1.008   6.393   7.706  0.4183 -0.4412 -0.4370
   56CHL1  H21A 4123   1.078   6.330   7.648  0.3459 -1.6958  0.8147
   56CHL1  H21B 4124   0.900   6.382   7.680 -0.9011  4.5246  2.2365
   56CHL1  H21C 4125   1.017   6.360   7.812  0.2284 -0.6913 -0.4988
   56CHL1   C22 4126   0.938   6.624   7.790 -0.4753  0.1994 -0.4774
   56CHL1  H22A 4127   0.956   6.731   7.767 -0.7655  0.1706 -0.8421
   56CHL1  H22B 4128   0.834   6.602   7.758 -0.1452 -3.1653  0.5062
   56CHL1   C23 4129   0.953   6.603   7.941 -0.6543  0.2405  0.5580
   56CHL1  H23A 4130   0.918   6.498   7.949 -1.2712  0.2791 -1.3037
   56CHL1  H23B 4131   1.058   6.602   7.978 -1.7871  0.9486  3.9721
   56CHL1   C24 4132   0.873   6.694   8.031  0.2206  0.4776  0.4490
   56CHL1  H24A 4133   0.897   6.800   8.010 -1.2891  0.6625 -0.4115
   56CHL1  H24B 4134   0.769   6.678   7.995 -0.3672 -0.9028  2.6379
   56CHL1   C25 4135   0.869   6.667   8.184 -0.2519  0.1028  0.1616
   56CHL1   H25 4136   0.962   6.717   8.219 -0.8264  3.0868 -2.3956
   56CHL1   C26 4137   0.742   6.750   8.240  0.2632  0.1958 -0.3279
   56CHL1  H26A 4138   0.737   6.747   8.351 -0.4065 -0.7282 -0.3746
   56CHL1  H26B 4139   0.643   6.718   8.201  0.3068  0.2066 -0.4454
   56CHL1  H26C 4140   0.770   6.855   8.217  1.2946  0.1676  0.7356
   56CHL1   C27 4141   0.858   6.521   8.227 -0.0476  0.4394 -0.3346
   56CHL1  H27A 4142   0.773   6.476   8.172 -0.5603  1.8082 -0.6701
   56CHL1  H27B 4143   0.943   6.452   8.209 -0.4289 -0.3681  0.8982
   56CHL1  H27C 4144   0.840   6.516   8.337  1.5080  0.4468 -0.0558
   57SAPC     N 4145   1.747   3.459  11.043 -0.5622  0.3745 -1.2058
   57SAPC   C12 4146   1.672   3.330  11.061 -0.5143  0.8455 -0.0740
   57SAPC  H12A 4147   1.570   3.341  11.095  0.1457 -0.1709  2.4022
   57SAPC  H12B 4148   1.727   3.280  11.140 -0.6066  0.6366 -0.1408
   57SAPC   C13 4149   1.890   3.427  11.035  0.0957 -0.3287 -0.8327
   57SAPC  H13A 4150   1.944   3.517  11.008  0.3225  0.6420  2.6042
   57SAPC  H13B 4151   1.919   3.380  11.128 -0.7867  0.2624 -0.2419
   57SAPC  H13C 4152   1.917   3.357  10.958  2.0607 -1.5967  0.9691
   57SAPC   C14 4153   1.714   3.512  10.906  0.4708 -0.3449 -0.4261
   57SAPC  H14A 4154   1.788   3.587  10.883 -1.2878  1.6460  0.1910
   57SAPC  H14B 4155   1.722   3.434  10.832 -1.2880 -0.4213 -0.5697
   57SAPC  H14C 4156   1.608   3.534  10.914  0.3779 -1.4159  1.5646
   57SAPC   C15 4157   1.715   3.562  11.144  0.1333 -0.6020  0.5335
   57SAPC  H15A 4158   1.608   3.574  11.154 -0.0654 -1.8012 -0.0919
   57SAPC  H15B 4159   1.748   3.524  11.239  0.3964 -0.4093  0.5193
   57SAPC  H15C 4160   1.749   3.658  11.107 -1.7190 -0.7906 -1.8542
   57SAPC   C11 4161   1.656   3.235  10.940 -0.5194 -0.7453  0.7043
   57SAPC  H11A 4162   1.632   3.139  10.990  0.0191 -1.0721  0.3312
   57SAPC  H11B 4163   1.758   3.220  10.898 -1.1140 -0.7096 -0.7592
   57SAPC     P 4164   1.475   3.181  10.753 -0.0424 -0.3206  0.0794
   57SAPC   O13 4165   1.429   3.063  10.834  0.2570  0.3051 -0.4368
   57SAPC   O14 4166   1.384   3.252  10.663  0.2103  0.4023  0.6880
   57SAPC   O12 4167   1.547   3.282  10.850 -0.2279  0.2397 -0.3149
   57SAPC   O11 4168   1.582   3.116  10.662 -0.2509  0.4656  0.3745
   57SAPC    C1 4169   1.702   3.175  10.599  0.4098 -0.2697 -0.7826
   57SAPC    HA 4170   1.720   3.283  10.617  0.6811 -0.4233 -0.1392
   57SAPC    HB 4171   1.796   3.126  10.631 -1.2404 -1.8422  1.9175
   57SAPC    C2 4172   1.703   3.165  10.444  0.0415  0.5260  0.1211
   57SAPC    HS 4173   1.624   3.238  10.417  0.0828  0.4514 -0.2008
   57SAPC   O21 4174   1.654   3.036  10.397  0.6000 -0.3842 -0.0563
   57SAPC   C21 4175   1.692   2.922  10.462  0.4599 -0.4400  0.7253
   57SAPC   O22 4176   1.778   2.912  10.544  0.3062  0.3247 -0.2169
   57SAPC   C22 4177   1.602   2.820  10.419 -0.7360  0.4607 -0.1602
   57SAPC   H2R 4178   1.601   2.806  10.308  1.3105 -0.8019 -0.0521
   57SAPC   H2S 4179   1.643   2.727  10.464 -0.3404  1.1671  0.9531
   57SAPC    C3 4180   1.839   3.198  10.386 -0.6049  0.5360 -0.3476
   57SAPC    HX 4181   1.906   3.125  10.436  0.4160  2.0335  0.5121
   57SAPC    HY 4182   1.876   3.299  10.414 -0.4790  0.1179  1.0123
   57SAPC   O31 4183   1.850   3.184  10.246  0.1189 -0.7664  0.2355
   57SAPC   C31 4184   1.797   3.290  10.177  0.4147 -0.8766 -0.1933
   57SAPC   O32 4185   1.749   3.392  10.227  0.1940 -0.7466  0.2485
   57SAPC   C32 4186   1.825   3.272  10.026  0.5014  0.5843  0.9567
   57SAPC   H2X 4187   1.933   3.286  10.005  0.1555  2.2722  0.2346
   57SAPC   H2Y 4188   1.773   3.356   9.975  2.0218  0.4988 -0.7739
   57SAPC   C23 4189   1.462   2.845  10.469  0.4927 -0.0960  0.1631
   57SAPC   H3R 4190   1.427   2.942  10.429 -1.9473 -0.6844  0.7756
   57SAPC   H3S 4191   1.465   2.853  10.580  0.7905 -0.1896  0.1605
   57SAPC   C24 4192   1.362   2.736  10.422 -0.3842  0.0650 -0.8467
   57SAPC   H4R 4193   1.356   2.748  10.312 -0.2735  0.7598 -0.7796
   57SAPC   H4S 4194   1.260   2.758  10.460  0.2820 -1.0178  1.6412
   57SAPC   C25 4195   1.405   2.600  10.469 -0.2919 -0.5427 -0.7765
   57SAPC   H5R 4196   1.398   2.587  10.578  2.5553 -2.2236 -0.7366
   57SAPC   C26 4197   1.430   2.494  10.392  1.2667  0.3274 -0.0463
   57SAPC   H6R 4198   1.468   2.400  10.435 -1.3354 -0.0897  1.4440
   57SAPC   C27 4199   1.424   2.491  10.235  1.6442  0.0114 -0.2949
   57SAPC   H7R 4200   1.326   2.539  10.216  1.6555  0.0306 -0.3056
   57SAPC   H7S 4201   1.408   2.386  10.201 -0.0462 -0.2729  1.3063
   57SAPC   C28 4202   1.540   2.548  10.163 -1.0913 -0.1369 -0.2126
   57SAPC   H8R 4203   1.636   2.500  10.187 -1.0206 -0.1911 -0.5994
   57SAPC   C29 4204   1.540   2.655  10.082 -0.0775  0.2365 -0.1073
   57SAPC   H9R 4205   1.632   2.682  10.029 -0.1679  1.4457  0.3351
   57SAPC  C210 4206   1.416   2.734  10.038 -0.8092 -1.0556 -0.2403
   57SAPC  H10R 4207   1.338   2.751  10.115  0.3834 -1.1253  1.0001
   57SAPC  H10S 4208   1.366   2.676   9.958  1.5274 -0.4318 -2.2087
   57SAPC  C211 4209   1.463   2.865   9.972  0.0636  0.4674  0.2582
   57SAPC  H11R 4210   1.512   2.935  10.041  1.9231 -1.8223  1.3727
   57SAPC  C212 4211   1.436   2.905   9.843 -0.0045 -0.2394 -0.8857
   57SAPC  H12R 4212   1.498   2.982   9.796  1.0050 -1.0742 -0.9300
   57SAPC  C213 4213   1.378   2.812   9.732 -0.6356  0.2956  0.6656
   57SAPC  H13R 4214   1.287   2.759   9.765 -0.0778 -0.2537  1.3433
   57SAPC  H13S 4215   1.461   2.744   9.703  0.8960  2.1083  0.6345
   57SAPC  C214 4216   1.353   2.906   9.613  0.1064 -0.0380  0.1351
   57SAPC  H14R 4217   1.333   3.010   9.640 -0.2908 -0.3506  1.0514
   57SAPC  C215 4218   1.339   2.869   9.479 -0.2953 -0.5436 -0.0507
   57SAPC  H15R 4219   1.318   2.947   9.405 -2.7401 -0.2038  0.9390
   57SAPC  C216 4220   1.348   2.726   9.428  0.8410  0.1512  0.5228
   57SAPC  H16R 4221   1.384   2.656   9.506  0.2997 -0.1587  0.4935
   57SAPC  H16S 4222   1.413   2.711   9.339  0.2390 -0.5853  0.2019
   57SAPC  C217 4223   1.213   2.646   9.405  0.2542 -0.8949  0.1800
   57SAPC  H17R 4224   1.148   2.648   9.496  2.3555  1.0693  1.7214
   57SAPC  H17S 4225   1.236   2.543   9.372  0.8689 -0.8701  0.5129
   57SAPC  C218 4226   1.137   2.698   9.283  0.1555 -1.0206 -0.2552
   57SAPC  H18R 4227   1.131   2.809   9.295 -1.0156 -1.0762 -0.3069
   57SAPC  H18S 4228   1.043   2.641   9.270  0.0427 -1.1761  1.1979
   57SAPC  C219 4229   1.212   2.673   9.156  0.6484 -0.4612 -0.2530
   57SAPC  H19R 4230   1.221   2.565   9.130  0.5172 -0.2692 -1.0973
   57SAPC  H19S 4231   1.314   2.714   9.135 -0.8338  2.9833 -1.0051
   57SAPC  C220 4232   1.132   2.727   9.034 -0.4766  0.2082  0.1282
   57SAPC  H20R 4233   1.172   2.681   8.941 -1.2886  1.4974 -0.8823
   57SAPC  H20S 4234   1.140   2.836   9.010  2.9624 -0.1636 -0.8266
   57SAPC  H20T 4235   1.023   2.712   9.049 -0.8357  2.1914 -0.3737
   57SAPC   C33 4236   1.762   3.142   9.966  0.1478 -0.3299 -0.3614
   57SAPC   H3X 4237   1.651   3.137   9.973  0.2401 -1.4598  0.5785
   57SAPC   H3Y 4238   1.804   3.058  10.026 -2.3367 -0.7092  0.9214
   57SAPC   C34 4239   1.809   3.114   9.826 -0.0462 -1.0580  0.6487
   57SAPC   H4X 4240   1.781   3.019   9.775  2.2192 -1.9419  0.9724
   57SAPC   H4Y 4241   1.920   3.105   9.832  0.2388  1.8595  0.4992
   57SAPC   C35 4242   1.770   3.233   9.735  0.6969  0.4154  0.0510
   57SAPC   H5X 4243   1.813   3.329   9.770 -0.3755  0.9833 -0.1720
   57SAPC   H5Y 4244   1.659   3.235   9.741  0.6040 -2.3785  0.1000
   57SAPC   C36 4245   1.822   3.222   9.589  0.2899 -0.8025 -0.8198
   57SAPC   H6X 4246   1.913   3.158   9.586  0.2880 -0.7730 -1.5482
   57SAPC   H6Y 4247   1.846   3.322   9.547 -0.4312 -0.1501  0.2973
   57SAPC   C37 4248   1.724   3.151   9.493 -0.2541  0.1302  0.6549
   57SAPC   H7X 4249   1.622   3.195   9.499  0.5296  2.1348 -0.4121
   57SAPC   H7Y 4250   1.717   3.045   9.527 -0.1444  0.4105  1.5654
   57SAPC   C38 4251   1.764   3.148   9.341 -0.7934 -0.1340  0.0124
   57SAPC   H8X 4252   1.862   3.096   9.332 -1.0137 -0.5649  0.1070
   57SAPC   H8Y 4253   1.792   3.252   9.313 -0.5979  0.0142  0.7481
   57SAPC   C39 4254   1.664   3.087   9.240 -0.2774  0.1975  0.5013
   57SAPC   H9X 4255   1.558   3.100   9.273 -0.4667 -0.1050  0.0152
   57SAPC   H9Y 4256   1.681   2.978   9.251  0.4118  0.2394 -0.1178
   57SAPC  C310 4257   1.684   3.141   9.101  0.0933  0.4949  0.3179
   57SAPC  H10X 4258   1.794   3.156   9.100 -0.0685  1.7160 -0.6831
   57SAPC  H10Y 4259   1.636   3.241   9.103 -1.5408 -0.2343 -0.8693
   57SAPC  C311 4260   1.618   3.051   8.989 -0.2793  0.4135 -0.5163
   57SAPC  H11X 4261   1.521   3.020   9.033  1.0606 -1.7714  0.9681
   57SAPC  H11Y 4262   1.666   2.952   8.979 -1.0132  0.1701 -1.7468
   57SAPC  C312 4263   1.605   3.119   8.848  0.0628  0.3851  0.8738
   57SAPC  H12X 4264   1.699   3.171   8.818  0.8058 -2.1110 -1.3685
   57SAPC  H12Y 4265   1.524   3.194   8.861 -0.7057 -0.5021  1.1869
   57SAPC  C313 4266   1.568   3.025   8.733  0.2076 -0.0914  0.3865
   57SAPC  H13X 4267   1.642   2.942   8.744 -1.7951 -1.9781  0.1371
   57SAPC  H13Y 4268   1.588   3.082   8.640 -0.6560  0.8623  0.7787
   57SAPC  C314 4269   1.416   2.986   8.736 -0.0212  0.2161 -0.2676
   57SAPC  H14X 4270   1.363   3.083   8.747  0.9716  0.5340  1.8833
   57SAPC  H14Y 4271   1.393   2.922   8.824 -2.2745 -0.4182 -1.2838
   57SAPC  C315 4272   1.382   2.908   8.614  0.0128  0.4906 -0.2434
   57SAPC  H15X 4273   1.470   2.844   8.592  0.2670  0.2152  1.5622
   57SAPC  H15Y 4274   1.378   2.970   8.521 -0.6912 -0.0040 -0.5524
   57SAPC  C316 4275   1.264   2.808   8.625 -0.5506 -0.2329  0.6409
   57SAPC  H16X 4276   1.293   2.742   8.710 -0.1521 -2.1386 -0.9545
   57SAPC  H16Y 4277   1.256   2.752   8.530  1.2439  0.7254 -0.1017
   57SAPC  C317 4278   1.124   2.864   8.655 -0.2708 -0.2215  0.1351
   57SAPC  H17X 4279   1.098   2.940   8.578 -1.1399  0.1022  0.7286
   57SAPC  H17Y 4280   1.115   2.915   8.753 -0.2142 -0.2062  0.1322
   57SAPC  C318 4281   1.013   2.755   8.664  0.4282 -0.5449 -0.9099
   57SAPC  H18X 4282   1.050   2.679   8.591  0.8998 -1.1703 -0.0221
   57SAPC  H18Y 4283   0.911   2.787   8.634  0.0224 -1.1367 -0.1668
   57SAPC  H18Z 4284   1.009   2.706   8.763 -1.3315  1.3364 -0.0115
   58SAPC     N 4285   3.311   1.260  10.724  0.3895  0.2032 -0.2296
   58SAPC   C12 4286   3.391   1.180  10.818  0.0649  0.2161  0.2129
   58SAPC  H12A 4287   3.411   1.235  10.909 -3.0571 -0.4608  1.3808
   58SAPC  H12B 4288   3.484   1.154  10.769 -0.0962 -1.4867  0.7723
   58SAPC   C13 4289   3.296   1.175  10.598  0.2864  0.0329  0.0211
   58SAPC  H13A 4290   3.397   1.160  10.561 -0.2087  0.0137 -1.3521
   58SAPC  H13B 4291   3.252   1.078  10.614  2.3996 -1.4365 -2.6862
   58SAPC  H13C 4292   3.235   1.230  10.528 -0.9826  0.3134  1.3275
   58SAPC   C14 4293   3.185   1.298  10.788  0.4267 -0.3439  0.1471
   58SAPC  H14A 4294   3.122   1.354  10.720  1.4384  1.3196  0.5394
   58SAPC  H14B 4295   3.124   1.215  10.820  1.8400 -1.7919 -0.8174
   58SAPC  H14C 4296   3.212   1.351  10.878 -0.5140 -1.1742  0.9072
   58SAPC   C15 4297   3.393   1.386  10.693 -0.6671  0.6037 -0.3082
   58SAPC  H15A 4298   3.495   1.361  10.668 -0.7946 -1.3161  0.9870
   58SAPC  H15B 4299   3.344   1.439  10.613 -1.1711 -0.1360 -0.4945
   58SAPC  H15C 4300   3.397   1.444  10.784  0.3648 -0.9215  0.6394
   58SAPC   C11 4301   3.333   1.041  10.854 -0.0234  0.3591  0.0341
   58SAPC  H11A 4302   3.227   1.048  10.884  0.0894 -0.4274  0.6385
   58SAPC  H11B 4303   3.390   1.008  10.944  0.4013 -0.2543 -0.4464
   58SAPC     P 4304   3.485   0.885  10.701  0.2098 -0.4397 -0.0949
   58SAPC   O13 4305   3.598   0.956  10.763  0.3848  0.1516 -0.2802
   58SAPC   O14 4306   3.479   0.739  10.720  0.2839 -0.6490 -0.2935
   58SAPC   O12 4307   3.345   0.942  10.743 -0.4858  0.0579 -0.9757
   58SAPC   O11 4308   3.477   0.914  10.544  0.3203  0.9272  0.1438
   58SAPC    C1 4309   3.447   0.810  10.445 -0.1572  0.2755  0.2871
   58SAPC    HA 4310   3.367   0.743  10.483 -0.2756  0.6288  0.6574
   58SAPC    HB 4311   3.410   0.858  10.352 -2.8413 -0.1570  1.0829
   58SAPC    C2 4312   3.576   0.738  10.397 -0.2733  0.2152  0.0773
   58SAPC    HS 4313   3.628   0.690  10.483  0.0892 -1.1563 -0.8986
   58SAPC   O21 4314   3.660   0.841  10.342 -0.1836 -0.0553  0.0391
   58SAPC   C21 4315   3.791   0.822  10.339  1.0175  0.3116 -0.4859
   58SAPC   O22 4316   3.859   0.744  10.403  0.0574 -0.2730  0.1175
   58SAPC   C22 4317   3.841   0.912  10.233  0.3976  0.2536 -0.1972
   58SAPC   H2R 4318   3.764   0.964  10.171  1.1066 -0.4284 -1.6868
   58SAPC   H2S 4319   3.905   0.992  10.277 -1.1981  1.3822  0.1303
   58SAPC    C3 4320   3.545   0.624  10.297  0.1733  0.1785  1.0712
   58SAPC    HX 4321   3.504   0.679  10.210 -0.2019 -1.3122  0.2861
   58SAPC    HY 4322   3.474   0.570  10.363 -1.9342  0.4381 -0.9176
   58SAPC   O31 4323   3.668   0.558  10.261  0.1738 -0.3781 -0.5458
   58SAPC   C31 4324   3.634   0.435  10.218  0.3990  0.1922 -0.4273
   58SAPC   O32 4325   3.517   0.404  10.197  0.6518  0.6657  0.2293
   58SAPC   C32 4326   3.754   0.351  10.196  0.5252  0.1807  0.0070
   58SAPC   H2X 4327   3.763   0.296  10.291 -0.2398  0.9136  0.5115
   58SAPC   H2Y 4328   3.849   0.408  10.191  0.8807 -0.3408  0.8706
   58SAPC   C23 4329   3.931   0.834  10.125  0.1460 -0.1029 -0.2132
   58SAPC   H3R 4330   4.023   0.809  10.182 -0.2997 -0.7609  0.2221
   58SAPC   H3S 4331   3.976   0.909  10.056  0.1116 -1.2976 -1.5495
   58SAPC   C24 4332   3.855   0.730  10.045  0.2863  0.1042 -0.2703
   58SAPC   H4R 4333   3.808   0.650  10.105  0.9958 -0.4344 -0.4207
   58SAPC   H4S 4334   3.928   0.667   9.989 -0.2387 -0.7140 -0.0382
   58SAPC   C25 4335   3.760   0.768   9.941 -0.2996  0.0429  0.6826
   58SAPC   H5R 4336   3.678   0.835   9.973  1.0435  0.9730  2.2926
   58SAPC   C26 4337   3.762   0.738   9.811  0.4228 -0.1207 -0.0229
   58SAPC   H6R 4338   3.682   0.771   9.742  1.4103  0.9440 -0.6638
   58SAPC   C27 4339   3.857   0.643   9.739 -0.0098  0.1096 -0.4920
   58SAPC   H7R 4340   3.794   0.578   9.676  0.4184  0.2867 -1.1104
   58SAPC   H7S 4341   3.913   0.576   9.808 -2.7910  0.1934  1.9431
   58SAPC   C28 4342   3.952   0.721   9.651  0.5842 -0.3814  0.4848
   58SAPC   H8R 4343   4.035   0.779   9.692  0.0466  0.5816  0.2149
   58SAPC   C29 4344   3.919   0.753   9.522  0.2702  0.6691 -0.7158
   58SAPC   H9R 4345   3.999   0.793   9.458  2.1397 -0.9776  0.5287
   58SAPC  C210 4346   3.801   0.707   9.441  0.3284 -0.0284  0.4160
   58SAPC  H10R 4347   3.708   0.691   9.499  0.6831 -0.0579  0.9782
   58SAPC  H10S 4348   3.818   0.605   9.399  0.5612 -0.3900  1.3857
   58SAPC  C211 4349   3.782   0.810   9.325  0.0885  0.0691 -0.5208
   58SAPC  H11R 4350   3.726   0.899   9.358  1.4503  0.5529  0.5325
   58SAPC  C212 4351   3.844   0.798   9.202 -0.0345 -0.0157  0.4005
   58SAPC  H12R 4352   3.849   0.874   9.122  2.1232 -0.2197  0.3005
   58SAPC  C213 4353   3.933   0.681   9.184 -0.7492 -0.3812  0.3162
   58SAPC  H13R 4354   3.876   0.589   9.161 -2.8038  1.1130 -0.6713
   58SAPC  H13S 4355   3.983   0.645   9.276  0.9109 -0.5899 -0.6529
   58SAPC  C214 4356   4.040   0.715   9.084 -0.1090  0.5605  0.6331
   58SAPC  H14R 4357   4.101   0.805   9.100  2.6754 -0.5666 -2.7855
   58SAPC  C215 4358   4.061   0.648   8.969  0.0444  0.6010  0.7787
   58SAPC  H15R 4359   4.134   0.697   8.904 -0.5770  0.5539  0.0415
   58SAPC  C216 4360   3.995   0.526   8.907 -0.5592 -0.3227 -0.0031
   58SAPC  H16R 4361   3.951   0.548   8.808  2.1252  0.1480 -1.1299
   58SAPC  H16S 4362   3.909   0.507   8.975 -0.4030  1.3826  0.6977
   58SAPC  C217 4363   4.090   0.408   8.903 -0.2522  0.3222 -0.4942
   58SAPC  H17R 4364   4.043   0.315   8.866 -0.0016 -0.3455  0.8555
   58SAPC  H17S 4365   4.117   0.375   9.006  0.9923 -0.0823 -0.9375
   58SAPC  C218 4366   4.221   0.451   8.819  0.0038 -0.0720  0.4504
   58SAPC  H18R 4367   4.286   0.525   8.871 -1.3945  0.0292  2.1447
   58SAPC  H18S 4368   4.185   0.487   8.721  0.7319  0.1732  0.2718
   58SAPC  C219 4369   4.314   0.327   8.797 -0.7982  0.3253  0.1477
   58SAPC  H19R 4370   4.251   0.245   8.757 -0.2460  0.4231 -0.9576
   58SAPC  H19S 4371   4.351   0.306   8.900 -3.0392  1.8356  1.2994
   58SAPC  C220 4372   4.436   0.362   8.704  0.7696  0.0014  0.4181
   58SAPC  H20R 4373   4.386   0.387   8.608  0.5182  0.3421  0.6341
   58SAPC  H20S 4374   4.503   0.274   8.697  1.1539  0.1099  2.5880
   58SAPC  H20T 4375   4.498   0.444   8.747  0.7743  0.0387  0.3438
   58SAPC   C33 4376   3.748   0.242  10.082 -0.2073  0.7252  0.8215
   58SAPC   H3X 4377   3.665   0.170  10.101  0.7594 -0.6640 -0.1226
   58SAPC   H3Y 4378   3.841   0.181  10.089 -1.6067 -1.5719  0.1541
   58SAPC   C34 4379   3.733   0.298   9.934 -0.0240 -0.3730 -0.5604
   58SAPC   H4X 4380   3.822   0.358   9.906 -0.7027 -0.1840 -2.4013
   58SAPC   H4Y 4381   3.645   0.366   9.931  1.1723  1.3563  1.9563
   58SAPC   C35 4382   3.714   0.177   9.839 -1.2084 -0.0898 -0.5921
   58SAPC   H5X 4383   3.634   0.119   9.888 -0.6469 -0.7112 -0.3953
   58SAPC   H5Y 4384   3.807   0.116   9.843 -0.8996  0.3153 -1.3043
   58SAPC   C36 4385   3.664   0.212   9.699 -0.5091 -0.2410  0.9848
   58SAPC   H6X 4386   3.576   0.280   9.696  0.1129  0.4779 -2.7274
   58SAPC   H6Y 4387   3.648   0.110   9.659 -1.7277  0.7736 -1.2330
   58SAPC   C37 4388   3.778   0.262   9.613  0.7019 -0.1559  0.1841
   58SAPC   H7X 4389   3.867   0.195   9.615 -0.4329 -1.7030 -0.5115
   58SAPC   H7Y 4390   3.809   0.364   9.645  1.0612 -0.0905 -0.3537
   58SAPC   C38 4391   3.734   0.265   9.464 -0.7720 -0.8585  0.5597
   58SAPC   H8X 4392   3.648   0.334   9.463 -1.0871 -1.1756  2.7586
   58SAPC   H8Y 4393   3.697   0.164   9.435 -1.8315 -0.4727  0.5505
   58SAPC   C39 4394   3.844   0.303   9.372 -0.3000 -0.2482 -0.2541
   58SAPC   H9X 4395   3.930   0.237   9.395 -1.5401 -2.6478 -2.3113
   58SAPC   H9Y 4396   3.877   0.403   9.407 -0.3473 -0.8734  1.6279
   58SAPC  C310 4397   3.813   0.306   9.225  0.1696 -0.1493 -0.3007
   58SAPC  H10X 4398   3.882   0.384   9.186 -0.1453 -0.0700 -0.7015
   58SAPC  H10Y 4399   3.716   0.355   9.202 -0.9705 -1.7402  1.0172
   58SAPC  C311 4400   3.837   0.176   9.151 -0.6208 -0.3522 -0.1164
   58SAPC  H11X 4401   3.804   0.093   9.216  0.6034  0.7603  1.9623
   58SAPC  H11Y 4402   3.948   0.169   9.141 -0.7687 -2.2514 -0.6321
   58SAPC  C312 4403   3.779   0.177   9.013 -0.0763 -0.6749 -0.6646
   58SAPC  H12X 4404   3.811   0.266   8.954 -0.3650 -1.0614 -1.4020
   58SAPC  H12Y 4405   3.669   0.187   9.009  0.0933  1.2839 -0.8792
   58SAPC  C313 4406   3.814   0.054   8.935 -0.4542  0.7849 -0.7090
   58SAPC  H13X 4407   3.810  -0.040   8.994  1.3349  2.6014  2.4597
   58SAPC  H13Y 4408   3.918   0.075   8.901  0.2349  0.7707  1.3492
   58SAPC  C314 4409   3.723   0.029   8.818 -0.3269 -0.3610 -0.0486
   58SAPC  H14X 4410   3.620   0.016   8.858 -0.1293 -0.0032  0.5839
   58SAPC  H14Y 4411   3.739  -0.061   8.755  0.3538 -0.0408 -0.3355
   58SAPC  C315 4412   3.722   0.141   8.708 -0.2716  0.0792 -0.2901
   58SAPC  H15X 4413   3.815   0.132   8.647 -0.0166 -2.1881  0.3905
   58SAPC  H15Y 4414   3.717   0.238   8.763 -1.1024 -0.0633 -0.1058
   58SAPC  C316 4415   3.597   0.138   8.615  1.0410  0.0327  0.0100
   58SAPC  H16X 4416   3.505   0.148   8.676  2.0612  2.5698  1.1856
   58SAPC  H16Y 4417   3.601   0.044   8.556 -0.7458  0.3071 -0.5734
   58SAPC  C317 4418   3.600   0.249   8.511  0.2809  0.1641  0.2035
   58SAPC  H17X 4419   3.511   0.228   8.449 -0.8803 -2.4544  2.6442
   58SAPC  H17Y 4420   3.692   0.250   8.450  0.7529 -0.7437  0.8888
   58SAPC  C318 4421   3.587   0.396   8.566 -0.1626  0.0638 -0.5171
   58SAPC  H18X 4422   3.562   0.460   8.478  2.1648  0.7554 -0.7210
   58SAPC  H18Y 4423   3.684   0.428   8.611 -0.4783  2.5215 -1.4588
   58SAPC  H18Z 4424   3.509   0.399   8.645  0.8430  0.2453  0.4900
   59SAPC     N 4425   4.182   1.497  10.866  0.9760  0.0732 -0.1130
   59SAPC   C12 4426   4.231   1.487  11.009 -0.1579 -0.1075  0.4540
   59SAPC  H12A 4427   4.256   1.383  11.020  0.6488  0.0841  0.4638
   59SAPC  H12B 4428   4.145   1.512  11.070 -0.2707 -1.6923  0.9630
   59SAPC   C13 4429   4.270   1.418  10.781  0.1291  0.6832 -0.3447
   59SAPC  H13A 4430   4.244   1.410  10.677 -0.2091 -1.2126 -0.1282
   59SAPC  H13B 4431   4.365   1.471  10.779 -0.0751  1.0538 -0.2671
   59SAPC  H13C 4432   4.292   1.320  10.820  1.2864  0.6882 -0.9528
   59SAPC   C14 4433   4.040   1.434  10.866  0.2705  0.2848  0.8362
   59SAPC  H14A 4434   4.007   1.430  10.763 -0.7255  0.5992  1.1389
   59SAPC  H14B 4435   4.052   1.336  10.912 -1.4141 -0.7230 -0.7890
   59SAPC  H14C 4436   3.968   1.498  10.915 -0.5732  0.4338 -0.5729
   59SAPC   C15 4437   4.179   1.638  10.813 -0.2711 -0.2147 -0.7484
   59SAPC  H15A 4438   4.113   1.698  10.874 -0.7611 -0.4780 -1.0137
   59SAPC  H15B 4439   4.278   1.681  10.815  0.5554 -2.1223  0.4778
   59SAPC  H15C 4440   4.142   1.636  10.712  0.8741  0.9440 -1.1932
   59SAPC   C11 4441   4.366   1.552  11.038  0.6820  0.1347 -0.4808
   59SAPC  H11A 4442   4.374   1.536  11.148 -2.5568 -1.0887 -0.3706
   59SAPC  H11B 4443   4.367   1.660  11.014  0.3325 -0.0879 -1.5214
   59SAPC     P 4444   4.622   1.500  11.024 -0.2536 -0.4710 -0.7318
   59SAPC   O13 4445   4.624   1.504  11.174 -1.0520 -0.4359  1.0725
   59SAPC   O14 4446   4.706   1.404  10.956 -0.4711 -0.0631  0.2145
   59SAPC   O12 4447   4.471   1.480  10.971  0.4334 -0.0551 -0.0493
   59SAPC   O11 4448   4.657   1.646  10.979  0.1540  0.0179 -0.5093
   59SAPC    C1 4449   4.639   1.696  10.842  0.4833 -0.3611 -0.1062
   59SAPC    HA 4450   4.539   1.661  10.808  0.0904  1.3571 -0.7979
   59SAPC    HB 4451   4.645   1.807  10.833  0.7217 -0.2803  1.0539
   59SAPC    C2 4452   4.747   1.641  10.745 -0.1782 -1.0463  0.0365
   59SAPC    HS 4453   4.758   1.534  10.772 -0.8482 -1.2212 -0.3637
   59SAPC   O21 4454   4.869   1.710  10.775  0.2982 -0.3138  0.0375
   59SAPC   C21 4455   4.974   1.637  10.753 -0.1255  0.0641 -0.2871
   59SAPC   O22 4456   4.974   1.522  10.708  0.4664  0.0840 -0.5484
   59SAPC   C22 4457   5.102   1.709  10.789  0.2324 -0.4902 -0.1797
   59SAPC   H2R 4458   5.100   1.816  10.758 -1.3192 -0.4811 -0.0952
   59SAPC   H2S 4459   5.114   1.707  10.899  0.9784  0.4087 -0.2356
   59SAPC    C3 4460   4.706   1.669  10.596  0.4737 -0.2739 -0.0523
   59SAPC    HX 4461   4.705   1.777  10.570 -0.0562 -0.1796  0.3502
   59SAPC    HY 4462   4.600   1.635  10.589  0.8964 -1.1917 -2.5987
   59SAPC   O31 4463   4.780   1.588  10.502 -0.1437 -0.3616 -0.5858
   59SAPC   C31 4464   4.885   1.638  10.450 -0.2965 -0.0897  0.2986
   59SAPC   O32 4465   4.939   1.747  10.475 -0.9103  0.0965  0.0115
   59SAPC   C32 4466   4.931   1.555  10.325 -0.4224  0.4434  0.2858
   59SAPC   H2X 4467   4.920   1.448  10.351 -0.6862  0.2703 -0.5346
   59SAPC   H2Y 4468   5.039   1.574  10.306 -0.8527  3.1636  0.3485
   59SAPC   C23 4469   5.230   1.639  10.730  0.0413  0.3020 -0.8361
   59SAPC   H3R 4470   5.211   1.617  10.622  0.7828 -0.4643 -0.8161
   59SAPC   H3S 4471   5.256   1.543  10.780  0.2223  1.3357  1.0711
   59SAPC   C24 4472   5.364   1.723  10.738 -0.4178  0.0722  0.0968
   59SAPC   H4R 4473   5.448   1.661  10.701 -0.5825  0.1842 -0.4831
   59SAPC   H4S 4474   5.369   1.746  10.846 -1.3941 -0.4564  0.2640
   59SAPC   C25 4475   5.360   1.843  10.649  0.2709 -0.6208 -0.4327
   59SAPC   H5R 4476   5.264   1.895  10.633  1.1905  0.6304 -2.0743
   59SAPC   C26 4477   5.469   1.888  10.579 -0.2128 -0.2403 -0.3955
   59SAPC   H6R 4478   5.441   1.985  10.538  0.1804  0.7306  1.5665
   59SAPC   C27 4479   5.615   1.847  10.589 -0.4709 -0.1241 -1.0502
   59SAPC   H7R 4480   5.633   1.778  10.504 -0.6006  0.7455 -1.7893
   59SAPC   H7S 4481   5.631   1.791  10.684  1.2150  0.7817 -0.7705
   59SAPC   C28 4482   5.703   1.970  10.575 -0.0355 -0.6103 -1.1785
   59SAPC   H8R 4483   5.703   2.034  10.665  2.0324 -0.6991 -1.1029
   59SAPC   C29 4484   5.777   2.012  10.472  0.6499 -0.4035  0.4310
   59SAPC   H9R 4485   5.821   2.113  10.476  2.4435 -1.1498  0.1494
   59SAPC  C210 4486   5.786   1.935  10.340  0.3840 -0.2579 -0.3069
   59SAPC  H10R 4487   5.772   1.828  10.366  2.5324  0.2125  3.1278
   59SAPC  H10S 4488   5.892   1.933  10.306  0.8189  1.4001  0.8857
   59SAPC  C211 4489   5.676   1.954  10.235  0.3072 -0.4653 -0.0455
   59SAPC  H11R 4490   5.569   1.956  10.261  0.3107 -0.7732 -0.0013
   59SAPC  C212 4491   5.704   1.959  10.107  0.5412  0.4287  1.0867
   59SAPC  H12R 4492   5.616   1.972  10.042  0.6757 -1.7557  0.4384
   59SAPC  C213 4493   5.842   1.936  10.042 -0.6817  0.1032  0.4441
   59SAPC  H13R 4494   5.836   1.892   9.941  0.2951 -1.3508  0.9926
   59SAPC  H13S 4495   5.902   1.862  10.100 -0.1613 -0.2154 -0.4965
   59SAPC  C214 4496   5.900   2.076  10.040 -0.6254  0.1594  0.3805
   59SAPC  H14R 4497   5.911   2.132  10.134  0.4243  1.2113 -0.3510
   59SAPC  C215 4498   5.955   2.137   9.929  0.0900 -0.0651  0.3285
   59SAPC  H15R 4499   5.990   2.242   9.927 -1.0733  0.3086 -1.2630
   59SAPC  C216 4500   5.965   2.075   9.793  0.2534 -0.0435  0.3479
   59SAPC  H16R 4501   5.877   2.012   9.771  1.0207 -1.6002  1.6144
   59SAPC  H16S 4502   6.042   1.994   9.790  1.3728  1.0127  0.1789
   59SAPC  C217 4503   6.007   2.167   9.678  0.0610 -0.2569  0.1136
   59SAPC  H17R 4504   6.109   2.206   9.695 -0.6176  2.2455 -1.3812
   59SAPC  H17S 4505   5.942   2.257   9.672  0.6834  0.3710  2.1971
   59SAPC  C218 4506   6.009   2.089   9.552 -0.4105 -0.4472 -0.0299
   59SAPC  H18R 4507   5.908   2.050   9.527  0.8508 -3.8195 -0.1416
   59SAPC  H18S 4508   6.068   1.999   9.579  1.1397  0.5620 -0.0478
   59SAPC  C219 4509   6.068   2.177   9.437  0.0140 -0.6810 -0.1404
   59SAPC  H19R 4510   6.169   2.222   9.449 -0.3445  0.3512 -0.8952
   59SAPC  H19S 4511   5.993   2.256   9.415 -1.0599 -3.0037 -5.6733
   59SAPC  C220 4512   6.079   2.090   9.309 -0.2497  0.2430  0.4770
   59SAPC  H20R 4513   6.079   2.151   9.216 -1.0642  0.8023  0.8435
   59SAPC  H20S 4514   5.991   2.022   9.305 -1.4052  1.5611  2.8248
   59SAPC  H20T 4515   6.165   2.019   9.309 -1.2006 -0.9377 -0.8411
   59SAPC   C33 4516   4.848   1.582  10.197 -0.5564 -0.5055  0.3606
   59SAPC   H3X 4517   4.829   1.690  10.180 -0.7513 -0.7136 -0.7688
   59SAPC   H3Y 4518   4.752   1.532  10.222 -0.4476  0.2793  2.4865
   59SAPC   C34 4519   4.906   1.542  10.066  0.0667  0.0327 -0.0105
   59SAPC   H4X 4520   4.914   1.431  10.058  1.0266  0.1470 -0.6979
   59SAPC   H4Y 4521   5.003   1.596  10.061  1.3480 -2.1590  0.2425
   59SAPC   C35 4522   4.833   1.595   9.943 -0.6443 -0.2814  0.2745
   59SAPC   H5X 4523   4.836   1.705   9.929 -1.1223 -0.2357  0.5192
   59SAPC   H5Y 4524   4.726   1.572   9.960 -0.7949  0.8671  0.9072
   59SAPC   C36 4525   4.899   1.533   9.823 -0.2932 -0.6394 -0.1296
   59SAPC   H6X 4526   4.886   1.423   9.815 -1.7100 -0.4217 -1.1254
   59SAPC   H6Y 4527   5.006   1.558   9.835 -0.7346  2.2408 -1.6000
   59SAPC   C37 4528   4.857   1.598   9.701  0.5828  0.4194 -0.0158
   59SAPC   H7X 4529   4.889   1.704   9.717 -0.4453  0.8233 -0.5616
   59SAPC   H7Y 4530   4.746   1.607   9.702  0.6829  1.9196 -0.7496
   59SAPC   C38 4531   4.915   1.538   9.573  0.3624  0.4664 -0.1302
   59SAPC   H8X 4532   4.854   1.447   9.553  2.6656 -0.8407 -1.4449
   59SAPC   H8Y 4533   5.017   1.497   9.589 -0.1493 -0.6779  0.2667
   59SAPC   C39 4534   4.909   1.625   9.452  1.0046  0.8413  0.4379
   59SAPC   H9X 4535   4.949   1.728   9.460 -0.1182  1.2663  0.5684
   59SAPC   H9Y 4536   4.801   1.650   9.446  1.2112  1.5727 -0.2971
   59SAPC  C310 4537   4.955   1.560   9.321  0.5192 -0.2303  0.0328
   59SAPC  H10X 4538   4.903   1.462   9.309  0.9175 -0.1898 -2.1794
   59SAPC  H10Y 4539   5.064   1.538   9.322  0.3238 -1.3702 -1.4086
   59SAPC  C311 4540   4.932   1.649   9.198 -0.5457 -0.1733 -0.4345
   59SAPC  H11X 4541   4.988   1.595   9.119  1.1004 -2.0091  1.9239
   59SAPC  H11Y 4542   4.972   1.752   9.213 -1.1595 -0.0048  0.0532
   59SAPC  C312 4543   4.789   1.671   9.151  0.1733 -0.3276  0.7179
   59SAPC  H12X 4544   4.745   1.744   9.222  2.4085  2.4461 -0.6381
   59SAPC  H12Y 4545   4.746   1.569   9.142  1.9465 -0.9563 -0.9670
   59SAPC  C313 4546   4.779   1.765   9.032  0.5811  0.9920  0.0349
   59SAPC  H13X 4547   4.859   1.841   9.050 -0.3872  2.3428 -1.2494
   59SAPC  H13Y 4548   4.683   1.820   9.022 -0.4698 -0.7990  0.1226
   59SAPC  C314 4549   4.796   1.692   8.894  0.6908 -0.1498  0.1542
   59SAPC  H14X 4550   4.741   1.749   8.816  2.3054 -0.9976 -1.6484
   59SAPC  H14Y 4551   4.745   1.594   8.897 -1.0886  0.7525  0.3174
   59SAPC  C315 4552   4.941   1.686   8.842 -0.1238  0.8892 -0.2943
   59SAPC  H15X 4553   4.999   1.612   8.902 -0.4837  1.6529  1.0307
   59SAPC  H15Y 4554   4.995   1.782   8.855 -0.8862  1.2216  0.4687
   59SAPC  C316 4555   4.952   1.649   8.698 -0.0586 -0.2964 -0.3824
   59SAPC  H16X 4556   4.854   1.604   8.669  0.5080 -1.6854 -0.1556
   59SAPC  H16Y 4557   5.038   1.585   8.670  0.1264 -1.4276  2.6570
   59SAPC  C317 4558   4.962   1.785   8.630  0.1196 -0.2800 -0.1514
   59SAPC  H17X 4559   5.056   1.833   8.663  0.0685  0.2853 -0.8208
   59SAPC  H17Y 4560   4.882   1.851   8.671 -0.6988 -0.6232 -1.1778
   59SAPC  C318 4561   4.973   1.780   8.478 -0.2821 -0.0580 -0.0194
   59SAPC  H18X 4562   4.878   1.738   8.438  0.1182 -1.6379  0.6469
   59SAPC  H18Y 4563   5.051   1.705   8.455 -0.0912 -0.2015  1.0573
   59SAPC  H18Z 4564   4.986   1.878   8.428  0.2536 -0.3206 -0.3921
   60SAPC     N 4565   0.538   0.469  11.090  0.8437  0.5425 -0.2497
   60SAPC   C12 4566   0.514   0.429  10.943 -0.0918 -0.3066 -0.3777
   60SAPC  H12A 4567   0.513   0.322  10.927 -0.4720 -0.2149 -1.0027
   60SAPC  H12B 4568   0.605   0.451  10.889 -0.8451  1.0889 -1.1235
   60SAPC   C13 4569   0.412   0.470  11.171  0.1998 -0.5354  0.3037
   60SAPC  H13A 4570   0.438   0.477  11.276 -1.1062  2.6366  0.4732
   60SAPC  H13B 4571   0.347   0.553  11.148 -0.4473 -1.2758 -0.5550
   60SAPC  H13C 4572   0.373   0.371  11.156  1.4871 -0.8141 -1.3172
   60SAPC   C14 4573   0.631   0.372  11.150  0.4034 -0.1077 -0.6142
   60SAPC  H14A 4574   0.726   0.365  11.100  1.4948  2.1602  1.0509
   60SAPC  H14B 4575   0.655   0.400  11.252  1.2404 -0.4123 -0.7264
   60SAPC  H14C 4576   0.590   0.273  11.133 -1.0992  0.1601  1.2272
   60SAPC   C15 4577   0.586   0.607  11.100  0.4308 -0.0147  0.1623
   60SAPC  H15A 4578   0.608   0.643  11.199 -2.3925  0.1560  0.7967
   60SAPC  H15B 4579   0.676   0.620  11.043  1.6307 -0.4562  1.9249
   60SAPC  H15C 4580   0.507   0.672  11.064 -0.2298  0.4694  2.3787
   60SAPC   C11 4581   0.392   0.492  10.861 -0.4936 -0.0368 -0.3109
   60SAPC  H11A 4582   0.292   0.473  10.904 -0.4305 -2.0844 -1.0353
   60SAPC  H11B 4583   0.384   0.453  10.757 -0.9784 -0.5890 -0.0706
   60SAPC     P 4584   0.486   0.713  10.749  0.0502 -0.1337  0.0645
   60SAPC   O13 4585   0.535   0.834  10.816 -0.2050 -0.0735  0.2348
   60SAPC   O14 4586   0.591   0.614  10.697 -0.1117  0.0458  0.1157
   60SAPC   O12 4587   0.409   0.636  10.856  0.0601 -0.1139  0.1283
   60SAPC   O11 4588   0.393   0.751  10.630 -0.7265 -0.2220 -0.7563
   60SAPC    C1 4589   0.264   0.695  10.613 -0.0802 -0.0499  0.4080
   60SAPC    HA 4590   0.263   0.585  10.623 -1.4072  0.0199  1.1389
   60SAPC    HB 4591   0.202   0.728  10.699 -1.1690  0.0511 -0.4152
   60SAPC    C2 4592   0.204   0.746  10.478  0.0210 -0.4828  0.1961
   60SAPC    HS 4593   0.153   0.844  10.488  1.0206 -0.0325  0.8787
   60SAPC   O21 4594   0.118   0.646  10.420  0.4292  0.7952 -0.0440
   60SAPC   C21 4595   0.033   0.591  10.502  0.0560  0.0047  0.4009
   60SAPC   O22 4596   0.001   0.621  10.618 -0.7205 -0.3749  0.3212
   60SAPC   C22 4597  -0.029   0.476  10.423  0.1789 -0.5149  0.6705
   60SAPC   H2R 4598   0.058   0.410  10.406 -0.2853 -1.0569  0.4045
   60SAPC   H2S 4599  -0.103   0.422  10.485  0.0596 -1.8114 -0.5796
   60SAPC    C3 4600   0.315   0.759  10.375 -0.5885 -0.0853  0.1613
   60SAPC    HX 4601   0.384   0.676  10.401 -1.3464 -0.3752  1.2852
   60SAPC    HY 4602   0.375   0.851  10.392  0.1789 -0.4010 -0.7501
   60SAPC   O31 4603   0.263   0.755  10.242  0.1486 -0.1702 -0.2270
   60SAPC   C31 4604   0.283   0.651  10.169  0.8040 -0.5493 -0.2104
   60SAPC   O32 4605   0.332   0.545  10.204  0.3747 -0.2370  0.4695
   60SAPC   C32 4606   0.208   0.672  10.038  0.2560  0.4311 -0.2408
   60SAPC   H2X 4607   0.105   0.693  10.074 -0.5518  0.5806 -2.6021
   60SAPC   H2Y 4608   0.218   0.580   9.977  0.0818  0.2785 -0.0428
   60SAPC   C23 4609  -0.093   0.517  10.288 -0.7173 -0.2162  0.6085
   60SAPC   H3R 4610  -0.021   0.575  10.227 -0.9594 -2.4383 -1.8904
   60SAPC   H3S 4611  -0.186   0.576  10.299 -0.2713  0.0836  3.0026
   60SAPC   C24 4612  -0.138   0.392  10.197  0.1354  0.4142  0.2509
   60SAPC   H4R 4613  -0.225   0.430  10.140  0.0543 -1.9041 -1.2273
   60SAPC   H4S 4614  -0.183   0.313  10.262 -0.7647 -0.4646 -1.4081
   60SAPC   C25 4615  -0.031   0.337  10.114 -0.3463 -0.1396  0.5887
   60SAPC   H5R 4616   0.038   0.273  10.172 -1.1666 -2.3168 -0.7758
   60SAPC   C26 4617  -0.016   0.333   9.980 -0.3478 -0.0086 -1.7204
   60SAPC   H6R 4618   0.065   0.277   9.932 -0.3466  0.7870 -2.6821
   60SAPC   C27 4619  -0.108   0.404   9.881  0.6633  0.2628 -0.1003
   60SAPC   H7R 4620  -0.070   0.508   9.875 -0.1804  0.5004 -1.5457
   60SAPC   H7S 4621  -0.210   0.385   9.921  0.8217 -1.3799 -0.4463
   60SAPC   C28 4622  -0.117   0.336   9.743  0.8191  0.1532  0.1317
   60SAPC   H8R 4623  -0.142   0.229   9.748  1.6751  0.0060  1.4205
   60SAPC   C29 4624  -0.077   0.384   9.622 -0.6854 -0.5153  0.2672
   60SAPC   H9R 4625  -0.095   0.326   9.530  1.7467 -1.1410  0.1521
   60SAPC  C210 4626  -0.017   0.514   9.586 -0.2452  0.5220  0.1905
   60SAPC  H10R 4627   0.030   0.569   9.671  1.5714  0.6058 -0.8346
   60SAPC  H10S 4628  -0.106   0.564   9.544 -0.4491  0.5709  0.6749
   60SAPC  C211 4629   0.087   0.500   9.485 -0.6420  0.3489 -0.9809
   60SAPC  H11R 4630   0.178   0.464   9.535 -1.7478  0.6343  1.3010
   60SAPC  C212 4631   0.080   0.543   9.358 -0.3986 -0.2410  0.3210
   60SAPC  H12R 4632   0.173   0.533   9.300 -0.9143  1.0795 -0.7603
   60SAPC  C213 4633  -0.030   0.609   9.274 -0.1835 -0.0682 -0.4178
   60SAPC  H13R 4634   0.019   0.670   9.195  0.8752 -1.8381 -1.1641
   60SAPC  H13S 4635  -0.081   0.685   9.336 -2.5741 -0.2661 -2.0692
   60SAPC  C214 4636  -0.135   0.510   9.238  0.0374 -0.2305  0.5076
   60SAPC  H14R 4637  -0.219   0.499   9.308 -0.6501  0.9672 -0.1107
   60SAPC  C215 4638  -0.150   0.446   9.121 -0.4549 -0.3326 -0.4229
   60SAPC  H15R 4639  -0.240   0.387   9.097 -0.6850  0.1559 -0.7590
   60SAPC  C216 4640  -0.049   0.449   9.015 -0.1019  0.6431 -0.1090
   60SAPC  H16R 4641  -0.034   0.351   8.965 -0.2652 -0.8975  2.7496
   60SAPC  H16S 4642   0.050   0.472   9.061  0.9787 -3.8926  0.0688
   60SAPC  C217 4643  -0.076   0.551   8.908 -0.4374  0.8719 -0.1636
   60SAPC  H17R 4644  -0.116   0.647   8.947  0.4589  1.0433  0.3321
   60SAPC  H17S 4645  -0.145   0.518   8.827  0.3221  1.3746 -1.0222
   60SAPC  C218 4646   0.061   0.575   8.834  0.1382 -0.0115 -0.2851
   60SAPC  H18R 4647   0.132   0.615   8.909 -1.2905 -0.1170  1.1354
   60SAPC  H18S 4648   0.040   0.650   8.754 -2.5955  0.3358  0.7193
   60SAPC  C219 4649   0.146   0.460   8.779  0.0094 -0.6312  0.3222
   60SAPC  H19R 4650   0.193   0.410   8.866 -1.7307  0.7311  2.0817
   60SAPC  H19S 4651   0.224   0.503   8.712 -0.1527  0.6912  0.9594
   60SAPC  C220 4652   0.065   0.367   8.689 -0.4073 -0.7609 -0.1267
   60SAPC  H20R 4653   0.014   0.431   8.614  3.3879 -0.4325 -2.5047
   60SAPC  H20S 4654  -0.011   0.314   8.751  0.7593  0.3223  2.3255
   60SAPC  H20T 4655   0.136   0.297   8.642 -0.1617 -0.5072 -0.1347
   60SAPC   C33 4656   0.251   0.799   9.967 -0.4988 -0.3971  0.1252
   60SAPC   H3X 4657   0.231   0.889  10.029 -1.3348 -1.7025  1.8115
   60SAPC   H3Y 4658   0.192   0.821   9.875 -1.4908  0.3785  0.9383
   60SAPC   C34 4659   0.395   0.803   9.923 -0.0609 -0.2391 -0.0868
   60SAPC   H4X 4660   0.469   0.779  10.003  1.6408  2.6564 -0.7119
   60SAPC   H4Y 4661   0.417   0.902   9.878 -0.1737  0.1084  0.6217
   60SAPC   C35 4662   0.428   0.698   9.817  0.0192  0.5462 -0.5884
   60SAPC   H5X 4663   0.364   0.714   9.728 -0.9085 -0.1819 -0.0529
   60SAPC   H5Y 4664   0.400   0.598   9.856  0.2600  1.1376  1.1379
   60SAPC   C36 4665   0.571   0.693   9.762  0.3751 -0.2505  0.0352
   60SAPC   H6X 4666   0.640   0.652   9.839  1.2234 -0.3129 -0.7468
   60SAPC   H6Y 4667   0.600   0.800   9.752 -1.6163  0.1490 -2.0826
   60SAPC   C37 4668   0.585   0.620   9.619 -0.3672 -0.1334  0.3574
   60SAPC   H7X 4669   0.528   0.524   9.613  1.6320 -1.2698 -0.9430
   60SAPC   H7Y 4670   0.692   0.611   9.594 -0.0564  1.7767  0.9691
   60SAPC   C38 4671   0.518   0.704   9.502 -0.0577 -0.1659 -0.1825
   60SAPC   H8X 4672   0.542   0.812   9.507  0.7528 -0.3390 -0.3340
   60SAPC   H8Y 4673   0.407   0.700   9.500 -0.0162 -0.6252 -2.4944
   60SAPC   C39 4674   0.573   0.650   9.366 -0.0537  0.6731  0.3601
   60SAPC   H9X 4675   0.550   0.542   9.361  1.6204  0.3385 -0.4987
   60SAPC   H9Y 4676   0.683   0.656   9.360  0.1895 -3.4067 -0.8658
   60SAPC  C310 4677   0.497   0.699   9.247 -0.7736  0.1724 -0.0544
   60SAPC  H10X 4678   0.504   0.810   9.239 -0.8314  0.1874  0.0957
   60SAPC  H10Y 4679   0.395   0.655   9.258 -0.7323 -0.2233 -1.2215
   60SAPC  C311 4680   0.555   0.619   9.124  0.1884 -1.3174 -0.0670
   60SAPC  H11X 4681   0.557   0.511   9.146  0.5277 -0.8437  2.3887
   60SAPC  H11Y 4682   0.657   0.659   9.102 -0.5890  0.9204  0.1868
   60SAPC  C312 4683   0.465   0.645   9.000 -0.2323  0.0496  0.6634
   60SAPC  H12X 4684   0.444   0.753   8.988 -1.4384 -0.4083 -1.5133
   60SAPC  H12Y 4685   0.370   0.596   9.029 -0.4996  0.2870  0.1798
   60SAPC  C313 4686   0.514   0.577   8.871  0.7287  0.1622 -0.1959
   60SAPC  H13X 4687   0.438   0.572   8.791  1.4384  1.8549 -0.9940
   60SAPC  H13Y 4688   0.537   0.470   8.892 -1.6439 -0.2424  0.5264
   60SAPC  C314 4689   0.642   0.643   8.804 -0.7727 -0.1518  0.0641
   60SAPC  H14X 4690   0.720   0.653   8.883 -0.3478  2.3032 -0.6218
   60SAPC  H14Y 4691   0.612   0.743   8.766  0.7198 -0.4338 -1.9429
   60SAPC  C315 4692   0.705   0.561   8.692 -0.0463  0.2232 -0.4681
   60SAPC  H15X 4693   0.621   0.536   8.624 -1.8203  2.5174  0.7735
   60SAPC  H15Y 4694   0.739   0.459   8.720  0.8592  0.6407 -0.0322
   60SAPC  C316 4695   0.811   0.634   8.606 -0.1575 -0.4592  0.6712
   60SAPC  H16X 4696   0.852   0.569   8.527 -1.4996 -1.3235  0.6652
   60SAPC  H16Y 4697   0.901   0.664   8.663 -0.4957  3.1171 -0.5018
   60SAPC  C317 4698   0.756   0.762   8.538  0.2152 -0.1265  0.8887
   60SAPC  H17X 4699   0.758   0.848   8.609 -0.9230  0.4713  0.2078
   60SAPC  H17Y 4700   0.653   0.739   8.504  0.2643 -0.6851  1.1131
   60SAPC  C318 4701   0.840   0.814   8.422  0.2689 -0.4774 -1.0181
   60SAPC  H18X 4702   0.816   0.917   8.390 -0.0069 -0.6396 -1.3399
   60SAPC  H18Y 4703   0.835   0.743   8.337  0.4038 -1.6578 -0.0658
   60SAPC  H18Z 4704   0.945   0.828   8.455 -0.4975 -0.4038  1.5084
   61SAPC     N 4705   1.542   6.318  10.874  0.0259  0.2697  0.4070
   61SAPC   C12 4706   1.419   6.245  10.922 -0.7031 -0.7068 -0.1803
   61SAPC  H12A 4707   1.419   6.242  11.030  1.4483  2.8547  0.0119
   61SAPC  H12B 4708   1.427   6.144  10.883  0.9535 -0.3887 -0.6954
   61SAPC   C13 4709   1.513   6.467  10.866  0.3833 -0.1682 -0.7391
   61SAPC  H13A 4710   1.574   6.541  10.816  1.3078 -0.9542 -0.7910
   61SAPC  H13B 4711   1.414   6.482  10.825  0.1999 -0.6641 -0.4889
   61SAPC  H13C 4712   1.514   6.506  10.966 -0.2721  1.5337 -1.3862
   61SAPC   C14 4713   1.664   6.285  10.969  0.7427 -0.4190 -0.3000
   61SAPC  H14A 4714   1.697   6.183  10.968  1.0467 -0.3528  1.4825
   61SAPC  H14B 4715   1.753   6.345  10.956 -0.1923  1.4091  1.3547
   61SAPC  H14C 4716   1.639   6.294  11.074  0.7831 -3.2560 -0.0304
   61SAPC   C15 4717   1.586   6.273  10.739 -0.0040  0.8170 -0.1888
   61SAPC  H15A 4718   1.568   6.169  10.719  0.9564  0.5239  0.3970
   61SAPC  H15B 4719   1.526   6.326  10.668 -1.8845  1.0220  1.5153
   61SAPC  H15C 4720   1.688   6.290  10.707 -0.0793  0.7320 -0.4755
   61SAPC   C11 4721   1.275   6.289  10.868 -0.5025 -0.7758  0.0791
   61SAPC  H11A 4722   1.263   6.399  10.875 -1.7186 -0.7915 -1.4429
   61SAPC  H11B 4723   1.196   6.248  10.934  0.6505 -0.4412  1.6965
   61SAPC     P 4724   1.221   6.099  10.708 -0.3078  0.1995  0.2846
   61SAPC   O13 4725   1.267   6.008  10.819 -0.3445 -0.0768  1.0974
   61SAPC   O14 4726   1.084   6.086  10.650  0.4055  0.1924 -0.3677
   61SAPC   O12 4727   1.253   6.249  10.733 -1.0115 -0.1848 -0.4457
   61SAPC   O11 4728   1.322   6.073  10.584 -0.2487 -0.0722 -0.5289
   61SAPC    C1 4729   1.308   6.156  10.469  0.3814 -0.2590  0.2730
   61SAPC    HA 4730   1.251   6.249  10.489  0.3863 -0.3241  0.6103
   61SAPC    HB 4731   1.402   6.200  10.430  0.2554 -0.9849 -0.8789
   61SAPC    C2 4732   1.247   6.067  10.367 -0.0409  0.0342 -0.3516
   61SAPC    HS 4733   1.146   6.044  10.406 -0.2300  1.4817  0.0360
   61SAPC   O21 4734   1.331   5.944  10.365  0.3425 -0.0651 -0.3496
   61SAPC   C21 4735   1.272   5.832  10.331  0.1104  0.5345  0.3889
   61SAPC   O22 4736   1.152   5.817  10.313  0.2370  0.3017 -0.3141
   61SAPC   C22 4737   1.383   5.722  10.349 -0.3308 -0.0932 -0.7395
   61SAPC   H2R 4738   1.453   5.742  10.433  0.1800 -0.6337 -1.0364
   61SAPC   H2S 4739   1.318   5.636  10.376  0.8521 -1.0811 -1.0230
   61SAPC    C3 4740   1.234   6.127  10.229  0.1294 -0.0262 -0.5560
   61SAPC    HX 4741   1.200   6.045  10.162 -1.4837 -0.1130  0.3481
   61SAPC    HY 4742   1.334   6.157  10.189  1.2506  1.2660  3.0424
   61SAPC   O31 4743   1.147   6.244  10.224 -0.0118  0.5245  0.2700
   61SAPC   C31 4744   1.209   6.361  10.235  0.2532 -0.2300  0.2654
   61SAPC   O32 4745   1.329   6.379  10.261  0.4101  0.1758 -0.3124
   61SAPC   C32 4746   1.116   6.479  10.210 -0.5160  0.3193  0.4731
   61SAPC   H2X 4747   1.115   6.541  10.302  1.5483 -0.8267  1.2843
   61SAPC   H2Y 4748   1.012   6.448  10.184 -0.6409  0.0905  1.2388
   61SAPC   C23 4749   1.447   5.683  10.220 -0.6453 -0.5419  0.2670
   61SAPC   H3R 4750   1.529   5.615  10.252 -0.1794 -1.1591 -2.1510
   61SAPC   H3S 4751   1.489   5.773  10.171  0.1799 -1.7708 -1.3275
   61SAPC   C24 4752   1.354   5.624  10.110 -0.5792  1.0867 -0.6507
   61SAPC   H4R 4753   1.279   5.694  10.067  0.1190  3.3880  1.7124
   61SAPC   H4S 4754   1.276   5.570  10.168  1.4759  1.3306  2.4593
   61SAPC   C25 4755   1.409   5.536  10.008  0.1400  0.3367 -0.0606
   61SAPC   H5R 4756   1.441   5.436  10.042 -0.7593 -0.5909 -1.8546
   61SAPC   C26 4757   1.451   5.563   9.885  1.0173  0.6427 -0.2126
   61SAPC   H6R 4758   1.480   5.480   9.819 -1.3945  0.2798 -0.8357
   61SAPC   C27 4759   1.445   5.698   9.819 -0.5587  0.4564 -0.3397
   61SAPC   H7R 4760   1.551   5.723   9.799  0.3329 -1.7770  1.3645
   61SAPC   H7S 4761   1.406   5.780   9.883 -1.4965  0.3512 -0.7606
   61SAPC   C28 4762   1.355   5.695   9.694  0.0796  0.4816 -0.5323
   61SAPC   H8R 4763   1.253   5.725   9.719  1.4166  2.7372  2.5327
   61SAPC   C29 4764   1.381   5.683   9.564  0.2857 -0.5420 -0.1101
   61SAPC   H9R 4765   1.294   5.704   9.500 -0.6563  0.0285  1.3364
   61SAPC  C210 4766   1.522   5.672   9.505 -0.9456 -0.2162 -0.4171
   61SAPC  H10R 4767   1.598   5.665   9.586  1.6643  2.4937 -2.4790
   61SAPC  H10S 4768   1.547   5.769   9.456 -3.1586  0.1824 -0.7803
   61SAPC  C211 4769   1.534   5.554   9.410  0.8635  0.5724  0.2148
   61SAPC  H11R 4770   1.580   5.463   9.451 -0.2990  0.8761  2.2845
   61SAPC  C212 4771   1.488   5.555   9.285 -0.1796  0.4747  0.7465
   61SAPC  H12R 4772   1.497   5.464   9.223  2.6507  0.8568  0.5076
   61SAPC  C213 4773   1.418   5.669   9.214  0.3381 -0.2062  0.0339
   61SAPC  H13R 4774   1.409   5.754   9.285 -2.3736 -0.2086 -0.2383
   61SAPC  H13S 4775   1.318   5.646   9.172  1.5978 -2.6775 -1.7610
   61SAPC  C214 4776   1.513   5.718   9.109  0.3290  0.0506  0.2057
   61SAPC  H14R 4777   1.603   5.765   9.150  0.6127  0.9046 -1.3759
   61SAPC  C215 4778   1.499   5.714   8.974  0.3705 -0.2713 -0.3166
   61SAPC  H15R 4779   1.576   5.762   8.912  1.6316  0.9938  2.1463
   61SAPC  C216 4780   1.387   5.652   8.898 -0.5413  0.0245  0.4124
   61SAPC  H16R 4781   1.321   5.588   8.961 -1.8965  1.0662  0.0779
   61SAPC  H16S 4782   1.419   5.582   8.818  1.0581  0.1009  0.9578
   61SAPC  C217 4783   1.286   5.752   8.830  0.0458 -0.3717  0.3408
   61SAPC  H17R 4784   1.278   5.845   8.890  2.4278  0.4743 -0.5946
   61SAPC  H17S 4785   1.189   5.699   8.835  0.7227 -1.4896  1.9994
   61SAPC  C218 4786   1.309   5.791   8.682 -0.4502 -0.2802  0.1444
   61SAPC  H18R 4787   1.226   5.855   8.643  2.1015  2.2996 -1.2811
   61SAPC  H18S 4788   1.302   5.699   8.621 -0.8701 -0.6067  0.6868
   61SAPC  C219 4789   1.447   5.860   8.666  0.1508 -0.1391  0.2083
   61SAPC  H19R 4790   1.527   5.784   8.684  0.3328  0.8679  4.2039
   61SAPC  H19S 4791   1.457   5.931   8.751  1.5715  0.3784 -0.3934
   61SAPC  C220 4792   1.460   5.935   8.531 -0.8008 -0.3437  0.1808
   61SAPC  H20R 4793   1.395   6.026   8.526 -0.0141  0.3844  2.3609
   61SAPC  H20S 4794   1.433   5.873   8.443 -0.0234 -0.5268  0.0632
   61SAPC  H20T 4795   1.563   5.976   8.518 -0.8791  0.1758  1.1239
   61SAPC   C33 4796   1.153   6.571  10.094  0.3641  0.2978 -0.2661
   61SAPC   H3X 4797   1.257   6.611  10.104 -0.0680  1.0703  1.2247
   61SAPC   H3Y 4798   1.080   6.653  10.081  0.2239  0.5054  1.6608
   61SAPC   C34 4799   1.151   6.505   9.955 -1.0791 -0.0462 -0.4982
   61SAPC   H4X 4800   1.057   6.447   9.952 -2.6538  2.3323  1.2252
   61SAPC   H4Y 4801   1.239   6.437   9.955 -0.2083  1.0079  2.2186
   61SAPC   C35 4802   1.166   6.603   9.843 -0.1573  0.3335  0.2993
   61SAPC   H5X 4803   1.263   6.656   9.837  0.0486 -0.2488 -2.1033
   61SAPC   H5Y 4804   1.082   6.676   9.847 -2.0861 -1.7555 -0.3455
   61SAPC   C36 4805   1.152   6.520   9.712 -0.0594  0.4987  0.1248
   61SAPC   H6X 4806   1.076   6.439   9.710  0.8552 -0.3512 -0.7543
   61SAPC   H6Y 4807   1.247   6.463   9.704 -1.4101 -1.6019 -1.6007
   61SAPC   C37 4808   1.128   6.599   9.579 -0.4713  0.0352  0.4852
   61SAPC   H7X 4809   1.150   6.708   9.588  2.6808 -0.5907  0.7097
   61SAPC   H7Y 4810   1.017   6.611   9.578 -0.4240  0.4739 -1.8349
   61SAPC   C38 4811   1.178   6.546   9.445 -0.3527 -0.5059  0.3930
   61SAPC   H8X 4812   1.163   6.437   9.435  1.0841 -0.6070 -0.9929
   61SAPC   H8Y 4813   1.288   6.566   9.445 -0.1408 -1.3877 -3.0047
   61SAPC   C39 4814   1.114   6.620   9.332 -0.0278 -0.1316  1.3346
   61SAPC   H9X 4815   1.136   6.727   9.352 -2.3077  0.8147 -0.8605
   61SAPC   H9Y 4816   1.004   6.606   9.337 -0.1075 -0.4042 -0.7277
   61SAPC  C310 4817   1.155   6.573   9.187  0.1355 -0.2786  0.2152
   61SAPC  H10X 4818   1.130   6.465   9.179 -1.1930  0.0458 -0.1239
   61SAPC  H10Y 4819   1.265   6.581   9.174  0.0652 -0.2439 -0.3576
   61SAPC  C311 4820   1.098   6.656   9.074 -0.2331  0.1302  0.2501
   61SAPC  H11X 4821   1.125   6.763   9.080  0.5439  0.0443 -1.4860
   61SAPC  H11Y 4822   0.988   6.651   9.088  0.0200 -2.0094  1.8341
   61SAPC  C312 4823   1.126   6.596   8.937 -0.2774  0.1470 -0.3448
   61SAPC  H12X 4824   1.088   6.493   8.923 -0.3873  0.2829 -1.0941
   61SAPC  H12Y 4825   1.237   6.588   8.929 -0.2435 -1.0451  1.0904
   61SAPC  C313 4826   1.058   6.667   8.815  0.4039 -0.8566 -0.5835
   61SAPC  H13X 4827   1.078   6.776   8.815 -2.6793 -0.2303  1.3978
   61SAPC  H13Y 4828   0.949   6.672   8.832  0.4445  0.1935 -0.6376
   61SAPC  C314 4829   1.067   6.612   8.675 -0.5235 -0.6879 -0.7500
   61SAPC  H14X 4830   1.170   6.578   8.650 -0.2270  0.1107 -0.6381
   61SAPC  H14Y 4831   1.040   6.702   8.615 -0.2539 -0.1707 -0.1032
   61SAPC  C315 4832   0.968   6.508   8.629  0.0968 -0.8383  1.2993
   61SAPC  H15X 4833   0.963   6.497   8.519 -0.4091  2.5960  0.9191
   61SAPC  H15Y 4834   0.870   6.543   8.668  0.7931  1.1282  1.3458
   61SAPC  C316 4835   0.990   6.362   8.676 -0.0229  0.2699  0.4504
   61SAPC  H16X 4836   0.904   6.296   8.650  0.6477 -0.7531  0.7797
   61SAPC  H16Y 4837   0.987   6.359   8.787 -1.3693  1.3647  0.4535
   61SAPC  C317 4838   1.122   6.294   8.623 -0.5822 -0.2276  0.1116
   61SAPC  H17X 4839   1.202   6.312   8.698  0.6915  0.8796 -1.4772
   61SAPC  H17Y 4840   1.154   6.345   8.530  1.5480  0.4494  1.1719
   61SAPC  C318 4841   1.114   6.142   8.585  0.2302  0.1881  0.3897
   61SAPC  H18X 4842   1.210   6.107   8.542  0.8667  1.2790  0.8951
   61SAPC  H18Y 4843   1.029   6.120   8.517  0.5827 -0.1213  0.0551
   61SAPC  H18Z 4844   1.100   6.092   8.683  1.6246  1.9598  1.5360
   62SAPC     N 4845   0.234   6.156  10.947  0.3875 -0.7263 -0.2448
   62SAPC   C12 4846   0.319   6.045  10.909 -0.2017 -0.3643  0.7412
   62SAPC  H12A 4847   0.272   5.958  10.954 -0.2379  0.3018  1.9991
   62SAPC  H12B 4848   0.422   6.059  10.938 -0.0980  1.1523 -0.3223
   62SAPC   C13 4849   0.086   6.113  10.923 -0.2284 -0.2712  0.8394
   62SAPC  H13A 4850   0.022   6.196  10.950  2.0491  2.2524 -1.1572
   62SAPC  H13B 4851   0.084   6.093  10.817 -2.1887 -1.3485  1.0684
   62SAPC  H13C 4852   0.070   6.027  10.986  0.4841  0.0873  1.5123
   62SAPC   C14 4853   0.257   6.200  11.088  0.4254 -0.3770 -0.1465
   62SAPC  H14A 4854   0.174   6.263  11.117  1.3719  0.5467  0.6017
   62SAPC  H14B 4855   0.273   6.119  11.159 -0.0789 -0.9223 -0.6538
   62SAPC  H14C 4856   0.333   6.276  11.093 -2.8936  3.2130 -2.0089
   62SAPC   C15 4857   0.261   6.272  10.851  0.3059  0.0980  0.2346
   62SAPC  H15A 4858   0.366   6.297  10.851  0.2758  0.2894 -1.8071
   62SAPC  H15B 4859   0.235   6.241  10.751 -0.4035  1.7486 -0.0981
   62SAPC  H15C 4860   0.210   6.364  10.873  1.5903  0.3927  2.1149
   62SAPC   C11 4861   0.329   6.015  10.762  0.0226 -0.3928  0.1392
   62SAPC  H11A 4862   0.229   6.028  10.714  0.0421  0.0826  0.2320
   62SAPC  H11B 4863   0.349   5.907  10.743  1.1562 -0.3870  1.2479
   62SAPC     P 4864   0.576   6.057  10.710 -0.1975  0.0565 -0.4041
   62SAPC   O13 4865   0.664   6.157  10.649 -0.2217 -0.1427 -0.4162
   62SAPC   O14 4866   0.600   6.012  10.850 -0.4457  0.2835  0.1436
   62SAPC   O12 4867   0.426   6.097  10.705 -0.2584 -0.5885  0.3877
   62SAPC   O11 4868   0.567   5.928  10.606  0.2986 -0.0375 -0.0946
   62SAPC    C1 4869   0.546   5.969  10.471 -0.4559 -0.3336 -0.1832
   62SAPC    HA 4870   0.439   5.994  10.452  0.0332  0.7464 -1.5707
   62SAPC    HB 4871   0.601   6.061  10.443 -0.6654  0.0178  0.5561
   62SAPC    C2 4872   0.589   5.859  10.370  0.3939 -0.0621 -1.2433
   62SAPC    HS 4873   0.657   5.790  10.425 -0.0249  1.1057  0.8021
   62SAPC   O21 4874   0.656   5.924  10.262  0.2377  0.0802 -0.6417
   62SAPC   C21 4875   0.780   5.965  10.298  0.4638  0.6995 -0.3675
   62SAPC   O22 4876   0.829   5.966  10.409 -0.3289 -1.2042 -0.1123
   62SAPC   C22 4877   0.846   6.010  10.169 -0.6743  0.2573  0.5005
   62SAPC   H2R 4878   0.798   6.099  10.124  1.5075  0.6753 -1.0433
   62SAPC   H2S 4879   0.951   6.040  10.192 -0.6341 -0.7984  1.7513
   62SAPC    C3 4880   0.465   5.784  10.320  0.1778 -0.3518  0.5599
   62SAPC    HX 4881   0.388   5.863  10.303 -1.1650 -1.7713 -0.0519
   62SAPC    HY 4882   0.425   5.724  10.405 -2.8593  0.1186 -0.4830
   62SAPC   O31 4883   0.481   5.709  10.199 -0.3764  0.3032 -0.0881
   62SAPC   C31 4884   0.564   5.604  10.206 -0.4651  0.1492 -0.4459
   62SAPC   O32 4885   0.631   5.578  10.306  0.2151 -0.4264 -0.1928
   62SAPC   C32 4886   0.554   5.521  10.081  0.2104  0.1681 -0.0713
   62SAPC   H2X 4887   0.445   5.512  10.065 -0.2457 -2.4956  3.6932
   62SAPC   H2Y 4888   0.595   5.420  10.103 -0.1106 -0.3892 -1.9975
   62SAPC   C23 4889   0.842   5.895  10.070  0.2189  0.0549 -0.3150
   62SAPC   H3R 4890   0.739   5.881  10.031  0.3086 -1.9595  0.0969
   62SAPC   H3S 4891   0.864   5.795  10.114 -0.7200 -0.2792 -0.6021
   62SAPC   C24 4892   0.941   5.914   9.946 -0.6634 -0.0752  0.8242
   62SAPC   H4R 4893   0.934   5.824   9.882  0.8314  0.2750  0.1483
   62SAPC   H4S 4894   1.037   5.915  10.002  0.9092  2.4353 -1.7857
   62SAPC   C25 4895   0.914   6.041   9.871 -0.0390  0.7539  0.3556
   62SAPC   H5R 4896   0.809   6.061   9.843  0.6223  4.6090  0.2975
   62SAPC   C26 4897   1.017   6.128   9.823 -0.1176  0.2639 -0.1102
   62SAPC   H6R 4898   0.979   6.214   9.766 -1.9334 -0.0816  0.5730
   62SAPC   C27 4899   1.170   6.109   9.830  0.4996  0.0818 -0.1372
   62SAPC   H7R 4900   1.202   6.010   9.794  2.4067  0.7062 -0.2323
   62SAPC   H7S 4901   1.208   6.116   9.935  0.4320 -1.3829 -0.0099
   62SAPC   C28 4902   1.245   6.208   9.743 -0.0705  0.0651 -0.6600
   62SAPC   H8R 4903   1.312   6.279   9.795 -0.3128  0.3871 -0.7834
   62SAPC   C29 4904   1.254   6.207   9.612 -0.2403 -0.1221  0.7985
   62SAPC   H9R 4905   1.318   6.286   9.570 -0.8534  0.9858  1.9257
   62SAPC  C210 4906   1.183   6.108   9.525  0.1861  1.1266 -0.6310
   62SAPC  H10R 4907   1.111   6.170   9.467 -0.6992 -0.3746 -1.1745
   62SAPC  H10S 4908   1.128   6.025   9.575  1.1664 -0.0448 -1.4652
   62SAPC  C211 4909   1.283   6.040   9.445 -0.9438 -0.2945 -0.3605
   62SAPC  H11R 4910   1.323   5.954   9.501 -4.3061 -0.9736  1.1642
   62SAPC  C212 4911   1.296   6.034   9.308  0.0690 -0.2810 -0.0397
   62SAPC  H12R 4912   1.381   5.978   9.268 -0.8905 -0.5343 -1.7734
   62SAPC  C213 4913   1.218   6.118   9.206  0.0515  0.0541 -0.2073
   62SAPC  H13R 4914   1.222   6.226   9.232  2.9770  0.1473 -0.9835
   62SAPC  H13S 4915   1.109   6.098   9.218 -0.2461  1.7082 -0.0301
   62SAPC  C214 4916   1.256   6.104   9.055 -0.5278  0.4792  0.5914
   62SAPC  H14R 4917   1.198   6.030   8.999 -0.0777 -0.1931  1.0046
   62SAPC  C215 4918   1.329   6.191   8.989  0.3101 -0.2514 -0.3523
   62SAPC  H15R 4919   1.340   6.184   8.879 -0.7267 -1.8161 -0.3664
   62SAPC  C216 4920   1.404   6.313   9.047 -0.5449  0.3775 -0.1273
   62SAPC  H16R 4921   1.373   6.359   9.144  0.1378  0.5355  0.0210
   62SAPC  H16S 4922   1.411   6.395   8.973  1.0042 -1.4319 -2.0489
   62SAPC  C217 4923   1.542   6.259   9.078  1.0043  0.5004  0.2510
   62SAPC  H17R 4924   1.595   6.227   8.986 -3.0162  1.4326 -2.5141
   62SAPC  H17S 4925   1.531   6.168   9.142 -0.0729 -0.3503 -1.1183
   62SAPC  C218 4926   1.636   6.355   9.151  0.6083  0.0002  0.1245
   62SAPC  H18R 4927   1.734   6.307   9.171 -0.3470 -1.5132  1.2150
   62SAPC  H18S 4928   1.606   6.371   9.257 -2.3657 -0.2332 -0.6588
   62SAPC  C219 4929   1.665   6.498   9.098  0.1288  0.3511 -0.4310
   62SAPC  H19R 4930   1.652   6.578   9.174 -1.3574  0.3544 -0.6653
   62SAPC  H19S 4931   1.595   6.525   9.016 -0.3158  0.4582 -0.0170
   62SAPC  C220 4932   1.813   6.503   9.037 -0.0169  0.3481 -0.0492
   62SAPC  H20R 4933   1.823   6.417   8.967  0.7772 -0.3565  0.9132
   62SAPC  H20S 4934   1.881   6.489   9.123 -0.1212 -2.6285 -0.3998
   62SAPC  H20T 4935   1.834   6.606   8.999 -2.1139  1.3511  1.4053
   62SAPC   C33 4936   0.616   5.598   9.963 -0.1078  0.0717 -0.7095
   62SAPC   H3X 4937   0.721   5.623   9.987 -0.6689 -1.3541  3.5846
   62SAPC   H3Y 4938   0.564   5.696   9.954 -1.6403 -0.5542  0.9346
   62SAPC   C34 4939   0.600   5.516   9.829 -0.8706 -0.7040  0.0010
   62SAPC   H4X 4940   0.623   5.412   9.862 -0.0844 -0.7578 -0.7091
   62SAPC   H4Y 4941   0.668   5.548   9.747  0.1065  0.8078  1.3825
   62SAPC   C35 4942   0.458   5.521   9.771 -0.5992  0.1827 -0.3344
   62SAPC   H5X 4943   0.437   5.627   9.797  1.4999  0.5272  0.0681
   62SAPC   H5Y 4944   0.386   5.461   9.830  0.5763 -2.1816 -1.2141
   62SAPC   C36 4945   0.439   5.494   9.621  0.7568  0.0644 -0.2085
   62SAPC   H6X 4946   0.424   5.387   9.596 -1.5357  0.4924 -0.7872
   62SAPC   H6Y 4947   0.540   5.521   9.582  0.2613 -0.9138 -2.2184
   62SAPC   C37 4948   0.335   5.586   9.569  0.9010 -0.4484 -1.1843
   62SAPC   H7X 4949   0.321   5.688   9.611 -0.6896 -1.2848  0.3591
   62SAPC   H7Y 4950   0.237   5.539   9.589  0.1529  1.9568  1.0051
   62SAPC   C38 4951   0.348   5.611   9.416 -0.5360 -0.2260  0.2070
   62SAPC   H8X 4952   0.375   5.511   9.376 -1.8255  0.1614 -1.7095
   62SAPC   H8Y 4953   0.431   5.684   9.404 -1.0288  0.5488  1.3887
   62SAPC   C39 4954   0.215   5.665   9.353 -0.1406 -0.1409 -0.4917
   62SAPC   H9X 4955   0.132   5.593   9.366 -0.2026 -0.2651 -1.5321
   62SAPC   H9Y 4956   0.231   5.677   9.244  0.3241 -2.8503 -0.7425
   62SAPC  C310 4957   0.177   5.799   9.419  0.2063  0.7235  0.1379
   62SAPC  H10X 4958   0.273   5.855   9.418  0.6121  0.0440  0.5699
   62SAPC  H10Y 4959   0.140   5.790   9.523  0.1956 -1.6301 -0.0358
   62SAPC  C311 4960   0.075   5.881   9.346  0.2682 -0.4110 -0.1839
   62SAPC  H11X 4961  -0.026   5.836   9.359 -0.9740  2.4257  0.3883
   62SAPC  H11Y 4962   0.096   5.896   9.238 -0.4959 -0.8454 -0.3994
   62SAPC  C312 4963   0.061   6.025   9.406  0.2462 -0.4717 -0.6288
   62SAPC  H12X 4964   0.158   6.077   9.392 -0.6742  2.3027  2.5498
   62SAPC  H12Y 4965   0.047   6.022   9.516 -2.6934  0.9326 -0.9272
   62SAPC  C313 4966  -0.051   6.109   9.347  0.8551 -0.2267 -0.1724
   62SAPC  H13X 4967  -0.039   6.127   9.238  0.9103  1.4426  0.0992
   62SAPC  H13Y 4968  -0.046   6.204   9.404  0.7157 -1.0599  1.2770
   62SAPC  C314 4969  -0.196   6.055   9.372  0.8789 -0.2750 -1.0491
   62SAPC  H14X 4970  -0.228   5.973   9.305 -1.1086  0.0501 -0.5306
   62SAPC  H14Y 4971  -0.261   6.141   9.345 -1.2864 -1.5355 -0.0157
   62SAPC  C315 4972  -0.225   6.018   9.522  0.0901 -0.4717  0.1412
   62SAPC  H15X 4973  -0.172   6.086   9.592 -0.5669 -0.0398  0.2269
   62SAPC  H15Y 4974  -0.182   5.916   9.531 -3.5291 -2.2841 -1.8502
   62SAPC  C316 4975  -0.380   6.020   9.554  1.1824 -0.0851 -0.2015
   62SAPC  H16X 4976  -0.442   5.965   9.480  0.3901  6.0073 -4.4190
   62SAPC  H16Y 4977  -0.406   6.128   9.547  1.1166 -0.0237  1.0234
   62SAPC  C317 4978  -0.413   5.965   9.692  0.6642 -0.2153 -0.2722
   62SAPC  H17X 4979  -0.342   5.881   9.706  2.4256  1.0835 -1.1834
   62SAPC  H17Y 4980  -0.518   5.928   9.687  0.4547  0.5135 -1.7054
   62SAPC  C318 4981  -0.394   6.063   9.811 -0.0546 -0.6630 -0.5229
   62SAPC  H18X 4982  -0.415   6.013   9.908 -0.6273 -2.5502 -1.5935
   62SAPC  H18Y 4983  -0.461   6.150   9.793 -0.4336 -0.8921 -0.2263
   62SAPC  H18Z 4984  -0.287   6.094   9.813 -0.5703  1.3889 -2.8109
   63SAPC     N 4985   3.847   4.549   6.389  1.0951  1.1126  0.8411
   63SAPC   C12 4986   3.936   4.432   6.348  0.5819 -0.0312 -0.2709
   63SAPC  H12A 4987   4.001   4.477   6.274  1.2899 -0.0620  0.3282
   63SAPC  H12B 4988   3.876   4.359   6.297  0.0288  0.5823 -0.5132
   63SAPC   C13 4989   3.734   4.494   6.468 -0.4036 -0.7126  0.2114
   63SAPC  H13A 4990   3.763   4.497   6.572  1.1551  1.4059 -0.2426
   63SAPC  H13B 4991   3.647   4.555   6.449  1.7991  2.1680 -0.9824
   63SAPC  H13C 4992   3.706   4.392   6.446 -1.7732 -0.4160  0.4775
   63SAPC   C14 4993   3.928   4.654   6.468 -0.5669 -0.2622  0.3435
   63SAPC  H14A 4994   3.969   4.609   6.557 -3.2291  1.3363  2.4722
   63SAPC  H14B 4995   4.007   4.692   6.405 -2.7349  1.2728 -1.5385
   63SAPC  H14C 4996   3.868   4.741   6.492  1.9840  2.5111 -2.8638
   63SAPC   C15 4997   3.795   4.619   6.269  0.0318  1.1976 -0.1100
   63SAPC  H15A 4998   3.876   4.658   6.209 -1.4848  2.0779 -1.6250
   63SAPC  H15B 4999   3.739   4.552   6.205 -0.1565  2.3817 -1.2076
   63SAPC  H15C 5000   3.726   4.702   6.271 -0.4236  0.8194 -0.0407
   63SAPC   C11 5001   4.016   4.366   6.464  0.2158  0.6845 -1.1753
   63SAPC  H11A 5002   4.039   4.258   6.455 -1.1031  0.3678 -0.7737
   63SAPC  H11B 5003   3.954   4.373   6.556  2.2103 -2.0109  0.4241
   63SAPC     P 5004   4.248   4.455   6.383  0.1937  0.1278  0.2961
   63SAPC   O13 5005   4.259   4.335   6.300 -0.8782 -0.0716  0.2256
   63SAPC   O14 5006   4.244   4.586   6.315 -0.2472 -0.4163 -0.0557
   63SAPC   O12 5007   4.131   4.444   6.496 -0.0522  0.0138 -1.0198
   63SAPC   O11 5008   4.362   4.461   6.490  0.0972 -0.3388  0.1759
   63SAPC    C1 5009   4.487   4.518   6.462  0.8286  0.1524  0.1563
   63SAPC    HA 5010   4.554   4.443   6.414 -2.4885 -2.7791 -0.0546
   63SAPC    HB 5011   4.478   4.603   6.390 -2.1462  0.9085  1.3302
   63SAPC    C2 5012   4.566   4.565   6.587 -0.3668  0.1024 -0.0762
   63SAPC    HS 5013   4.575   4.471   6.647  0.1064 -0.0629 -0.4020
   63SAPC   O21 5014   4.484   4.668   6.644 -0.2624 -0.2118  0.1795
   63SAPC   C21 5015   4.482   4.688   6.769 -0.0143 -0.2536 -0.0554
   63SAPC   O22 5016   4.531   4.606   6.854  0.6186  0.0550  0.2897
   63SAPC   C22 5017   4.408   4.819   6.807 -0.1589  0.1578 -0.4576
   63SAPC   H2R 5018   4.308   4.815   6.757 -1.2200 -0.5681  1.6644
   63SAPC   H2S 5019   4.370   4.837   6.910 -1.4899 -1.6521 -0.6045
   63SAPC    C3 5020   4.708   4.611   6.554  0.2703  0.1998  0.0369
   63SAPC    HX 5021   4.699   4.698   6.485 -2.1141 -0.2493 -0.2661
   63SAPC    HY 5022   4.762   4.534   6.494 -1.5823  1.3475 -3.2583
   63SAPC   O31 5023   4.791   4.644   6.670 -0.3723  0.2074  0.3920
   63SAPC   C31 5024   4.858   4.547   6.731 -0.1776  0.2742 -0.1805
   63SAPC   O32 5025   4.856   4.429   6.698  0.7005  0.2984  0.3998
   63SAPC   C32 5026   4.939   4.606   6.848 -0.0977 -0.2896 -0.2613
   63SAPC   H2X 5027   4.867   4.633   6.928 -1.1356 -0.6534 -1.0577
   63SAPC   H2Y 5028   4.997   4.695   6.815 -0.4974 -0.3751 -1.2098
   63SAPC   C23 5029   4.481   4.942   6.758  0.0288  0.2012 -0.7574
   63SAPC   H3R 5030   4.419   5.033   6.772  2.2454  1.3516  1.8061
   63SAPC   H3S 5031   4.515   4.936   6.652  2.1172 -0.1506 -0.0777
   63SAPC   C24 5032   4.609   4.964   6.839  0.8027  0.3587 -0.0572
   63SAPC   H4R 5033   4.665   5.046   6.790 -0.6227  0.6741 -1.1643
   63SAPC   H4S 5034   4.666   4.869   6.836  0.8011  0.3450  0.2819
   63SAPC   C25 5035   4.585   5.014   6.979 -0.2530  0.5685  1.0913
   63SAPC   H5R 5036   4.543   5.115   6.980 -0.8808  0.3290 -0.2338
   63SAPC   C26 5037   4.624   4.951   7.093  0.0126 -0.1619  0.5460
   63SAPC   H6R 5038   4.602   5.002   7.189  0.2786  3.0845 -1.0360
   63SAPC   C27 5039   4.685   4.819   7.117  0.1810  0.7434  0.3178
   63SAPC   H7R 5040   4.789   4.823   7.155  1.2339  2.5073 -2.5732
   63SAPC   H7S 5041   4.693   4.770   7.017  0.5130 -0.0262  0.7204
   63SAPC   C28 5042   4.582   4.736   7.184  0.6102 -0.1167 -0.3611
   63SAPC   H8R 5043   4.489   4.709   7.131  1.2280 -0.7724 -1.1181
   63SAPC   C29 5044   4.607   4.685   7.310  0.9457  0.3395  0.3713
   63SAPC   H9R 5045   4.539   4.611   7.353  0.2314  0.0379 -1.2347
   63SAPC  C210 5046   4.734   4.715   7.382  0.5655  0.5222 -0.6430
   63SAPC  H10R 5047   4.778   4.811   7.346 -1.3218  1.8836  0.5641
   63SAPC  H10S 5048   4.806   4.636   7.353  0.9162  0.4975  0.2945
   63SAPC  C211 5049   4.710   4.708   7.531 -0.0429 -0.0294  0.6360
   63SAPC  H11R 5050   4.621   4.647   7.555  0.3495 -1.5400 -1.5720
   63SAPC  C212 5051   4.781   4.779   7.621  0.2526 -0.7257 -0.1006
   63SAPC  H12R 5052   4.754   4.773   7.727  0.8802  1.4522  0.1993
   63SAPC  C213 5053   4.902   4.867   7.594 -0.1463 -1.1416  0.3299
   63SAPC  H13R 5054   4.901   4.949   7.670 -0.0800  0.0138 -0.9006
   63SAPC  H13S 5055   4.897   4.921   7.498 -0.8745  0.2938  1.1649
   63SAPC  C214 5056   5.026   4.780   7.598  0.4864  0.1691  0.1290
   63SAPC  H14R 5057   5.027   4.704   7.518 -1.5112  1.0295 -0.7492
   63SAPC  C215 5058   5.131   4.787   7.690  0.2158  0.1525  0.3301
   63SAPC  H15R 5059   5.223   4.727   7.681  0.7885  0.7898  1.7980
   63SAPC  C216 5060   5.150   4.883   7.811  0.5978 -0.1544  0.2899
   63SAPC  H16R 5061   5.179   4.827   7.902  3.4060  1.3448  0.3637
   63SAPC  H16S 5062   5.061   4.949   7.817  0.8316  0.3571 -1.5779
   63SAPC  C217 5063   5.264   4.984   7.783 -0.1085 -0.3477 -0.1780
   63SAPC  H17R 5064   5.225   5.044   7.698 -0.2764  1.1877  0.9588
   63SAPC  H17S 5065   5.359   4.944   7.742  0.3385 -0.9870  1.4367
   63SAPC  C218 5066   5.296   5.083   7.890  0.0495 -0.0578 -0.2734
   63SAPC  H18R 5067   5.359   5.034   7.968 -0.3156  1.5336  1.0283
   63SAPC  H18S 5068   5.203   5.102   7.947 -0.4676 -3.2099  0.0562
   63SAPC  C219 5069   5.361   5.219   7.846 -0.4988  0.0706 -0.1288
   63SAPC  H19R 5070   5.282   5.271   7.788 -0.8333  1.9253  1.9079
   63SAPC  H19S 5071   5.446   5.197   7.778 -0.5340 -0.6802  0.0704
   63SAPC  C220 5072   5.411   5.312   7.962 -0.3280 -0.1410 -0.5096
   63SAPC  H20R 5073   5.494   5.259   8.013 -1.2742 -1.7941 -0.6414
   63SAPC  H20S 5074   5.326   5.336   8.030 -1.6114 -1.3769 -1.6308
   63SAPC  H20T 5075   5.451   5.406   7.919  3.5034 -1.5497 -0.2437
   63SAPC   C33 5076   5.037   4.506   6.919  0.6588  0.4996 -0.4791
   63SAPC   H3X 5077   5.137   4.529   6.878  0.4593  0.4338 -1.0044
   63SAPC   H3Y 5078   5.005   4.402   6.898  1.1373  0.1154  0.6612
   63SAPC   C34 5079   5.036   4.525   7.076 -0.5219  0.6414 -0.7210
   63SAPC   H4X 5080   4.943   4.475   7.112  0.3578 -0.9342 -0.5914
   63SAPC   H4Y 5081   5.022   4.631   7.105  1.1901  0.4649  0.7663
   63SAPC   C35 5082   5.154   4.452   7.149  0.7130  0.2812 -0.1808
   63SAPC   H5X 5083   5.252   4.488   7.111  1.1045 -0.4159  0.1598
   63SAPC   H5Y 5084   5.153   4.343   7.131  0.6751  0.1161  0.7643
   63SAPC   C36 5085   5.160   4.468   7.307  0.4659  0.4663  0.8951
   63SAPC   H6X 5086   5.141   4.574   7.332  0.4882  0.9271 -1.0213
   63SAPC   H6Y 5087   5.258   4.430   7.345  0.2049 -0.9183  0.2311
   63SAPC   C37 5088   5.047   4.378   7.362 -0.0995 -0.0882  0.2660
   63SAPC   H7X 5089   5.076   4.272   7.345 -0.8436 -0.2978  0.2726
   63SAPC   H7Y 5090   4.952   4.401   7.310  1.1995 -2.0045 -3.1491
   63SAPC   C38 5091   5.038   4.401   7.516 -0.1053  0.5513  0.2556
   63SAPC   H8X 5092   4.954   4.341   7.558  0.1294 -0.6943 -1.0199
   63SAPC   H8Y 5093   5.021   4.506   7.550  0.0229 -0.4526  3.6192
   63SAPC   C39 5094   5.163   4.365   7.590 -0.5500 -0.3400 -0.1336
   63SAPC   H9X 5095   5.248   4.435   7.579 -0.9143  0.3317  1.1465
   63SAPC   H9Y 5096   5.199   4.268   7.551  0.8765  0.6697 -1.3619
   63SAPC  C310 5097   5.152   4.357   7.747  0.6080 -0.8786 -0.4724
   63SAPC  H10X 5098   5.247   4.307   7.776 -0.1327 -1.1681  1.5702
   63SAPC  H10Y 5099   5.069   4.288   7.775 -1.9922  2.0940 -0.6160
   63SAPC  C311 5100   5.124   4.474   7.836 -0.0404 -0.1070 -0.1279
   63SAPC  H11X 5101   5.044   4.539   7.792 -1.0330 -0.4885  1.0995
   63SAPC  H11Y 5102   5.220   4.529   7.841 -0.2923  0.1642  2.4441
   63SAPC  C312 5103   5.100   4.429   7.979 -0.2173 -0.0482 -0.6423
   63SAPC  H12X 5104   5.183   4.358   7.998  0.6409  0.8057 -1.1247
   63SAPC  H12Y 5105   5.005   4.371   7.976  0.2084 -0.8695  0.9725
   63SAPC  C313 5106   5.111   4.548   8.073 -0.1420 -0.5625 -0.3526
   63SAPC  H13X 5107   5.013   4.601   8.083  1.3891  1.8357  2.5639
   63SAPC  H13Y 5108   5.185   4.621   8.034 -0.6163  0.5382  0.8006
   63SAPC  C314 5109   5.142   4.510   8.219  0.0573  1.1292  0.0438
   63SAPC  H14X 5110   5.143   4.594   8.291  0.8907  0.0308  1.3257
   63SAPC  H14Y 5111   5.247   4.476   8.226 -0.2749 -0.0815 -0.6526
   63SAPC  C315 5112   5.034   4.408   8.276  0.2116  0.0146  0.0015
   63SAPC  H15X 5113   5.059   4.316   8.219 -1.2896 -0.7099  0.4775
   63SAPC  H15Y 5114   4.929   4.424   8.242  0.1305  0.3863  0.4258
   63SAPC  C316 5115   5.058   4.370   8.427 -0.3219 -0.0565 -0.4799
   63SAPC  H16X 5116   5.166   4.357   8.451 -0.4674 -1.1415 -0.4143
   63SAPC  H16Y 5117   5.015   4.271   8.449 -0.5774  0.1509 -0.0441
   63SAPC  C317 5118   4.992   4.468   8.526  0.1788  0.2257 -0.8212
   63SAPC  H17X 5119   4.886   4.444   8.504  0.4137  0.4656 -2.2629
   63SAPC  H17Y 5120   5.019   4.573   8.500  0.3668  0.0841 -1.2039
   63SAPC  C318 5121   5.020   4.434   8.671  0.4461  0.2395  0.5848
   63SAPC  H18X 5122   4.936   4.455   8.741  0.0348 -0.7438  0.4088
   63SAPC  H18Y 5123   5.112   4.477   8.713  1.2164 -1.1977  0.4157
   63SAPC  H18Z 5124   5.042   4.325   8.673 -1.7133 -0.2631 -0.8618
   64SAPC     N 5125   0.160   4.162   5.736  0.1535 -0.1675  0.4541
   64SAPC   C12 5126   0.214   4.146   5.880  0.2135 -0.7595  0.0425
   64SAPC  H12A 5127   0.314   4.105   5.877  0.6022  0.1663  0.2536
   64SAPC  H12B 5128   0.160   4.058   5.912 -0.0592 -0.4599  0.4015
   64SAPC   C13 5129   0.021   4.217   5.746 -0.1649 -0.2618 -0.0206
   64SAPC  H13A 5130   0.022   4.320   5.776 -1.6916 -0.6887  1.5713
   64SAPC  H13B 5131  -0.025   4.222   5.648 -0.0759  1.2006  0.0073
   64SAPC  H13C 5132  -0.040   4.161   5.816  1.1015  0.1362  1.4277
   64SAPC   C14 5133   0.252   4.248   5.662  0.3904 -0.1530 -0.3520
   64SAPC  H14A 5134   0.239   4.254   5.555 -0.5386 -1.4749 -0.3160
   64SAPC  H14B 5135   0.259   4.344   5.711 -0.6284 -0.3682  0.2115
   64SAPC  H14C 5136   0.353   4.211   5.670  0.4957  0.4672  1.5489
   64SAPC   C15 5137   0.158   4.028   5.661  0.0831 -0.6922  0.3018
   64SAPC  H15A 5138   0.256   3.984   5.648 -0.5853 -2.0539 -0.2351
   64SAPC  H15B 5139   0.093   3.962   5.716  0.1758 -0.5259  0.6112
   64SAPC  H15C 5140   0.116   4.044   5.562 -2.4640  1.8680  1.7331
   64SAPC   C11 5141   0.204   4.266   5.972 -0.4391 -0.1353 -0.4142
   64SAPC  H11A 5142   0.259   4.242   6.066  0.4949  0.1312 -0.8862
   64SAPC  H11B 5143   0.096   4.286   5.993 -1.0169 -2.7690 -0.6663
   64SAPC     P 5144   0.211   4.530   5.940 -0.4077 -0.2164 -0.2711
   64SAPC   O13 5145   0.317   4.625   5.902 -0.1012  0.4738  0.4456
   64SAPC   O14 5146   0.079   4.550   5.876  0.3027  0.4492  0.2679
   64SAPC   O12 5147   0.268   4.381   5.915 -0.1679 -0.7312  0.1270
   64SAPC   O11 5148   0.195   4.547   6.096  0.4580 -0.3304 -0.7869
   64SAPC    C1 5149   0.291   4.502   6.193 -0.4163  0.3455  0.2801
   64SAPC    HA 5150   0.283   4.392   6.200 -1.3818  0.3583 -0.4677
   64SAPC    HB 5151   0.394   4.533   6.166  0.5365 -2.5834  0.4101
   64SAPC    C2 5152   0.262   4.572   6.329  0.0055 -0.3370 -0.0553
   64SAPC    HS 5153   0.342   4.536   6.398 -2.1410 -1.8071  1.7319
   64SAPC   O21 5154   0.125   4.541   6.381  0.1531 -0.2535  0.3574
   64SAPC   C21 5155   0.116   4.421   6.439  0.0695 -0.1708 -0.2248
   64SAPC   O22 5156   0.210   4.345   6.438 -0.2625  0.3042  0.0851
   64SAPC   C22 5157  -0.026   4.410   6.510  0.3476 -0.0143 -0.0551
   64SAPC   H2R 5158  -0.102   4.422   6.429 -1.2674  0.7031  1.5171
   64SAPC   H2S 5159  -0.041   4.318   6.570  1.4445 -0.1544  0.0177
   64SAPC    C3 5160   0.284   4.732   6.320  0.8200  0.5280 -0.2618
   64SAPC    HX 5161   0.201   4.773   6.259  0.4745  0.7403  0.3391
   64SAPC    HY 5162   0.379   4.741   6.265  1.0641 -1.2294 -0.1652
   64SAPC   O31 5163   0.283   4.791   6.458 -0.6776 -0.1146  0.0509
   64SAPC   C31 5164   0.164   4.834   6.499  1.0188 -0.1124  0.4481
   64SAPC   O32 5165   0.067   4.846   6.428  0.0977  0.5434 -0.5524
   64SAPC   C32 5166   0.164   4.873   6.643 -0.0103  0.9572  0.4825
   64SAPC   H2X 5167   0.234   4.957   6.662  0.6641  0.7940 -1.2370
   64SAPC   H2Y 5168   0.204   4.784   6.698  1.7075  1.6219  0.3250
   64SAPC   C23 5169  -0.038   4.523   6.621 -0.7252 -0.0682 -0.5138
   64SAPC   H3R 5170  -0.130   4.500   6.679 -1.8751  0.5751 -2.0578
   64SAPC   H3S 5171  -0.060   4.624   6.582 -0.1476  1.1699  2.2496
   64SAPC   C24 5172   0.078   4.518   6.724  0.3851 -0.5027  1.0096
   64SAPC   H4R 5173   0.062   4.606   6.791 -0.3078 -0.1254  0.3635
   64SAPC   H4S 5174   0.176   4.553   6.685  1.4044 -3.3772  0.9036
   64SAPC   C25 5175   0.104   4.393   6.801  0.0463  0.7836  0.0510
   64SAPC   H5R 5176   0.134   4.313   6.732 -0.4462  0.9524 -0.3602
   64SAPC   C26 5177   0.104   4.386   6.939  0.2446  0.3564  0.1069
   64SAPC   H6R 5178   0.120   4.295   6.998  1.0142  1.2825  1.3609
   64SAPC   C27 5179   0.070   4.498   7.029 -0.3835  0.1321  0.5740
   64SAPC   H7R 5180   0.014   4.461   7.118 -0.0633 -0.0982  0.6821
   64SAPC   H7S 5181   0.002   4.574   6.987  0.1777 -0.3894 -1.3189
   64SAPC   C28 5182   0.196   4.574   7.079 -0.1032 -0.6842 -0.0930
   64SAPC   H8R 5183   0.246   4.628   6.997  0.2175 -1.4273 -0.3935
   64SAPC   C29 5184   0.257   4.556   7.194  0.4767 -0.0084  0.6058
   64SAPC   H9R 5185   0.347   4.611   7.226  0.6612  0.4094 -0.6102
   64SAPC  C210 5186   0.203   4.470   7.303  0.4772 -0.1530 -0.1558
   64SAPC  H10R 5187   0.153   4.381   7.261  2.6490 -0.9619 -1.0910
   64SAPC  H10S 5188   0.121   4.532   7.346 -0.7985 -0.7998 -1.6225
   64SAPC  C211 5189   0.315   4.414   7.388  0.5974 -0.3767  0.2037
   64SAPC  H11R 5190   0.374   4.332   7.346  2.3286  1.9223 -1.9885
   64SAPC  C212 5191   0.351   4.457   7.508 -0.1596 -0.1700 -0.3671
   64SAPC  H12R 5192   0.445   4.418   7.549 -1.4348 -3.3163 -0.3036
   64SAPC  C213 5193   0.288   4.562   7.593  0.3547 -0.3834 -0.0762
   64SAPC  H13R 5194   0.227   4.618   7.518  0.5061 -0.4248 -0.2300
   64SAPC  H13S 5195   0.358   4.637   7.634  1.2767 -1.6157  0.6149
   64SAPC  C214 5196   0.211   4.503   7.710 -0.0184  0.2095  0.4546
   64SAPC  H14R 5197   0.264   4.432   7.775  0.8828  0.0873 -0.3977
   64SAPC  C215 5198   0.087   4.523   7.743  0.0083  0.3086  0.0447
   64SAPC  H15R 5199   0.057   4.482   7.840  0.2109 -0.0441 -0.0429
   64SAPC  C216 5200  -0.013   4.606   7.671  0.3267  0.7828  0.3113
   64SAPC  H16R 5201  -0.104   4.543   7.659  0.2880  0.3995  2.4012
   64SAPC  H16S 5202   0.033   4.638   7.575  1.8150  1.0855  1.1114
   64SAPC  C217 5203  -0.057   4.733   7.729 -0.1593 -0.6695 -0.4005
   64SAPC  H17R 5204  -0.122   4.784   7.654 -1.3542 -0.6744  0.6212
   64SAPC  H17S 5205   0.023   4.807   7.756 -1.4721  0.5602  0.1838
   64SAPC  C218 5206  -0.158   4.719   7.849  0.0719 -0.2268  0.6794
   64SAPC  H18R 5207  -0.110   4.706   7.949  1.8055 -0.1046 -0.1131
   64SAPC  H18S 5208  -0.216   4.628   7.826  1.2111 -0.8537  0.2384
   64SAPC  C219 5209  -0.259   4.834   7.860 -0.2443  0.3397  0.1931
   64SAPC  H19R 5210  -0.338   4.829   7.782 -0.5520  1.4665  0.4200
   64SAPC  H19S 5211  -0.201   4.929   7.854 -0.1976  0.4247  1.8369
   64SAPC  C220 5212  -0.330   4.833   7.999  0.6027  0.4234  0.9563
   64SAPC  H20R 5213  -0.381   4.930   8.014  0.4218  0.7123 -1.3389
   64SAPC  H20S 5214  -0.247   4.812   8.070  1.8146 -1.2660 -0.8990
   64SAPC  H20T 5215  -0.395   4.742   8.001  2.9315 -1.4308 -2.8761
   64SAPC   C33 5216   0.023   4.909   6.699  0.5962 -0.2240  0.1519
   64SAPC   H3X 5217  -0.037   4.820   6.729 -1.1067  1.8262  3.1959
   64SAPC   H3Y 5218  -0.039   4.971   6.631 -2.3338 -3.2975 -0.1566
   64SAPC   C34 5219   0.039   4.993   6.828 -0.0537 -0.1551 -0.1982
   64SAPC   H4X 5220  -0.060   5.010   6.875  0.1699 -1.8326  0.9443
   64SAPC   H4Y 5221   0.078   5.092   6.795  1.4509 -0.5146  0.4095
   64SAPC   C35 5222   0.137   4.941   6.926 -0.6301 -0.3802  0.7710
   64SAPC   H5X 5223   0.238   4.987   6.915 -0.2070 -1.2799  0.8435
   64SAPC   H5Y 5224   0.129   4.831   6.930  0.0763 -0.3806  2.4743
   64SAPC   C36 5225   0.101   4.977   7.061  1.3001  0.1677 -0.5752
   64SAPC   H6X 5226   0.013   4.915   7.088 -0.0694  1.6896 -1.4237
   64SAPC   H6Y 5227   0.083   5.087   7.070 -0.0475 -0.0972 -0.0041
   64SAPC   C37 5228   0.203   4.934   7.171  0.3194  1.0039 -0.1541
   64SAPC   H7X 5229   0.290   5.003   7.160 -0.1804  1.5067 -1.0200
   64SAPC   H7Y 5230   0.219   4.826   7.149 -1.4587  0.7518 -0.3195
   64SAPC   C38 5231   0.164   4.957   7.316 -0.0551  0.3159  0.7532
   64SAPC   H8X 5232   0.101   4.873   7.351  0.4089  0.5204  2.0969
   64SAPC   H8Y 5233   0.104   5.048   7.335 -0.4000  0.1864  0.3089
   64SAPC   C39 5234   0.287   4.956   7.414  0.5352  0.2137  0.4350
   64SAPC   H9X 5235   0.344   5.046   7.384 -1.8152  0.8260 -2.4776
   64SAPC   H9Y 5236   0.339   4.857   7.410  0.5716  0.1662  1.8231
   64SAPC  C310 5237   0.241   4.972   7.564 -0.2148  0.2437 -0.1029
   64SAPC  H10X 5238   0.330   4.990   7.628 -1.7564 -0.1041  2.1864
   64SAPC  H10Y 5239   0.189   4.886   7.610 -2.3670  2.4399  1.7194
   64SAPC  C311 5240   0.144   5.095   7.590 -0.0914 -0.9647 -0.9233
   64SAPC  H11X 5241   0.040   5.079   7.554 -0.6738  1.7067 -0.5405
   64SAPC  H11Y 5242   0.194   5.169   7.524  0.3547 -2.2402 -2.0458
   64SAPC  C312 5243   0.143   5.139   7.740  0.3429 -0.6735 -0.6073
   64SAPC  H12X 5244   0.231   5.200   7.767  0.7835 -0.7643 -1.8108
   64SAPC  H12Y 5245   0.133   5.053   7.810 -0.5898  1.3317  1.8088
   64SAPC  C313 5246   0.016   5.227   7.769  0.0811 -0.7184 -0.6357
   64SAPC  H13X 5247  -0.074   5.166   7.749 -0.1589 -1.1276  1.5839
   64SAPC  H13Y 5248   0.031   5.322   7.713 -1.4532  0.3273  0.6922
   64SAPC  C314 5249   0.017   5.269   7.924  0.2177 -0.4998  0.1505
   64SAPC  H14X 5250   0.106   5.330   7.948 -1.3466  2.8295 -2.1531
   64SAPC  H14Y 5251   0.010   5.183   7.994  2.0533 -0.1276  0.7985
   64SAPC  C315 5252  -0.111   5.349   7.971  0.3313 -0.0077  0.0238
   64SAPC  H15X 5253  -0.170   5.381   7.882 -0.0329  1.0669  0.6421
   64SAPC  H15Y 5254  -0.075   5.432   8.036  0.6390  0.6517 -0.9689
   64SAPC  C316 5255  -0.211   5.254   8.051 -0.0123  0.4520  0.4966
   64SAPC  H16X 5256  -0.169   5.207   8.143 -2.5416 -3.2682 -0.1074
   64SAPC  H16Y 5257  -0.247   5.172   7.985  1.5161  0.9803 -1.0086
   64SAPC  C317 5258  -0.332   5.335   8.081 -0.5761 -0.4066  0.4352
   64SAPC  H17X 5259  -0.372   5.388   7.992 -0.5948 -0.0701  0.6432
   64SAPC  H17Y 5260  -0.288   5.410   8.150 -0.6389 -0.1727  0.2220
   64SAPC  C318 5261  -0.446   5.257   8.156 -0.2687  0.4200  0.1657
   64SAPC  H18X 5262  -0.533   5.326   8.156  1.1051  2.2488 -2.2406
   64SAPC  H18Y 5263  -0.419   5.219   8.257  2.3984  1.4923 -0.0966
   64SAPC  H18Z 5264  -0.462   5.164   8.097  2.6613  0.7967 -1.3267
   65SAPC     N 5265   0.152   6.155   5.829 -0.0980 -0.8053 -0.0485
   65SAPC   C12 5266   0.047   6.063   5.891  0.3364  0.4040 -0.7128
   65SAPC  H12A 5267   0.100   5.980   5.933 -1.7175 -1.1074 -1.0327
   65SAPC  H12B 5268  -0.016   6.035   5.808 -2.1089  1.9915  0.5433
   65SAPC   C13 5269   0.209   6.083   5.706  0.6339 -0.5696 -0.5133
   65SAPC  H13A 5270   0.138   6.073   5.625 -1.2686 -1.7527  1.2369
   65SAPC  H13B 5271   0.293   6.133   5.661 -0.1959 -0.2893 -1.7697
   65SAPC  H13C 5272   0.239   5.983   5.734  1.6808 -0.6268 -1.8143
   65SAPC   C14 5273   0.092   6.283   5.790 -0.0956 -0.3003 -0.4334
   65SAPC  H14A 5274   0.026   6.282   5.705 -1.5652 -2.5664  0.7063
   65SAPC  H14B 5275   0.036   6.326   5.871  0.3510  0.7917 -0.6899
   65SAPC  H14C 5276   0.173   6.348   5.759 -0.3554 -1.0895 -2.9363
   65SAPC   C15 5277   0.261   6.176   5.922 -0.2079  0.1633  0.1227
   65SAPC  H15A 5278   0.220   6.230   6.006 -2.8092  0.3075 -1.1860
   65SAPC  H15B 5279   0.310   6.085   5.953 -0.7265 -0.4987 -0.9704
   65SAPC  H15C 5280   0.338   6.244   5.889  0.1775  0.1739  1.0432
   65SAPC   C11 5281  -0.046   6.119   5.999 -0.3044 -0.5652  0.1622
   65SAPC  H11A 5282  -0.106   6.036   6.042 -1.5834  0.7549  0.9420
   65SAPC  H11B 5283  -0.125   6.185   5.959 -0.6493 -1.0610  0.0266
   65SAPC     P 5284   0.075   6.115   6.226 -0.0650  0.1780  0.7512
   65SAPC   O13 5285   0.032   5.971   6.221 -0.1013 -0.3820  0.5964
   65SAPC   O14 5286   0.219   6.144   6.238  0.3212 -0.2822  0.2111
   65SAPC   O12 5287   0.020   6.195   6.097 -0.1553  0.3417  0.3053
   65SAPC   O11 5288   0.003   6.194   6.339 -0.2241 -0.6274 -0.2957
   65SAPC    C1 5289  -0.129   6.242   6.317 -0.1886  0.5596  0.0502
   65SAPC    HA 5290  -0.128   6.332   6.252  0.6096 -0.5511 -1.5158
   65SAPC    HB 5291  -0.190   6.168   6.262  1.3725 -0.1561 -0.7545
   65SAPC    C2 5292  -0.221   6.274   6.447  0.0451  0.7000 -0.0747
   65SAPC    HS 5293  -0.300   6.347   6.417  0.4559  0.3253 -2.1664
   65SAPC   O21 5294  -0.142   6.338   6.541  0.4333 -0.6556 -0.3178
   65SAPC   C21 5295  -0.095   6.464   6.520 -0.2556  0.9460  0.4331
   65SAPC   O22 5296  -0.130   6.532   6.428  0.2632 -0.0072  0.0329
   65SAPC   C22 5297  -0.015   6.501   6.642 -0.1916  0.0224  0.2616
   65SAPC   H2R 5298  -0.045   6.435   6.726  0.6104 -1.0813 -0.3198
   65SAPC   H2S 5299   0.090   6.477   6.618 -1.1592 -1.7510 -2.4089
   65SAPC    C3 5300  -0.295   6.151   6.501  0.0568 -0.4638  0.7935
   65SAPC    HX 5301  -0.233   6.058   6.507  0.8684  0.0334  0.1874
   65SAPC    HY 5302  -0.365   6.116   6.422 -1.0779 -1.4936  2.2327
   65SAPC   O31 5303  -0.368   6.172   6.622 -0.3273  0.3469 -0.0323
   65SAPC   C31 5304  -0.291   6.166   6.732  0.0892 -0.1425 -0.2975
   65SAPC   O32 5305  -0.174   6.125   6.741  0.3839 -0.3181 -0.0212
   65SAPC   C32 5306  -0.369   6.206   6.847 -0.1148 -0.6787  0.1678
   65SAPC   H2X 5307  -0.408   6.115   6.898 -1.9113  0.7396  1.3925
   65SAPC   H2Y 5308  -0.450   6.277   6.820  1.5791  1.1315 -0.2144
   65SAPC   C23 5309  -0.040   6.652   6.693  0.0918 -1.1739 -0.4639
   65SAPC   H3R 5310  -0.011   6.723   6.612  0.2747 -0.7541 -0.0343
   65SAPC   H3S 5311   0.032   6.666   6.776 -0.0209 -0.1380 -0.5321
   65SAPC   C24 5312  -0.183   6.689   6.736 -0.0302 -0.0387  0.1956
   65SAPC   H4R 5313  -0.219   6.642   6.830 -1.0051 -0.2279 -0.2624
   65SAPC   H4S 5314  -0.251   6.663   6.651 -0.6506  0.6192  0.4842
   65SAPC   C25 5315  -0.189   6.837   6.761 -0.1708  0.0923  0.1960
   65SAPC   H5R 5316  -0.227   6.897   6.677 -0.3352  0.9176  0.8522
   65SAPC   C26 5317  -0.151   6.902   6.867 -0.3365 -0.4209 -0.4683
   65SAPC   H6R 5318  -0.182   7.008   6.861  0.2880 -0.3184 -2.3189
   65SAPC   C27 5319  -0.097   6.855   7.006  0.5755 -0.2679  1.0972
   65SAPC   H7R 5320   0.014   6.846   7.007  0.6362 -0.2524 -1.7741
   65SAPC   H7S 5321  -0.136   6.754   7.030 -0.5416 -0.1886 -0.3673
   65SAPC   C28 5322  -0.137   6.959   7.112 -0.3415  0.0422  1.1487
   65SAPC   H8R 5323  -0.072   7.044   7.138  1.0973 -1.1176  1.4401
   65SAPC   C29 5324  -0.241   6.944   7.196  0.5875 -0.1858 -0.1911
   65SAPC   H9R 5325  -0.248   7.029   7.266  0.5486 -0.0860 -0.3144
   65SAPC  C210 5326  -0.342   6.836   7.209  0.9259  0.0070  0.2270
   65SAPC  H10R 5327  -0.296   6.760   7.275 -0.7025  1.1536  2.7995
   65SAPC  H10S 5328  -0.359   6.782   7.113  1.6734 -2.0475  1.2356
   65SAPC  C211 5329  -0.469   6.896   7.264  0.0826 -0.3052 -0.5599
   65SAPC  H11R 5330  -0.520   6.960   7.190 -0.4140 -0.7054 -0.5670
   65SAPC  C212 5331  -0.515   6.882   7.390  0.4438  0.5373 -0.0423
   65SAPC  H12R 5332  -0.612   6.932   7.406  0.6999  0.6696  1.1641
   65SAPC  C213 5333  -0.446   6.802   7.502 -0.4911 -0.0306 -0.2031
   65SAPC  H13R 5334  -0.470   6.862   7.592 -1.6461 -0.2652 -0.3495
   65SAPC  H13S 5335  -0.336   6.802   7.484 -0.6545 -1.0835 -1.2830
   65SAPC  C214 5336  -0.494   6.659   7.525 -0.6199  0.3638 -0.0816
   65SAPC  H14R 5337  -0.486   6.595   7.435 -0.2965 -2.0478  1.6064
   65SAPC  C215 5338  -0.548   6.604   7.639 -0.0118 -0.7235 -0.2988
   65SAPC  H15R 5339  -0.592   6.503   7.638 -0.3799 -0.6081  1.8939
   65SAPC  C216 5340  -0.573   6.674   7.770  0.4377 -0.6633 -0.3210
   65SAPC  H16R 5341  -0.495   6.749   7.792  0.4708 -0.5798 -0.7185
   65SAPC  H16S 5342  -0.569   6.599   7.852  0.7883  1.4975  1.6779
   65SAPC  C217 5343  -0.699   6.752   7.790 -0.1596 -1.0357 -0.9262
   65SAPC  H17R 5344  -0.713   6.780   7.896  0.4713  1.2966 -1.4263
   65SAPC  H17S 5345  -0.784   6.687   7.760 -3.8320  2.1340  2.1731
   65SAPC  C218 5346  -0.708   6.881   7.711  0.0627 -0.1848  0.6858
   65SAPC  H18R 5347  -0.716   6.868   7.601 -0.6935 -0.6360  0.7956
   65SAPC  H18S 5348  -0.624   6.949   7.739  0.2781 -0.3977  0.5544
   65SAPC  C219 5349  -0.833   6.960   7.738 -0.3884 -0.4029 -0.1690
   65SAPC  H19R 5350  -0.847   6.979   7.847 -2.0453  0.1911 -0.4696
   65SAPC  H19S 5351  -0.925   6.910   7.701 -0.7902  0.6024 -0.5418
   65SAPC  C220 5352  -0.835   7.092   7.654 -0.6297  0.2202  0.6168
   65SAPC  H20R 5353  -0.747   7.153   7.683 -1.4562  1.6212  0.2288
   65SAPC  H20S 5354  -0.930   7.149   7.666 -0.2069  0.9583  0.4435
   65SAPC  H20T 5355  -0.813   7.063   7.549 -1.9966 -1.0389  0.6576
   65SAPC   C33 5356  -0.268   6.292   6.933 -0.2073  0.3265  0.3283
   65SAPC   H3X 5357  -0.223   6.385   6.891  0.2952 -0.3321 -0.6140
   65SAPC   H3Y 5358  -0.175   6.239   6.962 -0.0045  1.7791  2.4794
   65SAPC   C34 5359  -0.337   6.328   7.066 -0.3636 -0.1687 -0.2850
   65SAPC   H4X 5360  -0.398   6.238   7.089  1.0677 -0.6775  1.6897
   65SAPC   H4Y 5361  -0.408   6.412   7.050  0.6933  0.3196 -2.5841
   65SAPC   C35 5362  -0.234   6.368   7.178  0.0065  0.6280 -0.1937
   65SAPC   H5X 5363  -0.183   6.462   7.148  1.7166  0.1128  1.0281
   65SAPC   H5Y 5364  -0.149   6.295   7.176 -0.1899  0.3006  1.9621
   65SAPC   C36 5365  -0.284   6.398   7.318 -0.1951 -0.7340 -0.3494
   65SAPC   H6X 5366  -0.345   6.315   7.360  0.4424 -1.5038 -0.9221
   65SAPC   H6Y 5367  -0.337   6.496   7.317  1.1696  0.1032  3.0494
   65SAPC   C37 5368  -0.157   6.429   7.407 -0.1260  0.1667  0.4259
   65SAPC   H7X 5369  -0.090   6.502   7.356  0.8799 -1.4005 -0.5094
   65SAPC   H7Y 5370  -0.093   6.339   7.421  0.6594  0.4415 -1.2370
   65SAPC   C38 5371  -0.195   6.490   7.540 -0.7604 -0.1257 -0.0865
   65SAPC   H8X 5372  -0.282   6.434   7.582 -0.8005 -1.6424 -2.1266
   65SAPC   H8Y 5373  -0.214   6.596   7.515  1.9400  0.1575 -1.0645
   65SAPC   C39 5374  -0.078   6.506   7.638  0.2333 -0.7211 -0.2906
   65SAPC   H9X 5375  -0.097   6.588   7.711  1.3635 -1.8617  1.3082
   65SAPC   H9Y 5376   0.012   6.528   7.578  0.4766 -3.7515 -1.1098
   65SAPC  C310 5377  -0.049   6.390   7.731 -0.4445 -0.3992 -0.0852
   65SAPC  H10X 5378   0.007   6.318   7.667  1.0110 -0.7278  1.5274
   65SAPC  H10Y 5379  -0.142   6.344   7.770 -0.6218 -0.8825 -1.0516
   65SAPC  C311 5380   0.048   6.433   7.841  0.1235 -0.0654  0.2185
   65SAPC  H11X 5381  -0.002   6.520   7.887  1.3373  0.5390  0.4187
   65SAPC  H11Y 5382   0.145   6.458   7.793 -0.7060  1.0024 -0.9598
   65SAPC  C312 5383   0.059   6.321   7.954  1.1192 -0.6250  0.5691
   65SAPC  H12X 5384  -0.044   6.295   7.985  0.0906  2.3778 -0.1590
   65SAPC  H12Y 5385   0.100   6.368   8.047  0.0450  0.9565  0.2697
   65SAPC  C313 5386   0.131   6.198   7.898  0.1552  0.7644  0.9687
   65SAPC  H13X 5387   0.231   6.225   7.857  0.1327  0.8412  0.9632
   65SAPC  H13Y 5388   0.067   6.158   7.817  0.4541  1.1743  0.5234
   65SAPC  C314 5389   0.167   6.090   8.004 -0.3123 -0.4928  0.4109
   65SAPC  H14X 5390   0.238   6.139   8.074 -1.4432  0.6441  0.7822
   65SAPC  H14Y 5391   0.214   5.999   7.962  0.1754  0.1557 -0.4849
   65SAPC  C315 5392   0.043   6.048   8.086  0.2186 -0.3042 -0.3557
   65SAPC  H15X 5393  -0.036   6.013   8.017  1.1165 -1.2763 -0.9097
   65SAPC  H15Y 5394  -0.005   6.133   8.139  1.3054 -0.9395  1.7253
   65SAPC  C316 5395   0.074   5.951   8.206  0.0882  0.2253 -0.2278
   65SAPC  H16X 5396   0.147   6.015   8.259  1.4386  0.1527 -1.9573
   65SAPC  H16Y 5397   0.119   5.855   8.172 -0.4301 -0.5095  1.0907
   65SAPC  C317 5398  -0.053   5.917   8.288 -0.5200 -0.8614 -0.4427
   65SAPC  H17X 5399  -0.109   5.855   8.215 -0.8266 -0.1776 -0.7956
   65SAPC  H17Y 5400  -0.113   6.007   8.313 -1.5255 -1.2241 -1.5542
   65SAPC  C318 5401  -0.031   5.825   8.403 -0.0534 -0.2111 -0.1322
   65SAPC  H18X 5402  -0.131   5.796   8.443  0.7590 -1.0674  1.3099
   65SAPC  H18Y 5403   0.024   5.872   8.488 -1.0500 -3.0118  2.1482
   65SAPC  H18Z 5404   0.001   5.728   8.361 -0.4855  0.3269 -1.7221
   66SAPC     N 5405   4.264   5.196   5.844  0.0017 -0.1472 -0.1533
   66SAPC   C12 5406   4.300   5.249   5.982 -0.1606 -0.0012  0.2661
   66SAPC  H12A 5407   4.403   5.279   5.981 -0.3897  0.8103 -1.1456
   66SAPC  H12B 5408   4.285   5.172   6.057  0.3677 -0.6980 -0.3345
   66SAPC   C13 5409   4.308   5.055   5.824 -0.1807  0.3562 -0.2874
   66SAPC  H13A 5410   4.269   4.987   5.899 -1.2339  0.2731 -0.9081
   66SAPC  H13B 5411   4.272   5.010   5.733 -1.9125  0.0969  0.4942
   66SAPC  H13C 5412   4.413   5.032   5.835 -0.4388 -0.6217  0.1995
   66SAPC   C14 5413   4.112   5.187   5.829  0.5365  0.0884 -0.3664
   66SAPC  H14A 5414   4.069   5.277   5.870  0.1752 -0.3344  0.1928
   66SAPC  H14B 5415   4.089   5.155   5.729  0.7464 -1.9784  0.2225
   66SAPC  H14C 5416   4.081   5.104   5.891  1.7617 -1.6689 -2.0629
   66SAPC   C15 5417   4.320   5.286   5.737 -0.0173 -0.0289 -0.6981
   66SAPC  H15A 5418   4.270   5.255   5.646  1.5937 -1.4296 -1.1384
   66SAPC  H15B 5419   4.308   5.391   5.759 -0.2170 -0.2602  0.3574
   66SAPC  H15C 5420   4.425   5.264   5.727 -0.3027 -2.1038  0.4965
   66SAPC   C11 5421   4.235   5.388   6.033 -0.2253  0.4599 -0.8374
   66SAPC  H11A 5422   4.259   5.401   6.141 -2.1562 -1.1584 -0.1917
   66SAPC  H11B 5423   4.125   5.376   6.023 -0.4179  1.3354  0.1034
   66SAPC     P 5424   4.424   5.551   5.944  0.1036  0.1175 -0.1434
   66SAPC   O13 5425   4.517   5.438   5.946 -0.1648 -0.1861  0.2068
   66SAPC   O14 5426   4.430   5.636   5.826  0.1189  0.2628  0.7235
   66SAPC   O12 5427   4.273   5.497   5.951  0.2309 -0.1228 -0.2608
   66SAPC   O11 5428   4.443   5.644   6.075  0.0916  0.1276 -0.6549
   66SAPC    C1 5429   4.342   5.740   6.113 -0.5212  0.0392  0.0674
   66SAPC    HA 5430   4.357   5.830   6.050  0.5581  0.6620  1.1950
   66SAPC    HB 5431   4.242   5.701   6.086  0.0876 -1.8739  0.4646
   66SAPC    C2 5432   4.342   5.775   6.265 -0.1721 -0.2501 -0.1805
   66SAPC    HS 5433   4.247   5.825   6.297  0.5231  0.4132  0.8839
   66SAPC   O21 5434   4.459   5.858   6.297 -0.4846 -0.7844 -0.2477
   66SAPC   C21 5435   4.440   5.993   6.279  0.0056 -0.4836 -0.3983
   66SAPC   O22 5436   4.341   6.041   6.232 -0.1515 -0.0376 -0.0507
   66SAPC   C22 5437   4.568   6.066   6.318  0.4544  0.0160 -0.3453
   66SAPC   H2R 5438   4.650   5.991   6.314  0.9109  0.5359 -0.7750
   66SAPC   H2S 5439   4.586   6.151   6.248 -2.7378  1.5622  0.6385
   66SAPC    C3 5440   4.345   5.654   6.361 -0.1022  0.0053  0.1179
   66SAPC    HX 5441   4.450   5.625   6.377 -1.2255 -3.6877  1.1818
   66SAPC    HY 5442   4.301   5.564   6.314 -0.0575 -0.3723  0.8025
   66SAPC   O31 5443   4.298   5.698   6.491  1.0052 -0.1118 -0.1453
   66SAPC   C31 5444   4.172   5.655   6.513 -0.4199  1.2547  0.0028
   66SAPC   O32 5445   4.101   5.604   6.428  0.6592 -0.1711 -0.0238
   66SAPC   C32 5446   4.130   5.678   6.657 -0.4152  0.3247 -0.2627
   66SAPC   H2X 5447   4.176   5.776   6.682 -1.2919  0.9604 -1.0874
   66SAPC   H2Y 5448   4.176   5.604   6.726 -0.9673  1.7394  1.6731
   66SAPC   C23 5449   4.555   6.136   6.452  0.2546  0.0483 -0.3269
   66SAPC   H3R 5450   4.470   6.208   6.453 -0.8789 -1.2670  1.6670
   66SAPC   H3S 5451   4.640   6.207   6.465  0.4988 -0.5839  1.6904
   66SAPC   C24 5452   4.553   6.040   6.568 -0.3111 -0.0394 -0.1904
   66SAPC   H4R 5453   4.629   5.959   6.563  0.5053  0.6965  0.2206
   66SAPC   H4S 5454   4.460   5.980   6.565 -0.5131  0.0748  2.8496
   66SAPC   C25 5455   4.558   6.123   6.697 -0.4769  0.2264 -0.2531
   66SAPC   H5R 5456   4.566   6.232   6.687 -0.5036  0.1034 -1.7228
   66SAPC   C26 5457   4.552   6.069   6.823 -0.1414  0.1745 -0.6314
   66SAPC   H6R 5458   4.548   6.143   6.905  0.3140  0.1204 -0.5580
   66SAPC   C27 5459   4.540   5.927   6.867 -0.5414 -0.1972 -0.1267
   66SAPC   H7R 5460   4.636   5.890   6.910 -0.1006 -1.5347 -2.1822
   66SAPC   H7S 5461   4.535   5.863   6.777 -2.5826  0.0172 -0.1746
   66SAPC   C28 5462   4.429   5.887   6.963  0.4296 -0.4221 -0.4118
   66SAPC   H8R 5463   4.352   5.824   6.916 -0.0365  0.8826 -1.4284
   66SAPC   C29 5464   4.413   5.930   7.091  0.4293 -0.1757  0.2788
   66SAPC   H9R 5465   4.338   5.881   7.155  0.2319  0.3044  0.4154
   66SAPC  C210 5466   4.500   6.028   7.172  0.0985  0.4416  0.4708
   66SAPC  H10R 5467   4.514   6.124   7.117 -0.0831  0.0388 -0.2872
   66SAPC  H10S 5468   4.602   5.984   7.175  0.0849  0.3183 -0.6318
   66SAPC  C211 5469   4.442   6.065   7.307 -0.1895 -0.7408 -0.2452
   66SAPC  H11R 5470   4.500   6.026   7.392  0.4462  0.6644 -0.0123
   66SAPC  C212 5471   4.336   6.143   7.331  0.3719 -0.5384 -0.2954
   66SAPC  H12R 5472   4.303   6.168   7.433 -0.1917  0.7723 -0.7879
   66SAPC  C213 5473   4.248   6.208   7.223  0.2045 -0.1806 -0.1305
   66SAPC  H13R 5474   4.275   6.174   7.120  0.1403  0.1152 -0.2472
   66SAPC  H13S 5475   4.272   6.316   7.218 -0.3521 -0.0518 -0.0250
   66SAPC  C214 5476   4.097   6.198   7.241 -0.0709 -0.7141  0.3603
   66SAPC  H14R 5477   4.065   6.178   7.344 -1.9717  0.9021  0.1085
   66SAPC  C215 5478   4.013   6.233   7.145 -0.3223 -0.6404  0.0613
   66SAPC  H15R 5479   3.905   6.223   7.167 -0.4188  0.0595 -0.0869
   66SAPC  C216 5480   4.059   6.277   7.005 -0.3089 -0.8000  0.6020
   66SAPC  H16R 5481   4.167   6.298   6.990 -0.5545 -0.5995 -1.0241
   66SAPC  H16S 5482   4.007   6.372   6.979 -0.1579 -0.9189 -0.1574
   66SAPC  C217 5483   4.019   6.176   6.890 -0.3562 -1.0107  0.2225
   66SAPC  H17R 5484   3.908   6.171   6.894 -0.5017 -0.7012 -2.4556
   66SAPC  H17S 5485   4.074   6.080   6.907  0.4920 -0.5500  0.1251
   66SAPC  C218 5486   4.055   6.236   6.753  0.6156  0.0968 -0.0301
   66SAPC  H18R 5487   4.157   6.281   6.754  2.0092 -2.8884 -0.7962
   66SAPC  H18S 5488   3.987   6.322   6.733  0.7538  0.1781 -0.1533
   66SAPC  C219 5489   4.052   6.136   6.638  0.1474 -0.5874  0.5019
   66SAPC  H19R 5490   4.038   6.184   6.539  0.3362 -1.8079 -0.1263
   66SAPC  H19S 5491   3.961   6.075   6.652 -0.7571  0.3725 -1.0419
   66SAPC  C220 5492   4.178   6.045   6.634 -0.2067 -0.2196 -0.7324
   66SAPC  H20R 5493   4.180   5.980   6.724 -0.5280  2.0456  0.9537
   66SAPC  H20S 5494   4.273   6.103   6.634 -0.2087 -0.2080  0.3888
   66SAPC  H20T 5495   4.174   5.981   6.544  0.8119 -2.9345  1.0787
   66SAPC   C33 5496   3.977   5.674   6.678 -0.9232  0.1564  0.3292
   66SAPC   H3X 5497   3.932   5.586   6.626  1.2577 -1.9037  1.8405
   66SAPC   H3Y 5498   3.921   5.756   6.629  1.4528  2.0063  0.6387
   66SAPC   C34 5499   3.935   5.658   6.821  0.0187 -0.9066 -0.4842
   66SAPC   H4X 5500   3.966   5.558   6.859  1.2809 -0.3814 -0.1042
   66SAPC   H4Y 5501   3.825   5.672   6.820 -0.1582 -2.3272 -1.0814
   66SAPC   C35 5502   3.997   5.760   6.912 -0.0764  0.8025  0.5989
   66SAPC   H5X 5503   3.999   5.863   6.871  4.5998  0.3403 -0.6345
   66SAPC   H5Y 5504   4.104   5.731   6.920  0.6391  2.7018 -1.7837
   66SAPC   C36 5505   3.937   5.742   7.048 -0.0845 -0.2428 -0.0075
   66SAPC   H6X 5506   3.941   5.631   7.059 -1.0565 -0.2524  0.2567
   66SAPC   H6Y 5507   3.834   5.781   7.041  0.9133  2.2097 -1.3596
   66SAPC   C37 5508   4.012   5.816   7.160 -0.5930 -0.1057 -0.3911
   66SAPC   H7X 5509   3.990   5.925   7.150 -0.0549 -0.1403 -2.0117
   66SAPC   H7Y 5510   4.118   5.798   7.134 -0.9099 -3.5564  0.4664
   66SAPC   C38 5511   3.966   5.759   7.293  0.8351 -0.3587 -0.5705
   66SAPC   H8X 5512   4.002   5.654   7.294  1.3871 -0.1623  0.7260
   66SAPC   H8Y 5513   3.856   5.769   7.307  0.9407 -0.5108  0.4120
   66SAPC   C39 5514   4.028   5.830   7.415  0.1736 -0.2422  0.0369
   66SAPC   H9X 5515   3.994   5.936   7.408 -0.3392 -0.5218 -1.9904
   66SAPC   H9Y 5516   4.138   5.824   7.401  0.3412  2.4949 -0.1653
   66SAPC  C310 5517   4.001   5.752   7.535 -0.4112 -0.0584 -0.4020
   66SAPC  H10X 5518   4.002   5.645   7.505  1.2444 -0.5055  1.1041
   66SAPC  H10Y 5519   3.895   5.766   7.567 -0.0618  1.6604  0.0579
   66SAPC  C311 5520   4.090   5.783   7.655  0.5175 -0.2792  0.0090
   66SAPC  H11X 5521   4.197   5.757   7.637  1.4905  4.7333 -2.4459
   66SAPC  H11Y 5522   4.059   5.722   7.742  0.8906 -1.3901 -0.6148
   66SAPC  C312 5523   4.078   5.928   7.686  0.7348  0.4299  0.7201
   66SAPC  H12X 5524   3.973   5.953   7.712  0.1477 -0.4377 -0.7365
   66SAPC  H12Y 5525   4.099   5.996   7.601 -1.5136 -0.0220 -0.2457
   66SAPC  C313 5526   4.164   5.970   7.809 -0.1238 -0.5516 -1.0433
   66SAPC  H13X 5527   4.135   5.906   7.895  1.1807 -1.4750 -1.2765
   66SAPC  H13Y 5528   4.116   6.070   7.815  2.0500  0.3794  1.1589
   66SAPC  C314 5529   4.318   5.989   7.790  0.5320 -0.1998  0.1966
   66SAPC  H14X 5530   4.337   6.007   7.682  0.9521  0.0504  0.3076
   66SAPC  H14Y 5531   4.367   5.895   7.822 -0.1428 -1.7774 -3.1879
   66SAPC  C315 5532   4.383   6.113   7.865 -0.2028 -0.4388 -0.0334
   66SAPC  H15X 5533   4.349   6.105   7.971 -0.3841  0.0430 -0.0540
   66SAPC  H15Y 5534   4.348   6.201   7.806  0.7437  0.0099  0.0677
   66SAPC  C316 5535   4.540   6.123   7.862 -0.3814  0.1090  0.8455
   66SAPC  H16X 5536   4.561   6.143   7.755 -1.4483 -2.4085  0.1323
   66SAPC  H16Y 5537   4.579   6.022   7.884 -0.4810 -0.3296 -0.9404
   66SAPC  C317 5538   4.594   6.232   7.961 -0.6533  0.4411 -0.1281
   66SAPC  H17X 5539   4.703   6.231   7.939 -0.8375 -0.1677 -1.0142
   66SAPC  H17Y 5540   4.587   6.192   8.065  1.6209  0.3276  0.0030
   66SAPC  C318 5541   4.537   6.371   7.926  0.5462  0.5809 -0.5286
   66SAPC  H18X 5542   4.427   6.377   7.937  0.8162  2.1833  1.6645
   66SAPC  H18Y 5543   4.550   6.396   7.819  0.9945  1.1727 -0.3394
   66SAPC  H18Z 5544   4.586   6.450   7.986  1.5417 -0.6443  0.3086
   67SAPC     N 5545   0.043   1.294   6.244 -0.3184 -0.7513  0.5122
   67SAPC   C12 5546   0.058   1.278   6.402  0.3558 -0.0699  0.2111
   67SAPC  H12A 5547   0.141   1.342   6.428  2.8674 -3.1539  0.0874
   67SAPC  H12B 5548   0.082   1.174   6.419 -0.8860 -0.1778  1.4002
   67SAPC   C13 5549   0.021   1.439   6.202 -0.4351  0.9249 -0.6030
   67SAPC  H13A 5550   0.056   1.467   6.104  0.2493  0.4837 -0.4861
   67SAPC  H13B 5551  -0.085   1.460   6.204 -0.6390 -0.0116 -1.3213
   67SAPC  H13C 5552   0.075   1.501   6.273 -0.9450 -0.4928  1.0611
   67SAPC   C14 5553   0.167   1.252   6.183  0.0889  0.9141  0.5055
   67SAPC  H14A 5554   0.157   1.266   6.076 -1.3319  2.4322  0.8189
   67SAPC  H14B 5555   0.249   1.314   6.216 -0.3640  0.6173  2.2225
   67SAPC  H14C 5556   0.192   1.148   6.199  0.2288  0.7157 -0.8634
   67SAPC   C15 5557  -0.060   1.200   6.191  0.1078  0.1589  0.1672
   67SAPC  H15A 5558  -0.081   1.217   6.086  0.7230  0.0998  0.0279
   67SAPC  H15B 5559  -0.031   1.097   6.200  2.1266  0.7319  0.6324
   67SAPC  H15C 5560  -0.151   1.224   6.244  0.5674  0.7474  0.7036
   67SAPC   C11 5561  -0.072   1.319   6.472  0.5639  0.2276 -0.8454
   67SAPC  H11A 5562  -0.104   1.414   6.426  0.6879  0.9300  0.5036
   67SAPC  H11B 5563  -0.050   1.340   6.579 -0.9651 -2.6599  0.1191
   67SAPC     P 5564  -0.297   1.195   6.535  0.4909  0.3074  0.1680
   67SAPC   O13 5565  -0.338   1.324   6.593  0.3516  0.5512  0.1275
   67SAPC   O14 5566  -0.387   1.118   6.449 -0.0180  0.9168  0.7963
   67SAPC   O12 5567  -0.165   1.210   6.452  0.0520 -0.0910  0.0286
   67SAPC   O11 5568  -0.259   1.093   6.651  0.4144  0.0184  0.2672
   67SAPC    C1 5569  -0.162   1.108   6.755 -0.0951  0.8065 -1.2510
   67SAPC    HA 5570  -0.078   1.042   6.725 -1.2683 -0.7594 -1.1954
   67SAPC    HB 5571  -0.125   1.212   6.765  0.9751  0.3676 -0.6114
   67SAPC    C2 5572  -0.223   1.064   6.900  0.0447 -0.0596  0.7475
   67SAPC    HS 5573  -0.318   1.120   6.914  0.3898  0.0018  3.0629
   67SAPC   O21 5574  -0.121   1.099   6.999 -0.5639 -0.1180 -0.6173
   67SAPC   C21 5575  -0.144   1.217   7.067 -0.8643 -0.2268  0.2859
   67SAPC   O22 5576  -0.248   1.271   7.080  0.4157  0.1896 -0.5324
   67SAPC   C22 5577  -0.020   1.251   7.146 -0.4085  0.1671 -0.2245
   67SAPC   H2R 5578   0.071   1.237   7.084  0.4797  1.5444  0.7383
   67SAPC   H2S 5579  -0.026   1.358   7.175  0.0321  0.4742 -1.2512
   67SAPC    C3 5580  -0.242   0.911   6.899 -0.1501  0.8727  0.1532
   67SAPC    HX 5581  -0.151   0.852   6.876 -0.2916  1.0945 -1.0085
   67SAPC    HY 5582  -0.315   0.876   6.823 -1.3272 -3.0673  2.9147
   67SAPC   O31 5583  -0.290   0.872   7.037  0.3516  0.6156  0.4791
   67SAPC   C31 5584  -0.423   0.913   7.059  0.1285 -0.6403  0.2639
   67SAPC   O32 5585  -0.496   0.934   6.967 -0.0353  0.6574  0.3129
   67SAPC   C32 5586  -0.455   0.911   7.203 -0.1094 -0.3205 -0.2050
   67SAPC   H2X 5587  -0.361   0.944   7.253 -1.4230  2.2706  0.6908
   67SAPC   H2Y 5588  -0.499   0.814   7.233 -0.6951  0.2521  0.8338
   67SAPC   C23 5589  -0.014   1.183   7.281  0.2244 -0.3172 -0.1475
   67SAPC   H3R 5590  -0.086   1.233   7.349 -1.6843 -1.8856 -0.9356
   67SAPC   H3S 5591   0.085   1.192   7.329 -0.0734 -0.9206  0.5915
   67SAPC   C24 5592  -0.060   1.037   7.293 -0.3520  0.5696 -0.0384
   67SAPC   H4R 5593  -0.029   0.970   7.211  0.6007 -1.2282  1.7387
   67SAPC   H4S 5594  -0.171   1.025   7.288  0.0409 -2.7811 -1.6348
   67SAPC   C25 5595  -0.006   0.971   7.423  0.9443 -0.5209  0.6730
   67SAPC   H5R 5596   0.096   0.929   7.419  1.2978  0.5114 -1.6381
   67SAPC   C26 5597  -0.081   0.952   7.534 -0.0131  0.2362  0.7201
   67SAPC   H6R 5598  -0.024   0.912   7.619 -0.4376 -3.2096 -0.5061
   67SAPC   C27 5599  -0.223   0.991   7.565  0.3735 -1.2475 -0.3690
   67SAPC   H7R 5600  -0.287   0.945   7.487 -1.0377 -0.6915  0.4521
   67SAPC   H7S 5601  -0.235   1.095   7.529  0.6992 -1.4071 -0.9576
   67SAPC   C28 5602  -0.277   0.959   7.700  0.0686 -0.3051  0.3951
   67SAPC   H8R 5603  -0.338   0.868   7.710 -0.5501  0.3049  2.4173
   67SAPC   C29 5604  -0.256   1.031   7.812  0.9653 -0.6569  0.1096
   67SAPC   H9R 5605  -0.300   0.995   7.906  0.5307 -2.9499 -0.9566
   67SAPC  C210 5606  -0.168   1.155   7.830 -0.0084 -0.5148 -0.0491
   67SAPC  H10R 5607  -0.147   1.201   7.731  0.2979 -1.8636 -0.6214
   67SAPC  H10S 5608  -0.067   1.129   7.867  0.2205  0.2825 -0.0982
   67SAPC  C211 5609  -0.241   1.261   7.903 -0.7466 -0.5107  0.2115
   67SAPC  H11R 5610  -0.318   1.310   7.842 -0.2004 -0.0224 -0.0930
   67SAPC  C212 5611  -0.232   1.308   8.029 -0.0785  0.2365 -1.0827
   67SAPC  H12R 5612  -0.302   1.391   8.051 -1.6315 -1.0608 -1.0585
   67SAPC  C213 5613  -0.140   1.256   8.135  0.0287  0.0093  0.1966
   67SAPC  H13R 5614  -0.044   1.243   8.080 -0.4122  0.3528 -0.6662
   67SAPC  H13S 5615  -0.181   1.163   8.180 -1.8468  1.7171  2.1267
   67SAPC  C214 5616  -0.124   1.352   8.247 -0.1199 -0.0798 -0.5895
   67SAPC  H14R 5617  -0.019   1.381   8.263 -0.6994  2.2854 -0.8174
   67SAPC  C215 5618  -0.209   1.409   8.330 -0.1836 -0.9939 -0.3358
   67SAPC  H15R 5619  -0.170   1.488   8.396  0.6028 -1.3143 -0.4168
   67SAPC  C216 5620  -0.357   1.377   8.340  0.0259 -0.1020  0.4159
   67SAPC  H16R 5621  -0.380   1.270   8.320  2.1245 -0.7242  1.2411
   67SAPC  H16S 5622  -0.420   1.429   8.265  1.3666  0.3659 -0.4064
   67SAPC  C217 5623  -0.424   1.416   8.472  0.9000  0.2464 -0.1717
   67SAPC  H17R 5624  -0.395   1.519   8.502  0.9839 -0.0760  0.8896
   67SAPC  H17S 5625  -0.389   1.348   8.553 -1.4533 -0.4989  0.2650
   67SAPC  C218 5626  -0.578   1.402   8.474 -0.4625 -0.4149  0.1551
   67SAPC  H18R 5627  -0.600   1.307   8.422 -0.9620  0.2800 -0.9092
   67SAPC  H18S 5628  -0.619   1.487   8.415  3.9691  1.2320 -0.8114
   67SAPC  C219 5629  -0.639   1.402   8.620  0.1148  0.4736 -0.6581
   67SAPC  H19R 5630  -0.748   1.409   8.603 -0.1402  0.6196  0.9540
   67SAPC  H19S 5631  -0.610   1.503   8.656  0.7503  0.4115 -0.9858
   67SAPC  C220 5632  -0.592   1.295   8.707  0.0965  0.3265  0.2178
   67SAPC  H20R 5633  -0.621   1.316   8.812 -1.1925 -0.1169 -0.0417
   67SAPC  H20S 5634  -0.482   1.281   8.695  0.0969  1.4869 -1.2682
   67SAPC  H20T 5635  -0.636   1.198   8.675 -2.0962  1.2444  0.3415
   67SAPC   C33 5636  -0.568   1.013   7.240  0.1822 -0.3424 -0.0092
   67SAPC   H3X 5637  -0.665   0.963   7.222 -0.3718  0.7895 -0.1937
   67SAPC   H3Y 5638  -0.549   1.101   7.175  1.5938 -1.4604 -1.1312
   67SAPC   C34 5639  -0.561   1.069   7.381 -0.1073  0.4194  0.4753
   67SAPC   H4X 5640  -0.451   1.075   7.396  0.4199 -2.0900 -2.1232
   67SAPC   H4Y 5641  -0.596   0.987   7.447  1.8698 -1.1937 -0.4446
   67SAPC   C35 5642  -0.633   1.202   7.411 -0.2226 -0.2508 -0.3528
   67SAPC   H5X 5643  -0.734   1.192   7.366  0.5106 -2.5547 -1.5776
   67SAPC   H5Y 5644  -0.576   1.283   7.360  1.5004  0.6783  2.9136
   67SAPC   C36 5645  -0.646   1.241   7.554 -0.8499  0.0383 -0.1601
   67SAPC   H6X 5646  -0.679   1.347   7.560 -0.8173  0.1261 -1.4791
   67SAPC   H6Y 5647  -0.553   1.239   7.614  0.4173  0.2086 -2.0870
   67SAPC   C37 5648  -0.755   1.162   7.626  0.2667 -0.1942  0.5164
   67SAPC   H7X 5649  -0.719   1.057   7.616 -0.2616 -0.2878 -0.4996
   67SAPC   H7Y 5650  -0.857   1.172   7.583 -0.2596  0.9021  1.9782
   67SAPC   C38 5651  -0.769   1.214   7.763  0.1461 -0.7424  0.1973
   67SAPC   H8X 5652  -0.794   1.322   7.759  0.0982 -0.7570  0.1035
   67SAPC   H8Y 5653  -0.674   1.189   7.815  1.1436 -0.4115 -1.4189
   67SAPC   C39 5654  -0.880   1.139   7.841  0.3886  0.3973 -0.3157
   67SAPC   H9X 5655  -0.871   1.030   7.821 -2.4351  0.1353 -0.3591
   67SAPC   H9Y 5656  -0.988   1.157   7.820  0.3592  0.1945 -0.3415
   67SAPC  C310 5657  -0.873   1.158   7.988 -0.6670  0.4963  0.3544
   67SAPC  H10X 5658  -0.900   1.262   8.017  2.4074  0.6753  2.8909
   67SAPC  H10Y 5659  -0.773   1.159   8.038 -0.2588 -1.6392 -0.3607
   67SAPC  C311 5660  -0.959   1.066   8.080 -0.2539  0.0182 -0.1671
   67SAPC  H11X 5661  -0.886   0.988   8.111  1.7032  0.6800 -2.8965
   67SAPC  H11Y 5662  -1.043   1.022   8.022 -0.1315  0.6696 -0.8521
   67SAPC  C312 5663  -1.002   1.134   8.207  0.5903  0.2129  1.1426
   67SAPC  H12X 5664  -1.054   1.230   8.187  0.4534 -0.1800 -0.4354
   67SAPC  H12Y 5665  -0.908   1.153   8.262 -0.0960 -1.1371  2.8235
   67SAPC  C313 5666  -1.089   1.037   8.291 -0.8162 -0.0710 -0.2224
   67SAPC  H13X 5667  -1.029   0.948   8.319  0.1598 -0.0526 -2.1956
   67SAPC  H13Y 5668  -1.172   1.006   8.223 -1.5713 -1.0490  1.1235
   67SAPC  C314 5669  -1.162   1.100   8.410 -0.3929  0.7309 -0.5163
   67SAPC  H14X 5670  -1.241   1.029   8.442 -1.4479  1.2149 -1.9599
   67SAPC  H14Y 5671  -1.209   1.188   8.362 -0.4408 -0.4877 -2.7472
   67SAPC  C315 5672  -1.074   1.151   8.528  0.3090  0.1198  0.4929
   67SAPC  H15X 5673  -1.148   1.190   8.601 -0.1410 -1.2487  0.7732
   67SAPC  H15Y 5674  -1.015   1.235   8.486 -0.5106  2.0984  3.1474
   67SAPC  C316 5675  -0.981   1.041   8.584  0.6724 -0.0834  0.0884
   67SAPC  H16X 5676  -0.919   0.984   8.511 -0.2045 -1.9733  0.8055
   67SAPC  H16Y 5677  -1.043   0.962   8.631 -2.3904  0.1299 -3.3658
   67SAPC  C317 5678  -0.889   1.100   8.694  0.3075 -0.0999  0.4503
   67SAPC  H17X 5679  -0.954   1.143   8.773  1.4597 -0.5792  1.6717
   67SAPC  H17Y 5680  -0.823   1.178   8.651  2.2707 -0.2651  3.0217
   67SAPC  C318 5681  -0.804   0.995   8.762  0.2917 -0.0208  0.0613
   67SAPC  H18X 5682  -0.747   0.944   8.682  0.4581 -0.8566  0.6947
   67SAPC  H18Y 5683  -0.868   0.918   8.811 -0.7620  1.8142  1.6947
   67SAPC  H18Z 5684  -0.752   1.029   8.855  1.1958  0.2639 -0.5481
   68SAPC     N 5685   4.590   6.699   5.807 -0.0456  0.7778  0.1033
   68SAPC   C12 5686   4.490   6.638   5.903 -0.0974  0.0200  0.6316
   68SAPC  H12A 5687   4.499   6.531   5.897 -0.4486  0.0411 -0.3966
   68SAPC  H12B 5688   4.392   6.671   5.871  0.0254 -1.5439 -1.4726
   68SAPC   C13 5689   4.728   6.662   5.843  0.2539 -0.1756 -0.5522
   68SAPC  H13A 5690   4.739   6.556   5.829 -1.2561 -0.2239 -1.5202
   68SAPC  H13B 5691   4.807   6.718   5.793  0.1776 -0.9909 -1.6052
   68SAPC  H13C 5692   4.740   6.678   5.949 -2.1842 -0.6751 -0.1736
   68SAPC   C14 5693   4.564   6.640   5.664 -0.3878 -0.5002  0.2030
   68SAPC  H14A 5694   4.461   6.663   5.639 -0.0539 -0.1853 -0.9093
   68SAPC  H14B 5695   4.636   6.681   5.595 -2.3237  1.0086 -0.9492
   68SAPC  H14C 5696   4.581   6.534   5.677  1.3624 -0.5046 -1.9276
   68SAPC   C15 5697   4.584   6.847   5.805 -0.4918  0.3800 -0.2596
   68SAPC  H15A 5698   4.489   6.885   5.772 -1.4303 -2.2882 -0.7907
   68SAPC  H15B 5699   4.599   6.887   5.904  2.5019  0.2242 -0.5917
   68SAPC  H15C 5700   4.666   6.885   5.746 -1.9108  1.1250 -1.7758
   68SAPC   C11 5701   4.513   6.680   6.049  0.1525  0.7083 -0.1395
   68SAPC  H11A 5702   4.423   6.639   6.100 -1.4642  1.2451 -2.4857
   68SAPC  H11B 5703   4.527   6.789   6.060 -3.0047  1.0339  1.0416
   68SAPC     P 5704   4.635   6.481   6.172 -0.4149  0.2631 -0.3439
   68SAPC   O13 5705   4.541   6.391   6.104  0.4730 -0.3047  0.3612
   68SAPC   O14 5706   4.778   6.435   6.160  1.2001  0.8715 -0.3812
   68SAPC   O12 5707   4.629   6.617   6.102 -0.3578 -0.2568  0.0447
   68SAPC   O11 5708   4.591   6.504   6.323 -0.2485  0.8133 -0.0913
   68SAPC    C1 5709   4.585   6.629   6.381  0.1992 -0.4157  0.0345
   68SAPC    HA 5710   4.687   6.674   6.381 -0.8264  2.0010  1.4082
   68SAPC    HB 5711   4.517   6.702   6.333  0.3380  0.5888  1.3523
   68SAPC    C2 5712   4.543   6.606   6.531 -0.1644  0.5270  0.4363
   68SAPC    HS 5713   4.530   6.705   6.581  1.0509  1.1063 -0.3730
   68SAPC   O21 5714   4.635   6.522   6.596  0.6371 -0.1292 -0.2154
   68SAPC   C21 5715   4.747   6.582   6.632 -0.6724 -0.5481 -0.1032
   68SAPC   O22 5716   4.781   6.697   6.628 -0.3196 -0.3657 -0.3394
   68SAPC   C22 5717   4.836   6.479   6.691 -0.0748  0.3180 -0.1945
   68SAPC   H2R 5718   4.781   6.447   6.782 -1.6362  0.0586 -1.2062
   68SAPC   H2S 5719   4.841   6.383   6.636  0.3400  0.4930 -0.4677
   68SAPC    C3 5720   4.399   6.544   6.539  0.5408  0.1310 -0.3097
   68SAPC    HX 5721   4.405   6.460   6.466  0.3112 -0.8705  0.8060
   68SAPC    HY 5722   4.330   6.621   6.500  1.4673  0.2717 -1.7190
   68SAPC   O31 5723   4.369   6.498   6.673 -0.2639  0.1398  0.1368
   68SAPC   C31 5724   4.340   6.588   6.768  0.4470 -0.0048 -0.0971
   68SAPC   O32 5725   4.343   6.707   6.744  0.5798  0.0100  0.7132
   68SAPC   C32 5726   4.296   6.525   6.901  0.0392  0.5166  0.6217
   68SAPC   H2X 5727   4.372   6.450   6.931 -2.4874 -2.3773  0.0975
   68SAPC   H2Y 5728   4.194   6.482   6.886  1.2962 -1.6973 -1.9766
   68SAPC   C23 5729   4.977   6.528   6.727 -0.2368  0.1001 -0.1009
   68SAPC   H3R 5730   5.023   6.449   6.790  2.6548 -0.8466 -3.2342
   68SAPC   H3S 5731   4.982   6.627   6.778  1.9762 -0.0638  0.0158
   68SAPC   C24 5732   5.078   6.532   6.607  0.1460  0.3400 -0.6082
   68SAPC   H4R 5733   5.178   6.568   6.640  0.5885 -1.2295 -0.2293
   68SAPC   H4S 5734   5.042   6.609   6.535  0.1638  1.1082  0.2028
   68SAPC   C25 5735   5.097   6.400   6.536  0.2691 -0.5508  0.5751
   68SAPC   H5R 5736   5.018   6.373   6.464  2.2042  0.3900 -1.9569
   68SAPC   C26 5737   5.200   6.320   6.552 -0.1765  0.4552 -0.3012
   68SAPC   H6R 5738   5.181   6.231   6.489 -0.6821  0.4141 -0.0890
   68SAPC   C27 5739   5.318   6.341   6.647  0.6006  0.4408  0.7108
   68SAPC   H7R 5740   5.295   6.391   6.743  0.1724  0.2646  0.7020
   68SAPC   H7S 5741   5.390   6.410   6.599  1.0207  0.9871  2.1274
   68SAPC   C28 5742   5.398   6.214   6.673  0.1727 -0.1356 -0.2934
   68SAPC   H8R 5743   5.388   6.123   6.611 -1.1254  0.4308 -0.9259
   68SAPC   C29 5744   5.468   6.194   6.788  0.1558  0.8401  0.1837
   68SAPC   H9R 5745   5.514   6.095   6.795  0.2273  0.9731  1.6637
   68SAPC  C210 5746   5.471   6.300   6.902 -0.8837 -0.0997 -0.3832
   68SAPC  H10R 5747   5.371   6.343   6.925  1.6399  4.9881  1.9045
   68SAPC  H10S 5748   5.533   6.389   6.879 -0.6190  0.4316  2.3076
   68SAPC  C211 5749   5.534   6.242   7.027 -0.1555 -0.8574 -0.4560
   68SAPC  H11R 5750   5.643   6.246   7.038  0.0353 -0.3148 -2.3454
   68SAPC  C212 5751   5.461   6.210   7.140  0.2149  0.2429 -0.0330
   68SAPC  H12R 5752   5.518   6.172   7.226 -2.6320 -2.6039  0.7091
   68SAPC  C213 5753   5.310   6.217   7.164 -1.2072  1.0866 -0.0289
   68SAPC  H13R 5754   5.266   6.122   7.200 -0.2278  1.2171  1.5087
   68SAPC  H13S 5755   5.251   6.230   7.070 -0.9906 -2.0134 -0.6373
   68SAPC  C214 5756   5.257   6.329   7.253  0.1383 -0.3497 -0.5402
   68SAPC  H14R 5757   5.226   6.418   7.198 -0.4447 -0.7468 -0.8638
   68SAPC  C215 5758   5.223   6.317   7.382 -0.0291 -0.4675  0.0324
   68SAPC  H15R 5759   5.195   6.412   7.430 -1.9069 -0.2692 -1.3651
   68SAPC  C216 5760   5.227   6.198   7.478 -0.1052 -0.3495  0.7906
   68SAPC  H16R 5761   5.281   6.108   7.440  2.3722  1.1942  0.5484
   68SAPC  H16S 5762   5.121   6.176   7.503 -0.8543 -0.3437 -2.1945
   68SAPC  C217 5763   5.289   6.245   7.617  0.1659  0.4921  0.4215
   68SAPC  H17R 5764   5.215   6.320   7.653  0.0035  0.9850 -0.8840
   68SAPC  H17S 5765   5.387   6.295   7.603  0.0459  0.5075 -0.4127
   68SAPC  C218 5766   5.314   6.135   7.725  0.5447  0.3980 -0.7556
   68SAPC  H18R 5767   5.400   6.068   7.700 -0.9680 -1.3721 -1.3097
   68SAPC  H18S 5768   5.228   6.065   7.722  1.6296 -1.0505  0.7845
   68SAPC  C219 5769   5.317   6.185   7.873  0.3789  1.0297 -0.4175
   68SAPC  H19R 5770   5.330   6.092   7.932 -1.5269  0.9532 -0.0842
   68SAPC  H19S 5771   5.221   6.235   7.899 -0.4361 -0.1479 -1.0392
   68SAPC  C220 5772   5.424   6.282   7.898 -0.4423  0.9766  0.0091
   68SAPC  H20R 5773   5.524   6.244   7.869 -0.8861  0.7698 -1.2845
   68SAPC  H20S 5774   5.422   6.324   8.001 -0.8903 -0.2235  0.4965
   68SAPC  H20T 5775   5.433   6.362   7.822  1.4253 -0.8002 -1.6672
   68SAPC   C33 5776   4.268   6.642   7.003  0.3769 -0.1067  0.8259
   68SAPC   H3X 5777   4.196   6.722   6.976 -0.2632 -0.5592  1.1598
   68SAPC   H3Y 5778   4.370   6.683   7.016  0.4712 -0.3905  1.0003
   68SAPC   C34 5779   4.211   6.595   7.136 -0.0182  0.3404 -0.5491
   68SAPC   H4X 5780   4.242   6.489   7.154 -0.2816  0.3816  0.1581
   68SAPC   H4Y 5781   4.101   6.581   7.124  0.3318 -1.2803 -2.0778
   68SAPC   C35 5782   4.246   6.683   7.256  0.1159  0.6727 -0.7561
   68SAPC   H5X 5783   4.172   6.765   7.269  0.8799  0.9132  2.2671
   68SAPC   H5Y 5784   4.344   6.732   7.245  0.2459  0.6204  0.1459
   68SAPC   C36 5785   4.265   6.597   7.381  0.6870  0.6283 -0.0939
   68SAPC   H6X 5786   4.348   6.531   7.348 -2.7327 -2.8897 -1.9838
   68SAPC   H6Y 5787   4.177   6.538   7.414  1.1923  0.4303  0.9342
   68SAPC   C37 5788   4.314   6.697   7.490 -0.0033  0.1372 -0.0815
   68SAPC   H7X 5789   4.223   6.749   7.526 -0.9062 -0.6147 -1.2191
   68SAPC   H7Y 5790   4.379   6.772   7.441 -1.3116 -0.7465 -3.2931
   68SAPC   C38 5791   4.383   6.645   7.611 -0.0600  0.1341  0.2412
   68SAPC   H8X 5792   4.471   6.580   7.590 -0.8720 -0.9227  0.1051
   68SAPC   H8Y 5793   4.313   6.572   7.657 -0.6062  0.5597  0.0790
   68SAPC   C39 5794   4.409   6.755   7.708  0.1553  0.2246  0.0805
   68SAPC   H9X 5795   4.324   6.826   7.702 -0.3918 -0.0950  3.3733
   68SAPC   H9Y 5796   4.495   6.816   7.676 -0.1219  0.2858 -0.5512
   68SAPC  C310 5797   4.434   6.699   7.844 -0.1351  0.3615 -0.5111
   68SAPC  H10X 5798   4.502   6.611   7.841 -0.4113  0.1717 -1.4941
   68SAPC  H10Y 5799   4.342   6.656   7.889  0.1883 -0.4198 -0.5917
   68SAPC  C311 5800   4.505   6.800   7.942  0.2925 -0.3642  0.6670
   68SAPC  H11X 5801   4.449   6.895   7.954 -0.4027 -0.6689 -0.1345
   68SAPC  H11Y 5802   4.604   6.818   7.897  0.7007  2.9644  2.7492
   68SAPC  C312 5803   4.523   6.743   8.089  0.0580 -0.0149 -0.1003
   68SAPC  H12X 5804   4.582   6.650   8.078 -0.0858 -0.0343 -0.7349
   68SAPC  H12Y 5805   4.423   6.726   8.135 -0.6340 -3.4694 -2.6584
   68SAPC  C313 5806   4.585   6.843   8.187 -0.8657 -0.7351  0.2724
   68SAPC  H13X 5807   4.520   6.934   8.189 -0.5950 -0.5597  2.5305
   68SAPC  H13Y 5808   4.686   6.869   8.150 -0.9751  2.3779  1.9387
   68SAPC  C314 5809   4.581   6.777   8.322 -0.3977 -0.3109 -0.1465
   68SAPC  H14X 5810   4.608   6.670   8.312 -0.5996 -0.2852 -0.9561
   68SAPC  H14Y 5811   4.477   6.781   8.360 -1.1836 -2.7196 -1.9242
   68SAPC  C315 5812   4.675   6.842   8.417 -0.4208  0.3135 -0.2941
   68SAPC  H15X 5813   4.644   6.947   8.439 -1.9397 -0.4138  1.1424
   68SAPC  H15Y 5814   4.775   6.837   8.368  0.6656  1.1897  1.7837
   68SAPC  C316 5815   4.688   6.752   8.540  0.3892  0.2060 -0.5288
   68SAPC  H16X 5816   4.767   6.809   8.594  0.2324  0.7972 -0.9241
   68SAPC  H16Y 5817   4.729   6.652   8.512  2.1662  0.3261  1.5351
   68SAPC  C317 5818   4.562   6.715   8.622 -0.0317 -0.8749  0.5631
   68SAPC  H17X 5819   4.491   6.654   8.562 -0.9226 -0.6251  1.3400
   68SAPC  H17Y 5820   4.512   6.812   8.643 -0.0908 -0.5255 -1.1379
   68SAPC  C318 5821   4.580   6.648   8.763  0.3322  0.4624  0.3382
   68SAPC  H18X 5822   4.652   6.705   8.825 -1.4781  1.0030  1.9882
   68SAPC  H18Y 5823   4.626   6.548   8.743 -0.3130  0.5428 -1.6864
   68SAPC  H18Z 5824   4.482   6.642   8.814 -0.0159 -1.1451 -0.4746
   69SLPC     N 5825   2.982   4.751  11.295 -0.4675 -0.6078 -0.5709
   69SLPC   C13 5826   3.063   4.630  11.254  0.2778 -0.5774 -0.5287
   69SLPC  H13A 5827   3.107   4.584  11.342  0.4716  1.4056  0.4425
   69SLPC  H13B 5828   2.994   4.560  11.209 -2.0091  2.6269 -2.1657
   69SLPC  H13C 5829   3.137   4.661  11.181  1.7886  0.1990  1.2867
   69SLPC   C14 5830   3.067   4.845  11.378  0.3499 -0.2808  0.5080
   69SLPC  H14A 5831   3.157   4.869  11.324 -1.8403  0.3136 -3.0606
   69SLPC  H14B 5832   3.013   4.934  11.407  3.3549  1.2197  1.6533
   69SLPC  H14C 5833   3.104   4.803  11.471 -0.1631 -2.0371 -0.0529
   69SLPC   C15 5834   2.866   4.715  11.381 -0.2124  0.4626 -0.2814
   69SLPC  H15A 5835   2.888   4.654  11.468  1.6693 -1.8550 -2.3242
   69SLPC  H15B 5836   2.817   4.802  11.423 -0.9004 -0.7264  1.4332
   69SLPC  H15C 5837   2.788   4.672  11.320 -1.0983  0.5759  0.7609
   69SLPC   C12 5838   2.930   4.830  11.172  0.5650 -0.1419 -0.6581
   69SLPC  H12A 5839   3.012   4.880  11.122  1.1338 -0.4505 -0.0520
   69SLPC  H12B 5840   2.859   4.903  11.207  1.2584  0.0984  0.2787
   69SLPC   C11 5841   2.854   4.748  11.063 -0.7668  0.4769  0.6524
   69SLPC  H11A 5842   2.927   4.676  11.021  0.1098  1.5650  0.2640
   69SLPC  H11B 5843   2.835   4.823  10.983  0.6611  1.9685  1.6748
   69SLPC     P 5844   2.609   4.681  11.053 -0.2634  0.3322  0.3733
   69SLPC   O13 5845   2.514   4.579  11.091 -0.2569 -0.0290 -0.1123
   69SLPC   O14 5846   2.565   4.824  11.073 -0.1844  0.0972 -0.2790
   69SLPC   O12 5847   2.746   4.670  11.114  0.0119  0.3431  0.1885
   69SLPC   O11 5848   2.646   4.658  10.904  0.3060 -0.3429  0.0727
   69SLPC    C1 5849   2.677   4.531  10.851 -0.6167  0.4676 -1.1704
   69SLPC    HA 5850   2.763   4.480  10.900  0.5764  3.6700  0.2309
   69SLPC    HB 5851   2.585   4.469  10.849 -2.2733  2.7985  0.0502
   69SLPC    C2 5852   2.709   4.553  10.703 -0.3581 -0.0492 -0.0506
   69SLPC    HS 5853   2.738   4.457  10.656 -0.2180  0.0013 -0.0663
   69SLPC   O21 5854   2.818   4.643  10.703 -0.1918 -0.3513  0.2677
   69SLPC   C21 5855   2.932   4.588  10.701 -0.6755 -0.0126  0.1376
   69SLPC   O22 5856   2.952   4.468  10.729  0.2354  0.0364 -0.0526
   69SLPC   C22 5857   3.049   4.685  10.675 -0.1019 -0.0787 -0.9374
   69SLPC   H2R 5858   3.046   4.778  10.735  1.9953 -0.3352 -0.3667
   69SLPC   H2S 5859   3.135   4.634  10.724 -0.1746  0.4616 -0.2347
   69SLPC    C3 5860   2.599   4.613  10.622  0.4901  0.4822  0.4318
   69SLPC    HX 5861   2.570   4.708  10.673 -0.3976  0.1112  0.6188
   69SLPC    HY 5862   2.520   4.538  10.603  0.3758  0.3260  1.4820
   69SLPC   O31 5863   2.653   4.656  10.491  0.2004 -0.1021  0.1155
   69SLPC   C31 5864   2.664   4.559  10.401  0.2075 -0.1099  0.8373
   69SLPC   O32 5865   2.652   4.439  10.424 -0.0361 -0.2813  0.3266
   69SLPC   C32 5866   2.704   4.628  10.270  0.1671  0.8003 -0.1610
   69SLPC   H2X 5867   2.789   4.692  10.301  0.3366  0.2068  0.6304
   69SLPC   H2Y 5868   2.617   4.682  10.228  1.0690  2.1863 -0.2795
   69SLPC   C23 5869   3.077   4.699  10.524  0.4220  1.2405 -0.3392
   69SLPC   H3R 5870   3.069   4.598  10.479 -0.4114  0.8365  0.6897
   69SLPC   H3S 5871   3.181   4.739  10.520  1.0960 -0.2987  1.2164
   69SLPC   C24 5872   2.985   4.805  10.459 -0.8859  0.3203 -0.0556
   69SLPC   H4R 5873   2.986   4.904  10.510 -0.6214  1.1279 -1.6066
   69SLPC   H4S 5874   2.880   4.770  10.468 -0.8568 -0.2173 -1.6131
   69SLPC   C25 5875   3.034   4.839  10.318  0.6740 -0.0944 -0.2079
   69SLPC   H5R 5876   3.015   4.749  10.256  0.8650 -0.4192  0.2072
   69SLPC   H5S 5877   3.144   4.857  10.321  0.5120  1.0780 -0.7752
   69SLPC   C26 5878   2.963   4.959  10.252  0.5239  1.0753  0.7091
   69SLPC   H6R 5879   2.999   5.057  10.292  0.8154  0.2814  2.4152
   69SLPC   H6S 5880   2.854   4.945  10.264  0.9222 -2.2409  0.8772
   69SLPC   C27 5881   2.986   4.969  10.097 -0.0666 -0.7234  0.0132
   69SLPC   H7R 5882   3.096   4.955  10.094  0.0017 -0.2676  0.4570
   69SLPC   H7S 5883   2.965   5.074  10.067 -0.6596 -1.0900 -0.8797
   69SLPC   C28 5884   2.910   4.880  10.003 -0.3028 -0.1738  0.2211
   69SLPC   H8R 5885   2.926   4.773  10.031 -2.7702 -0.4332  0.7070
   69SLPC   H8S 5886   2.954   4.889   9.901  0.7195 -1.5124  0.5260
   69SLPC   C29 5887   2.762   4.897  10.008  0.2670  0.8294  0.3468
   69SLPC   H9R 5888   2.712   4.916  10.104  1.8336 -2.5845  1.9309
   69SLPC  C210 5889   2.691   4.903   9.893 -0.3579 -1.3646 -0.1196
   69SLPC  H10R 5890   2.582   4.910   9.904 -0.1540  0.6431  0.8683
   69SLPC  C211 5891   2.741   4.889   9.752 -0.4671 -0.3280  0.4235
   69SLPC  H11R 5892   2.805   4.799   9.747  0.0752  0.0787 -0.0194
   69SLPC  H11S 5893   2.805   4.977   9.728 -2.8771  0.9858 -1.4687
   69SLPC  C212 5894   2.625   4.894   9.659  0.1807 -0.0093 -0.3819
   69SLPC  H12R 5895   2.529   4.923   9.704  0.8385 -1.4135  2.0301
   69SLPC  C213 5896   2.620   4.885   9.527  0.4410  0.5505  0.1766
   69SLPC  H13R 5897   2.528   4.919   9.478  1.8346  2.9097 -0.9284
   69SLPC  C214 5898   2.735   4.854   9.439  0.3756  0.0293  0.4722
   69SLPC  H14R 5899   2.824   4.822   9.497  1.7599  2.0148 -0.5093
   69SLPC  H14S 5900   2.774   4.949   9.396 -1.1677  1.1757  1.5333
   69SLPC  C215 5901   2.704   4.756   9.323  0.0658  0.3724  0.1199
   69SLPC  H15R 5902   2.660   4.662   9.363 -0.7962  0.1848 -1.2027
   69SLPC  H15S 5903   2.798   4.726   9.272 -0.9848  0.9557 -2.2621
   69SLPC  C216 5904   2.632   4.814   9.200  0.3361 -0.1032  0.6218
   69SLPC  H16R 5905   2.673   4.909   9.159  0.1662 -1.5769 -3.1399
   69SLPC  H16S 5906   2.531   4.846   9.232  1.1340 -0.6745  3.8562
   69SLPC  C217 5907   2.626   4.717   9.082  0.0956 -0.1994 -0.3050
   69SLPC  H17R 5908   2.731   4.696   9.050  0.2157  0.6912 -0.4955
   69SLPC  H17S 5909   2.558   4.757   9.004  0.1282  0.2562 -0.0975
   69SLPC  C218 5910   2.559   4.574   9.103  0.1172  0.8598 -0.5808
   69SLPC  H18R 5911   2.547   4.533   9.000 -0.0226  0.9160 -0.5875
   69SLPC  H18S 5912   2.463   4.596   9.155 -0.1989 -0.4533 -0.5899
   69SLPC  H18T 5913   2.605   4.512   9.182 -0.0867  0.7948 -0.5110
   69SLPC   C33 5914   2.740   4.526  10.159  0.9962 -0.1116 -0.5407
   69SLPC   H3X 5915   2.828   4.463  10.184  1.0595 -0.9783 -2.7958
   69SLPC   H3Y 5916   2.765   4.582  10.066 -0.4334  0.6589 -0.4781
   69SLPC   C34 5917   2.622   4.438  10.121  0.1835 -0.1074 -0.2821
   69SLPC   H4X 5918   2.529   4.497  10.132  2.0176  2.7359  0.4512
   69SLPC   H4Y 5919   2.626   4.352  10.191 -0.7138  0.6342  0.6949
   69SLPC   C35 5920   2.633   4.386   9.978 -0.3440 -0.8417  0.3261
   69SLPC   H5X 5921   2.732   4.342   9.954 -0.2291 -1.1344  1.3078
   69SLPC   H5Y 5922   2.628   4.475   9.913  0.4724 -3.4507 -3.4634
   69SLPC   C36 5923   2.521   4.285   9.945 -0.7671 -0.5061 -0.3820
   69SLPC   H6X 5924   2.421   4.333   9.937 -0.7036 -0.2398  0.3617
   69SLPC   H6Y 5925   2.502   4.219  10.032 -2.5046  1.3166  0.6531
   69SLPC   C37 5926   2.543   4.206   9.812 -0.3791  0.1679 -0.0724
   69SLPC   H7X 5927   2.452   4.142   9.812  0.0815 -0.5130 -1.3376
   69SLPC   H7Y 5928   2.629   4.137   9.813 -0.7535 -0.3069 -0.2025
   69SLPC   C38 5929   2.559   4.287   9.687 -0.6243  0.3027  0.2417
   69SLPC   H8X 5930   2.612   4.225   9.612 -1.7613 -0.6056  0.1761
   69SLPC   H8Y 5931   2.609   4.385   9.703 -1.4040  0.6836  0.3840
   69SLPC   C39 5932   2.426   4.318   9.626  0.3053  0.7195 -0.1583
   69SLPC   H9X 5933   2.398   4.411   9.679  0.3408  1.9834 -2.2696
   69SLPC   H9Y 5934   2.355   4.247   9.672 -0.2547  1.4138  0.0605
   69SLPC  C310 5935   2.412   4.340   9.470  0.0010  0.0643 -0.4905
   69SLPC  H10X 5936   2.466   4.432   9.440  1.1589  0.0316  1.4001
   69SLPC  H10Y 5937   2.304   4.345   9.442 -0.3186 -1.6428  0.3639
   69SLPC  C311 5938   2.450   4.224   9.381 -0.4378 -0.0285 -0.0172
   69SLPC  H11X 5939   2.397   4.135   9.421 -1.1748 -0.3953 -1.7376
   69SLPC  H11Y 5940   2.559   4.207   9.393 -0.1395  1.2907 -0.8155
   69SLPC  C312 5941   2.416   4.230   9.227 -0.2627 -0.6802 -0.7491
   69SLPC  H12X 5942   2.458   4.320   9.179  2.1715 -2.2934 -1.7107
   69SLPC  H12Y 5943   2.308   4.226   9.200 -0.3950 -1.4481 -0.1341
   69SLPC  C313 5944   2.489   4.115   9.151  0.2198  0.1766 -0.8112
   69SLPC  H13X 5945   2.453   4.018   9.192  2.0374 -1.0683 -2.0799
   69SLPC  H13Y 5946   2.598   4.117   9.174 -0.2226 -0.1659  1.4442
   69SLPC  C314 5947   2.463   4.132   9.000 -0.4454 -0.1779 -0.6492
   69SLPC  H14X 5948   2.522   4.220   8.968  0.8856 -0.9710 -0.3967
   69SLPC  H14Y 5949   2.354   4.154   8.992 -0.2366  1.5057  0.7107
   69SLPC  C315 5950   2.502   4.001   8.934 -0.0650 -0.2583 -0.4937
   69SLPC  H15X 5951   2.474   3.912   8.994  1.6858  1.1734  2.5253
   69SLPC  H15Y 5952   2.612   3.998   8.918  0.4377 -1.3380  2.8802
   69SLPC  C316 5953   2.442   3.987   8.797 -0.7015  0.7955 -0.1310
   69SLPC  H16X 5954   2.476   4.058   8.719  2.9406 -1.8915 -1.1287
   69SLPC  H16Y 5955   2.331   3.993   8.796 -0.7031  1.4054  1.5490
   69SLPC  C317 5956   2.473   3.844   8.745 -0.6560 -0.2272  0.7674
   69SLPC  H17X 5957   2.423   3.765   8.804  1.4594 -2.1400  0.0880
   69SLPC  H17Y 5958   2.578   3.811   8.730 -1.0245 -1.4553  0.8121
   69SLPC  C318 5959   2.400   3.821   8.602  0.8126 -0.1139 -0.0145
   69SLPC  H18X 5960   2.420   3.712   8.592  0.0801 -0.2673  0.1747
   69SLPC  H18Y 5961   2.456   3.887   8.533 -0.3170  1.3436  0.4566
   69SLPC  H18Z 5962   2.293   3.848   8.604  0.6572 -0.8206  1.8784
   70SLPC     N 5963   2.962   1.886  10.830  1.2813  0.3633 -0.3478
   70SLPC   C13 5964   2.855   1.884  10.734  0.2827  0.0087 -0.8933
   70SLPC  H13A 5965   2.791   1.798  10.747 -0.0725  0.3252 -0.5209
   70SLPC  H13B 5966   2.797   1.974  10.747 -1.9926 -1.6839  1.2530
   70SLPC  H13C 5967   2.897   1.878  10.635 -1.1672 -1.4269 -1.4482
   70SLPC   C14 5968   3.096   1.859  10.757  0.3827  0.1791 -0.4575
   70SLPC  H14A 5969   3.105   1.924  10.671  1.6534  0.2534 -0.2800
   70SLPC  H14B 5970   3.176   1.882  10.826 -2.6440  2.2376  2.5079
   70SLPC  H14C 5971   3.100   1.757  10.722 -0.1275 -0.2059  0.6022
   70SLPC   C15 5972   2.942   1.792  10.944  0.1167 -0.3175 -0.0446
   70SLPC  H15A 5973   2.844   1.805  10.987  1.1717  2.8377  1.5360
   70SLPC  H15B 5974   2.953   1.688  10.916 -1.1252 -0.5588  0.3499
   70SLPC  H15C 5975   3.016   1.814  11.019  0.5731  0.5432 -0.7369
   70SLPC   C12 5976   2.961   2.029  10.891  0.3054 -0.3404  0.0294
   70SLPC  H12A 5977   3.052   2.040  10.950 -0.4479  0.4616  1.0711
   70SLPC  H12B 5978   2.874   2.036  10.954  1.0897  0.1662  1.0918
   70SLPC   C11 5979   2.972   2.151  10.801  0.1667 -0.3635  0.3103
   70SLPC  H11A 5980   2.968   2.246  10.859 -1.0768  0.3529 -0.8999
   70SLPC  H11B 5981   2.882   2.140  10.736  0.3016  0.1733  0.0266
   70SLPC     P 5982   3.219   2.236  10.794 -0.2175 -0.2139  0.1396
   70SLPC   O13 5983   3.219   2.224  10.939 -0.0617  0.1308  1.0081
   70SLPC   O14 5984   3.339   2.205  10.720 -0.3446 -0.0729  0.1446
   70SLPC   O12 5985   3.097   2.161  10.730  0.0066 -0.0207  0.5928
   70SLPC   O11 5986   3.166   2.385  10.765 -0.0620 -0.2974  0.0417
   70SLPC    C1 5987   3.196   2.448  10.636  0.1766 -1.4286 -0.5158
   70SLPC    HA 5988   3.180   2.557  10.649 -0.8937 -1.7534  1.0435
   70SLPC    HB 5989   3.304   2.432  10.612  0.4144 -1.4377  0.5048
   70SLPC    C2 5990   3.123   2.389  10.517 -0.2541  0.3540 -0.2408
   70SLPC    HS 5991   3.104   2.281  10.536 -0.5770  0.6542  1.1987
   70SLPC   O21 5992   3.202   2.424  10.401  0.4127 -0.2984 -0.2187
   70SLPC   C21 5993   3.216   2.325  10.319  0.3859 -0.0130 -0.1440
   70SLPC   O22 5994   3.181   2.207  10.340 -0.0984  0.3223  0.3836
   70SLPC   C22 5995   3.300   2.385  10.201  0.3804 -0.0935 -0.0093
   70SLPC   H2R 5996   3.232   2.442  10.134 -1.0082 -2.1993 -0.4498
   70SLPC   H2S 5997   3.379   2.449  10.245  0.2097  0.0440  0.0995
   70SLPC    C3 5998   2.979   2.457  10.508  0.4449 -1.0512  0.4428
   70SLPC    HX 5999   3.006   2.550  10.455  0.2278 -1.6160 -0.6760
   70SLPC    HY 6000   2.958   2.478  10.615  1.3448 -1.6230  0.7397
   70SLPC   O31 6001   2.878   2.374  10.432 -0.2060  0.0298 -0.3323
   70SLPC   C31 6002   2.774   2.458  10.406  0.1353 -0.2749  0.2516
   70SLPC   O32 6003   2.771   2.578  10.432 -0.1348 -0.0815  0.3930
   70SLPC   C32 6004   2.656   2.379  10.346 -0.3497 -0.7924 -0.1280
   70SLPC   H2X 6005   2.577   2.359  10.421  1.6877 -1.1935  1.9698
   70SLPC   H2Y 6006   2.700   2.282  10.316  0.4760 -0.2103 -0.8508
   70SLPC   C23 6007   3.366   2.275  10.107  0.2414 -0.0272  0.2111
   70SLPC   H3R 6008   3.287   2.215  10.057  1.0663 -1.0482  0.1110
   70SLPC   H3S 6009   3.446   2.217  10.158 -0.0363 -0.1565  0.5016
   70SLPC   C24 6010   3.441   2.348   9.992 -0.0494  0.0270  0.4803
   70SLPC   H4R 6011   3.518   2.417  10.034  1.0942 -0.2118 -1.1486
   70SLPC   H4S 6012   3.374   2.411   9.929  1.5812  1.9928  0.6535
   70SLPC   C25 6013   3.519   2.251   9.909  0.2745  0.0745  0.2080
   70SLPC   H5R 6014   3.587   2.180   9.961 -1.2607 -1.6541 -0.0480
   70SLPC   H5S 6015   3.590   2.310   9.848  0.2094  1.3098  1.3143
   70SLPC   C26 6016   3.444   2.174   9.797  0.8115 -0.4739  0.0079
   70SLPC   H6R 6017   3.378   2.246   9.745  0.5502 -0.3322  0.5299
   70SLPC   H6S 6018   3.386   2.093   9.847  0.2278  1.1962  2.1230
   70SLPC   C27 6019   3.534   2.099   9.693  0.3798 -0.0977  0.5026
   70SLPC   H7R 6020   3.596   2.039   9.763  2.8907 -1.3576 -2.6927
   70SLPC   H7S 6021   3.599   2.164   9.632 -2.0988  0.2009 -1.9232
   70SLPC   C28 6022   3.461   2.019   9.589  0.9127  0.3586 -0.6310
   70SLPC   H8R 6023   3.380   1.956   9.634 -0.4012  1.6942 -1.0723
   70SLPC   H8S 6024   3.521   1.940   9.539 -0.9268 -1.0265 -0.7450
   70SLPC   C29 6025   3.393   2.104   9.484 -0.3045  0.7438 -0.0789
   70SLPC   H9R 6026   3.313   2.167   9.525  0.0258  1.0515  0.0897
   70SLPC  C210 6027   3.421   2.113   9.358 -0.3991 -1.0946 -0.3008
   70SLPC  H10R 6028   3.373   2.193   9.299  2.6867  0.0888 -1.3179
   70SLPC  C211 6029   3.524   2.041   9.268 -0.4135  0.0387  0.0886
   70SLPC  H11R 6030   3.495   2.052   9.161 -1.1197 -2.5933 -0.0184
   70SLPC  H11S 6031   3.535   1.934   9.295  0.6130  0.5329  1.7347
   70SLPC  C212 6032   3.660   2.105   9.282 -0.2963  0.7076  0.0414
   70SLPC  H12R 6033   3.693   2.124   9.386 -2.9917 -0.2909  1.1254
   70SLPC  C213 6034   3.736   2.146   9.182 -0.0796  0.7862  0.1853
   70SLPC  H13R 6035   3.835   2.181   9.213  1.1813 -0.8781 -1.8589
   70SLPC  C214 6036   3.710   2.148   9.028  0.1935  0.4447 -0.3666
   70SLPC  H14R 6037   3.788   2.202   8.971  2.8578 -1.2667  1.5530
   70SLPC  H14S 6038   3.614   2.200   9.005 -1.5339 -1.1524  2.8558
   70SLPC  C215 6039   3.702   2.005   8.964  0.8643 -0.4976  0.2352
   70SLPC  H15R 6040   3.627   1.947   9.022  1.1762 -0.3683  0.7775
   70SLPC  H15S 6041   3.806   1.970   8.982  0.6424 -0.6236  1.3135
   70SLPC  C216 6042   3.661   2.008   8.820 -0.3958 -0.2963 -0.9565
   70SLPC  H16R 6043   3.728   2.087   8.779  0.7475  2.3216  5.4618
   70SLPC  H16S 6044   3.557   2.043   8.807  0.3995  1.9612 -1.5401
   70SLPC  C217 6045   3.671   1.881   8.740  0.2805  0.9920 -0.4184
   70SLPC  H17R 6046   3.590   1.817   8.779  0.7437  2.5172  3.2194
   70SLPC  H17S 6047   3.773   1.841   8.761  0.1335  1.1359  0.5938
   70SLPC  C218 6048   3.654   1.896   8.590  0.1470 -0.2022  0.4888
   70SLPC  H18R 6049   3.654   1.800   8.535 -3.0626 -1.7999  3.1569
   70SLPC  H18S 6050   3.734   1.965   8.554  0.1179  0.2380  1.2468
   70SLPC  H18T 6051   3.563   1.956   8.568  0.3310  0.5112  1.6055
   70SLPC   C33 6052   2.590   2.458  10.232  0.6127 -0.1768  0.7417
   70SLPC   H3X 6053   2.584   2.566  10.260  0.2830  0.3020 -1.0845
   70SLPC   H3Y 6054   2.484   2.424  10.226  0.3346  0.9171 -1.1241
   70SLPC   C34 6055   2.662   2.428  10.093  0.7807  0.9214  0.5929
   70SLPC   H4X 6056   2.664   2.320  10.070  0.2235  0.8461  0.9093
   70SLPC   H4Y 6057   2.764   2.471  10.104  1.2837 -0.5042  1.5627
   70SLPC   C35 6058   2.585   2.498   9.972 -0.0623 -0.3346 -0.7149
   70SLPC   H5X 6059   2.579   2.607   9.989 -0.2755 -0.2636 -1.2628
   70SLPC   H5Y 6060   2.481   2.460   9.979  0.7926 -2.3383  2.2845
   70SLPC   C36 6061   2.654   2.467   9.837 -0.0106 -0.4063 -0.9143
   70SLPC   H6X 6062   2.676   2.359   9.828  1.1436 -0.1956 -0.6494
   70SLPC   H6Y 6063   2.751   2.519   9.848 -0.7933  0.5310  2.2732
   70SLPC   C37 6064   2.588   2.539   9.714  0.4575 -0.5481 -0.7466
   70SLPC   H7X 6065   2.602   2.649   9.717  0.0548 -0.5299  2.9127
   70SLPC   H7Y 6066   2.480   2.512   9.720 -0.0409  1.6482  0.5870
   70SLPC   C38 6067   2.655   2.500   9.581  0.0789 -0.4579  0.4160
   70SLPC   H8X 6068   2.626   2.393   9.571 -0.7114 -0.6345  4.0033
   70SLPC   H8Y 6069   2.764   2.486   9.597  0.6301 -0.9561 -3.2163
   70SLPC   C39 6070   2.637   2.596   9.467 -0.0721 -0.4191 -0.3796
   70SLPC   H9X 6071   2.700   2.686   9.477  0.6197 -0.9021 -0.3851
   70SLPC   H9Y 6072   2.534   2.637   9.457 -0.7155 -1.5093  1.4458
   70SLPC  C310 6073   2.679   2.546   9.330 -0.0699  0.2757 -0.5094
   70SLPC  H10X 6074   2.627   2.451   9.307  0.6954  0.1693 -1.8596
   70SLPC  H10Y 6075   2.789   2.528   9.331 -0.0471  0.4467  0.3928
   70SLPC  C311 6076   2.633   2.640   9.218  0.6140  0.2749  0.4282
   70SLPC  H11X 6077   2.661   2.746   9.236  1.4071  0.1451 -0.0036
   70SLPC  H11Y 6078   2.523   2.644   9.232  0.6257  2.5961  0.1141
   70SLPC  C312 6079   2.667   2.603   9.077  0.2867  0.5948  0.5208
   70SLPC  H12X 6080   2.776   2.621   9.080  0.6591 -1.3431 -1.0490
   70SLPC  H12Y 6081   2.624   2.665   8.995  0.8724 -1.3757 -1.2933
   70SLPC  C313 6082   2.612   2.469   9.025 -0.2878  0.3839 -0.1765
   70SLPC  H13X 6083   2.502   2.464   9.013 -0.2412 -1.7634  0.1703
   70SLPC  H13Y 6084   2.632   2.392   9.102 -1.4429 -0.0533 -0.2977
   70SLPC  C314 6085   2.688   2.433   8.902 -0.1784 -0.2888 -0.1767
   70SLPC  H14X 6086   2.798   2.429   8.916 -0.0308  0.6892 -0.9569
   70SLPC  H14Y 6087   2.664   2.503   8.819  2.0795 -0.5820 -1.1118
   70SLPC  C315 6088   2.642   2.296   8.845 -0.2633  0.2170 -0.3442
   70SLPC  H15X 6089   2.535   2.304   8.816  0.1757  3.2681 -1.3906
   70SLPC  H15Y 6090   2.665   2.213   8.915  0.8731  0.4971 -0.3714
   70SLPC  C316 6091   2.726   2.273   8.712 -0.4612  0.0754  0.0588
   70SLPC  H16X 6092   2.816   2.221   8.750  0.8347  2.5964  0.5485
   70SLPC  H16Y 6093   2.747   2.372   8.666 -1.1975 -1.3604 -3.5764
   70SLPC  C317 6094   2.647   2.193   8.607 -0.2447  0.4542 -0.1064
   70SLPC  H17X 6095   2.648   2.091   8.651 -1.4426  0.6426  0.3738
   70SLPC  H17Y 6096   2.719   2.189   8.522  0.9530  0.0459  0.8941
   70SLPC  C318 6097   2.511   2.238   8.561  0.7889 -0.3885 -0.1064
   70SLPC  H18X 6098   2.432   2.210   8.635  1.2601 -3.0204 -0.5230
   70SLPC  H18Y 6099   2.488   2.183   8.467 -0.2034  0.8592 -0.5959
   70SLPC  H18Z 6100   2.520   2.347   8.546  0.1861 -0.5424 -1.5953
   71SLPC     N 6101   2.795   0.434  10.805  0.8543  0.3480 -0.4615
   71SLPC   C13 6102   2.686   0.373  10.894  0.1158 -0.5071 -0.1995
   71SLPC  H13A 6103   2.598   0.435  10.881  1.1299  0.7005 -1.5340
   71SLPC  H13B 6104   2.665   0.273  10.860 -2.0764  0.4858 -1.9781
   71SLPC  H13C 6105   2.725   0.382  10.994  0.0006  1.0640 -0.2781
   71SLPC   C14 6106   2.914   0.345  10.786  0.4417  0.0867 -0.0252
   71SLPC  H14A 6107   2.974   0.393  10.710  1.3796 -0.3310  0.4391
   71SLPC  H14B 6108   2.979   0.333  10.871 -1.1607 -1.9536  0.9500
   71SLPC  H14C 6109   2.881   0.245  10.763  0.2359  0.1188  0.1331
   71SLPC   C15 6110   2.833   0.568  10.861 -0.0879 -0.4143 -0.3538
   71SLPC  H15A 6111   2.846   0.556  10.967 -3.1097  1.7248  0.2968
   71SLPC  H15B 6112   2.916   0.610  10.805  1.1315 -1.9106  0.2777
   71SLPC  H15C 6113   2.752   0.638  10.851  1.3622  1.2130 -1.0069
   71SLPC   C12 6114   2.733   0.458  10.667  0.0952 -0.5303  0.1276
   71SLPC  H12A 6115   2.670   0.372  10.648 -2.0697  1.0572 -0.0164
   71SLPC  H12B 6116   2.813   0.457  10.595  0.1300  0.5347  0.1438
   71SLPC   C11 6117   2.641   0.585  10.648  0.0838  0.4145 -0.2979
   71SLPC  H11A 6118   2.587   0.570  10.552  0.1116 -0.3571 -0.2015
   71SLPC  H11B 6119   2.708   0.673  10.654 -0.3181  0.7362 -0.4999
   71SLPC     P 6120   2.441   0.707  10.762 -0.1571 -0.2847 -0.1535
   71SLPC   O13 6121   2.323   0.635  10.809  0.1099  0.1960 -0.4930
   71SLPC   O14 6122   2.496   0.809  10.856  0.1213  0.4471  0.0524
   71SLPC   O12 6123   2.551   0.597  10.755  0.5033  0.1388 -0.5824
   71SLPC   O11 6124   2.419   0.755  10.620 -0.2301  0.3836  0.7321
   71SLPC    C1 6125   2.294   0.717  10.559  0.4593 -0.8223  0.2040
   71SLPC    HA 6126   2.290   0.612  10.523  1.7994 -0.9589  0.4156
   71SLPC    HB 6127   2.205   0.727  10.625  0.1572 -0.0059 -0.3177
   71SLPC    C2 6128   2.282   0.783  10.421  0.2166 -0.2307  0.4000
   71SLPC    HS 6129   2.298   0.892  10.439  0.8649  0.0300 -1.6363
   71SLPC   O21 6130   2.162   0.749  10.354  0.6343 -0.6810 -0.4773
   71SLPC   C21 6131   2.048   0.801  10.404 -0.4120 -0.0637  0.2136
   71SLPC   O22 6132   2.036   0.890  10.484  0.0115  0.8100 -0.2159
   71SLPC   C22 6133   1.935   0.732  10.335 -0.6132 -0.2476 -0.0969
   71SLPC   H2R 6134   1.893   0.642  10.385 -2.1182  1.4874  1.8316
   71SLPC   H2S 6135   1.853   0.805  10.351 -0.4500 -0.5060  1.9693
   71SLPC    C3 6136   2.400   0.736  10.339 -0.4341 -0.5121  0.2542
   71SLPC    HX 6137   2.402   0.626  10.355 -0.2150 -0.4696  0.5265
   71SLPC    HY 6138   2.493   0.768  10.390 -0.6988 -0.8242  0.9435
   71SLPC   O31 6139   2.383   0.780  10.200  0.3711  0.1915 -0.1960
   71SLPC   C31 6140   2.470   0.872  10.150 -0.5092  0.0641  0.3235
   71SLPC   O32 6141   2.578   0.894  10.204 -0.1119 -0.5261 -0.0026
   71SLPC   C32 6142   2.421   0.931  10.021 -0.0913  0.0336  0.2172
   71SLPC   H2X 6143   2.374   1.029  10.047  0.3124  0.4939 -0.7389
   71SLPC   H2Y 6144   2.360   0.855   9.969 -1.1208 -0.8047  2.5823
   71SLPC   C23 6145   1.948   0.714  10.176  0.4488 -0.4311  0.0921
   71SLPC   H3R 6146   1.851   0.666  10.149 -0.1541 -0.9248  3.0178
   71SLPC   H3S 6147   2.031   0.650  10.139  1.8127  1.1032  0.4755
   71SLPC   C24 6148   1.961   0.857  10.116 -0.3773  0.1370  0.3174
   71SLPC   H4R 6149   2.042   0.922  10.152  0.0029 -1.5830  2.6488
   71SLPC   H4S 6150   1.877   0.922  10.148  2.5223  5.0653 -1.5012
   71SLPC   C25 6151   1.985   0.855   9.958  0.0615  0.6586  1.0669
   71SLPC   H5R 6152   1.887   0.826   9.913  0.1882  0.7802  0.7114
   71SLPC   H5S 6153   2.057   0.774   9.933  1.3407  2.0702  0.1459
   71SLPC   C26 6154   2.025   0.994   9.908  0.6613 -0.1667 -0.4755
   71SLPC   H6R 6155   2.131   1.004   9.939  0.0994  1.8417  0.8472
   71SLPC   H6S 6156   1.952   1.068   9.947  1.1967 -0.3411  0.8796
   71SLPC   C27 6157   2.014   1.015   9.753  0.1967  0.7747  0.7496
   71SLPC   H7R 6158   2.015   1.125   9.736  2.2053  0.6751  0.1645
   71SLPC   H7S 6159   1.919   0.975   9.712  1.2434 -0.0077 -0.9857
   71SLPC   C28 6160   2.137   0.965   9.679  0.3039 -0.3641 -0.3671
   71SLPC   H8R 6161   2.223   0.951   9.748 -1.0551  1.4263  1.7789
   71SLPC   H8S 6162   2.169   1.043   9.606 -3.6227  0.7311 -1.0169
   71SLPC   C29 6163   2.093   0.839   9.611  0.5914 -0.1682  0.0753
   71SLPC   H9R 6164   2.092   0.753   9.680  0.9732 -0.7509 -0.6366
   71SLPC  C210 6165   2.066   0.822   9.478 -0.0334 -0.1540 -0.4084
   71SLPC  H10R 6166   2.048   0.720   9.441  3.9863 -0.5688 -1.5167
   71SLPC  C211 6167   2.074   0.928   9.375  0.4769 -0.2702 -0.2963
   71SLPC  H11R 6168   2.070   1.031   9.416 -0.2749 -0.8177  1.0209
   71SLPC  H11S 6169   1.979   0.913   9.320 -0.9387  1.0888  1.6848
   71SLPC  C212 6170   2.191   0.914   9.278 -0.2212 -0.1569 -0.2568
   71SLPC  H12R 6171   2.290   0.907   9.326  0.5490  2.2659 -1.4177
   71SLPC  C213 6172   2.181   0.901   9.140  0.1188  0.3023  0.9289
   71SLPC  H13R 6173   2.272   0.898   9.080  0.3442  1.1403  1.2312
   71SLPC  C214 6174   2.056   0.879   9.058 -0.5746  0.1767 -0.5002
   71SLPC  H14R 6175   2.041   0.965   8.990 -1.0183 -0.2181 -0.9072
   71SLPC  H14S 6176   1.962   0.862   9.116  1.0482  2.9840  3.1988
   71SLPC  C215 6177   2.068   0.755   8.964 -0.6548 -0.8452  0.5947
   71SLPC  H15R 6178   2.097   0.663   9.019 -0.8665  0.4274  2.9042
   71SLPC  H15S 6179   2.144   0.784   8.889 -1.6860  0.8015  0.1490
   71SLPC  C216 6180   1.945   0.743   8.886  0.3856 -0.3768  0.7166
   71SLPC  H16R 6181   1.916   0.842   8.845  2.0998  0.0627  0.5126
   71SLPC  H16S 6182   1.865   0.711   8.956 -1.3212 -2.0743 -1.8704
   71SLPC  C217 6183   1.963   0.634   8.782 -0.4374  0.0793 -0.2024
   71SLPC  H17R 6184   1.984   0.539   8.836 -3.3012 -1.3181 -1.4822
   71SLPC  H17S 6185   2.055   0.656   8.723  0.0831 -2.0780 -0.2488
   71SLPC  C218 6186   1.842   0.613   8.681 -0.3737  0.3500 -0.3131
   71SLPC  H18R 6187   1.823   0.712   8.637  3.1103  0.8125 -0.8963
   71SLPC  H18S 6188   1.749   0.582   8.735  0.1046  0.5411  0.6337
   71SLPC  H18T 6189   1.874   0.537   8.606 -1.1473 -1.4593  1.1309
   71SLPC   C33 6190   2.533   0.976   9.927 -0.4166  0.0818  0.4049
   71SLPC   H3X 6191   2.618   1.012   9.989 -0.0611  0.0707 -0.0685
   71SLPC   H3Y 6192   2.500   1.066   9.871 -4.1952 -2.9879 -2.5363
   71SLPC   C34 6193   2.571   0.858   9.832 -0.5716 -0.5942  0.3017
   71SLPC   H4X 6194   2.482   0.814   9.783 -0.4556 -0.3016 -0.1748
   71SLPC   H4Y 6195   2.599   0.781   9.907 -0.7532 -1.3594 -0.4051
   71SLPC   C35 6196   2.682   0.892   9.737 -0.6443 -0.0608  0.0593
   71SLPC   H5X 6197   2.766   0.941   9.791  0.0155 -1.0836 -0.0257
   71SLPC   H5Y 6198   2.638   0.960   9.660  1.3845 -0.8469 -1.8482
   71SLPC   C36 6199   2.730   0.762   9.669 -0.2823 -0.7038  0.3673
   71SLPC   H6X 6200   2.635   0.724   9.626 -0.3364 -2.1910  1.7464
   71SLPC   H6Y 6201   2.755   0.687   9.747  2.3043 -0.8458 -0.5650
   71SLPC   C37 6202   2.832   0.768   9.558  0.4999 -1.1504  0.5591
   71SLPC   H7X 6203   2.925   0.815   9.598  1.1028 -0.6839 -1.3541
   71SLPC   H7Y 6204   2.786   0.837   9.484  0.8625 -1.2151  0.2737
   71SLPC   C38 6205   2.861   0.634   9.495  0.3288 -0.7453 -0.3484
   71SLPC   H8X 6206   2.764   0.600   9.452 -0.9994  1.2533  1.0040
   71SLPC   H8Y 6207   2.899   0.563   9.571  2.1407  1.7346  1.1612
   71SLPC   C39 6208   2.977   0.657   9.396 -0.4129 -0.2916  0.1513
   71SLPC   H9X 6209   3.022   0.556   9.379  0.5115  0.0651  0.4496
   71SLPC   H9Y 6210   3.066   0.715   9.429  0.6741 -0.1664 -2.8032
   71SLPC  C310 6211   2.910   0.711   9.268  0.0356  0.1748 -0.3643
   71SLPC  H10X 6212   2.902   0.822   9.274 -1.1090 -0.0249  4.0044
   71SLPC  H10Y 6213   2.811   0.666   9.245 -0.3613  0.1825  1.2476
   71SLPC  C311 6214   3.001   0.675   9.155 -0.1914 -0.1822 -0.4937
   71SLPC  H11X 6215   3.035   0.569   9.156 -2.7809 -1.1019 -2.3259
   71SLPC  H11Y 6216   3.087   0.739   9.183 -3.0991  3.0991  1.3374
   71SLPC  C312 6217   2.940   0.716   9.020 -0.7026 -0.2812 -0.4814
   71SLPC  H12X 6218   2.902   0.820   9.017  0.8351  0.2715 -2.7051
   71SLPC  H12Y 6219   2.854   0.651   8.993 -0.4422 -0.3958 -1.0625
   71SLPC  C313 6220   3.039   0.715   8.906  0.5053  0.1468 -0.1154
   71SLPC  H13X 6221   3.072   0.609   8.910 -0.9345 -0.3830 -2.1000
   71SLPC  H13Y 6222   3.124   0.783   8.929  1.4745 -0.8614 -0.6229
   71SLPC  C314 6223   2.981   0.760   8.772  0.3390 -0.2611  0.1015
   71SLPC  H14X 6224   2.890   0.820   8.796 -0.7608 -1.6621 -0.5037
   71SLPC  H14Y 6225   2.926   0.678   8.722 -0.8058  0.5659 -0.0185
   71SLPC  C315 6226   3.085   0.836   8.682 -0.3646  0.4095  0.2136
   71SLPC  H15X 6227   3.138   0.915   8.739  0.2816  1.4995 -1.8575
   71SLPC  H15Y 6228   3.035   0.888   8.598 -0.7525 -3.0003 -1.7804
   71SLPC  C316 6229   3.189   0.746   8.625 -0.4430  0.5316  0.0703
   71SLPC  H16X 6230   3.147   0.646   8.602 -0.3063  0.2590  0.9689
   71SLPC  H16Y 6231   3.260   0.738   8.711 -0.6489 -0.5093  0.1525
   71SLPC  C317 6232   3.277   0.799   8.507  0.0039 -0.3341  0.8934
   71SLPC  H17X 6233   3.222   0.802   8.411  0.3008 -3.1738  0.6137
   71SLPC  H17Y 6234   3.348   0.714   8.496  2.0944  1.0670  2.8839
   71SLPC  C318 6235   3.354   0.925   8.541  0.1712  0.7992 -0.2146
   71SLPC  H18X 6236   3.311   0.985   8.623  0.1844 -1.2526  1.3351
   71SLPC  H18Y 6237   3.377   0.989   8.453 -1.4087  0.9699 -0.5166
   71SLPC  H18Z 6238   3.456   0.897   8.575 -1.1996 -2.9745  1.0411
   72SLPC     N 6239   4.094   6.171  11.072  0.1789  0.0453  0.3286
   72SLPC   C13 6240   4.198   6.236  11.157 -0.5437 -0.3624 -0.1830
   72SLPC  H13A 6241   4.262   6.165  11.208 -0.5362 -1.1963 -1.3337
   72SLPC  H13B 6242   4.265   6.296  11.098 -0.1888  0.0642  0.6327
   72SLPC  H13C 6243   4.153   6.308  11.224 -0.6893 -0.5273 -0.1063
   72SLPC   C14 6244   4.005   6.268  11.006  0.2317 -0.1221 -0.4895
   72SLPC  H14A 6245   3.973   6.340  11.080  1.1923 -0.4054  0.2031
   72SLPC  H14B 6246   4.053   6.330  10.931  2.1174 -1.2891 -0.2774
   72SLPC  H14C 6247   3.912   6.228  10.968  0.7484 -2.3559  0.5623
   72SLPC   C15 6248   4.010   6.082  11.162 -0.2309 -0.4165 -0.1657
   72SLPC  H15A 6249   3.942   6.020  11.107 -0.9467  0.9053 -0.8032
   72SLPC  H15B 6250   4.075   6.009  11.209  0.6389  0.2458 -0.3165
   72SLPC  H15C 6251   3.968   6.138  11.244  0.1114 -1.2780  0.6041
   72SLPC   C12 6252   4.159   6.087  10.962  0.4473 -0.7369  0.6755
   72SLPC  H12A 6253   4.222   6.014  11.010  2.6263  0.6857  0.0478
   72SLPC  H12B 6254   4.214   6.150  10.894  0.0386 -0.2453  0.7983
   72SLPC   C11 6255   4.063   6.005  10.868  0.2732 -0.4150 -0.0118
   72SLPC  H11A 6256   4.125   5.963  10.785  0.0098  1.1827 -1.0560
   72SLPC  H11B 6257   3.993   6.077  10.821 -0.9114 -1.1423  0.6321
   72SLPC     P 6258   3.847   5.861  10.875  0.2094  0.2433  0.5000
   72SLPC   O13 6259   3.826   5.716  10.897  0.3441 -0.4517 -0.4238
   72SLPC   O14 6260   3.749   5.954  10.932 -0.5427 -0.6355 -0.2053
   72SLPC   O12 6261   3.990   5.896  10.923  0.0406  0.1441 -0.0370
   72SLPC   O11 6262   3.848   5.887  10.719  0.2102 -0.2783 -0.1222
   72SLPC    C1 6263   3.941   5.820  10.639  0.0452  0.6980  0.2973
   72SLPC    HA 6264   4.024   5.889  10.610  1.0986 -0.0852  1.3717
   72SLPC    HB 6265   3.997   5.740  10.693  0.6635  1.3639  0.6477
   72SLPC    C2 6266   3.867   5.777  10.510 -0.3247  0.6812 -0.5543
   72SLPC    HS 6267   3.930   5.718  10.440  0.1872  1.6241 -0.8843
   72SLPC   O21 6268   3.834   5.892  10.432 -0.1976 -0.4929 -0.3309
   72SLPC   C21 6269   3.936   5.947  10.366 -0.4509 -0.3987  0.8924
   72SLPC   O22 6270   4.051   5.906  10.361  0.4682  0.4248  0.1801
   72SLPC   C22 6271   3.897   6.078  10.310  0.0236 -0.6999  0.2176
   72SLPC   H2R 6272   3.821   6.130  10.372 -0.5001 -1.6419  0.3721
   72SLPC   H2S 6273   3.991   6.138  10.303  0.9821 -2.4316 -2.5485
   72SLPC    C3 6274   3.743   5.687  10.552  0.2770  0.5012  0.1647
   72SLPC    HX 6275   3.668   5.747  10.607  1.2187  2.1600 -0.3575
   72SLPC    HY 6276   3.785   5.623  10.633 -0.8516  1.1598  1.2878
   72SLPC   O31 6277   3.692   5.607  10.440  0.0997  0.8586 -0.5544
   72SLPC   C31 6278   3.594   5.654  10.358  0.6849  0.9544  0.3495
   72SLPC   O32 6279   3.536   5.760  10.378  0.3305 -0.0308 -0.6254
   72SLPC   C32 6280   3.559   5.559  10.253  0.1192 -0.4346 -0.2614
   72SLPC   H2X 6281   3.520   5.615  10.166  1.4903  2.9798  1.2169
   72SLPC   H2Y 6282   3.482   5.488  10.290 -0.0120 -0.1734 -0.0281
   72SLPC   C23 6283   3.836   6.063  10.168 -1.4354 -0.1755 -0.8531
   72SLPC   H3R 6284   3.893   5.991  10.104  1.1884 -0.2541  1.4993
   72SLPC   H3S 6285   3.846   6.164  10.122  1.5078 -0.2720 -0.5138
   72SLPC   C24 6286   3.689   6.015  10.171  0.0121  0.2521  0.0841
   72SLPC   H4R 6287   3.630   6.078  10.241 -0.9202  2.2070 -2.4043
   72SLPC   H4S 6288   3.698   5.907  10.199  1.8074  0.3678 -0.0005
   72SLPC   C25 6289   3.603   6.015  10.037  0.2650 -0.1667  0.3960
   72SLPC   H5R 6290   3.613   6.103   9.970  0.4564 -1.3475 -1.1560
   72SLPC   H5S 6291   3.494   6.013  10.061  0.1705 -0.6067 -0.0527
   72SLPC   C26 6292   3.616   5.884   9.961  0.7741  0.3059 -0.0348
   72SLPC   H6R 6293   3.520   5.829   9.952  0.5203  0.7273  0.0842
   72SLPC   H6S 6294   3.685   5.813  10.011  1.9081  3.6124  3.3462
   72SLPC   C27 6295   3.677   5.907   9.819 -0.2943  0.1065 -0.1944
   72SLPC   H7R 6296   3.766   5.972   9.836  0.6213 -0.5619 -2.3459
   72SLPC   H7S 6297   3.593   5.948   9.760 -1.2602  2.2286  2.5161
   72SLPC   C28 6298   3.711   5.778   9.750 -0.0722 -0.5811  0.5148
   72SLPC   H8R 6299   3.614   5.736   9.716 -0.1900 -0.1764  0.3500
   72SLPC   H8S 6300   3.761   5.706   9.818 -0.9852 -1.4278  0.2994
   72SLPC   C29 6301   3.803   5.802   9.634 -0.1656 -0.3327 -0.1145
   72SLPC   H9R 6302   3.889   5.863   9.666  1.2666 -2.5527  0.3929
   72SLPC  C210 6303   3.782   5.775   9.506  0.1959  0.3314 -0.4477
   72SLPC  H10R 6304   3.868   5.796   9.442  1.4066 -1.4147  0.5430
   72SLPC  C211 6305   3.658   5.712   9.445  1.0023  0.5447 -0.8558
   72SLPC  H11R 6306   3.593   5.669   9.525 -0.5235  0.1290 -2.2765
   72SLPC  H11S 6307   3.690   5.633   9.374 -1.0982 -1.2031  0.0953
   72SLPC  C212 6308   3.573   5.814   9.376  0.8757 -0.1528  0.3973
   72SLPC  H12R 6309   3.520   5.875   9.450  2.2643  1.8129 -0.2042
   72SLPC  C213 6310   3.562   5.833   9.241 -0.7463  0.8561 -0.0666
   72SLPC  H13R 6311   3.500   5.919   9.210 -0.0017  1.2127 -0.6054
   72SLPC  C214 6312   3.639   5.758   9.131  0.5100  0.1066 -0.1186
   72SLPC  H14R 6313   3.597   5.654   9.130 -2.3299  1.1671  1.5897
   72SLPC  H14S 6314   3.745   5.742   9.160  0.6033  0.9914  0.0204
   72SLPC  C215 6315   3.628   5.817   8.991  0.2169  0.3420  0.3253
   72SLPC  H15R 6316   3.641   5.927   8.991 -1.6832  0.5948 -1.8492
   72SLPC  H15S 6317   3.524   5.802   8.957  1.5509  0.7197 -4.1771
   72SLPC  C216 6318   3.727   5.756   8.892 -0.3466  0.4428 -0.1495
   72SLPC  H16R 6319   3.744   5.650   8.921 -0.2363  0.6653  0.6189
   72SLPC  H16S 6320   3.816   5.823   8.894 -0.8397  1.1247  3.3923
   72SLPC  C217 6321   3.656   5.758   8.753  0.8140  0.1931  0.8299
   72SLPC  H17R 6322   3.663   5.859   8.707  0.6834 -0.7340 -1.2824
   72SLPC  H17S 6323   3.548   5.734   8.765  0.7884 -0.0090  0.2334
   72SLPC  C218 6324   3.726   5.665   8.656 -0.5945 -0.2779  1.2107
   72SLPC  H18R 6325   3.690   5.690   8.554  0.0160  0.7698  1.2424
   72SLPC  H18S 6326   3.695   5.563   8.686 -1.3395 -0.0430  1.2436
   72SLPC  H18T 6327   3.836   5.678   8.669 -0.5250  1.6583 -0.9623
   72SLPC   C33 6328   3.677   5.479  10.190  0.0853 -0.1842 -0.1459
   72SLPC   H3X 6329   3.719   5.410  10.265  2.2562  0.3436 -0.8434
   72SLPC   H3Y 6330   3.757   5.553  10.168  0.7774 -0.4565  1.4091
   72SLPC   C34 6331   3.630   5.389  10.076 -0.4972 -0.3305 -0.0883
   72SLPC   H4X 6332   3.551   5.321  10.116 -0.4908 -0.4365 -0.2539
   72SLPC   H4Y 6333   3.712   5.325  10.038 -1.1676 -0.5904 -1.1161
   72SLPC   C35 6334   3.578   5.468   9.955 -0.1483 -0.4527 -0.5094
   72SLPC   H5X 6335   3.642   5.556   9.933  0.0067 -0.7389 -1.2284
   72SLPC   H5Y 6336   3.480   5.515   9.976  0.1512  1.2000 -2.6138
   72SLPC   C36 6337   3.554   5.372   9.838  0.2712  0.1406 -0.2234
   72SLPC   H6X 6338   3.479   5.292   9.847 -0.0175  0.5835  1.4054
   72SLPC   H6Y 6339   3.647   5.318   9.809 -0.9623 -1.6627 -0.9411
   72SLPC   C37 6340   3.502   5.456   9.720 -0.1408  0.8240  0.8139
   72SLPC   H7X 6341   3.579   5.522   9.676 -0.3670  0.6543  0.1595
   72SLPC   H7Y 6342   3.406   5.508   9.743 -0.6043  0.9772 -1.4032
   72SLPC   C38 6343   3.469   5.362   9.594  0.4776 -0.0940 -0.4836
   72SLPC   H8X 6344   3.371   5.313   9.615  0.8787 -0.6547  0.1042
   72SLPC   H8Y 6345   3.555   5.293   9.607 -1.2010 -1.7911  2.2339
   72SLPC   C39 6346   3.455   5.420   9.456 -0.0125  0.4760 -0.2185
   72SLPC   H9X 6347   3.556   5.455   9.428 -0.5495 -0.2247 -3.2155
   72SLPC   H9Y 6348   3.386   5.507   9.452  0.8466  1.1365 -0.6834
   72SLPC  C310 6349   3.421   5.321   9.343  0.6103 -0.1560  0.1164
   72SLPC  H10X 6350   3.326   5.272   9.371  1.0442 -0.1626  1.6275
   72SLPC  H10Y 6351   3.502   5.247   9.327  0.2741 -0.7555  1.1038
   72SLPC  C311 6352   3.401   5.393   9.209 -0.3553 -0.1940 -0.8765
   72SLPC  H11X 6353   3.494   5.448   9.183 -0.5024 -0.1781 -1.3825
   72SLPC  H11Y 6354   3.321   5.470   9.225  0.3051  0.2156  0.5535
   72SLPC  C312 6355   3.363   5.302   9.089  0.5185  0.3094 -0.3034
   72SLPC  H12X 6356   3.252   5.298   9.092  0.5628  0.0267  2.7704
   72SLPC  H12Y 6357   3.400   5.197   9.095 -3.1320 -0.9157  3.8577
   72SLPC  C313 6358   3.402   5.357   8.946  0.2276 -0.5161  0.2715
   72SLPC  H13X 6359   3.512   5.348   8.937  0.0230 -2.0241 -0.8753
   72SLPC  H13Y 6360   3.379   5.466   8.948  1.9467 -0.1580  1.6657
   72SLPC  C314 6361   3.330   5.283   8.828 -0.1774 -0.1867 -0.6002
   72SLPC  H14X 6362   3.219   5.294   8.825 -0.3112 -0.9385  1.0279
   72SLPC  H14Y 6363   3.350   5.174   8.844  1.7658 -0.0757 -2.0939
   72SLPC  C315 6364   3.385   5.316   8.688  0.0592 -0.9900  0.4243
   72SLPC  H15X 6365   3.365   5.230   8.620 -0.0457 -2.0988  1.8394
   72SLPC  H15Y 6366   3.495   5.329   8.701  0.1479 -1.2836 -0.0067
   72SLPC  C316 6367   3.324   5.452   8.633  0.0222 -0.3730  1.3425
   72SLPC  H16X 6368   3.344   5.533   8.705  1.5879  0.1509  0.3313
   72SLPC  H16Y 6369   3.216   5.427   8.622 -0.5232  1.9098  1.3105
   72SLPC  C317 6370   3.393   5.490   8.503 -0.2315 -0.0748  0.1381
   72SLPC  H17X 6371   3.394   5.404   8.432  2.7413 -0.2097  0.2509
   72SLPC  H17Y 6372   3.499   5.517   8.521 -0.2907 -0.5283  1.2136
   72SLPC  C318 6373   3.333   5.610   8.427  0.1134  0.0604 -1.1109
   72SLPC  H18X 6374   3.400   5.626   8.339 -1.4101  0.2620 -2.2656
   72SLPC  H18Y 6375   3.339   5.704   8.485  0.5284 -0.5339 -0.1780
   72SLPC  H18Z 6376   3.230   5.591   8.389 -0.6424  2.0076 -0.1023
   73SLPC     N 6377   3.639   4.902  11.036  0.4504  0.7406  0.5088
   73SLPC   C13 6378   3.716   5.010  11.095  0.0740 -0.7265  0.6017
   73SLPC  H13A 6379   3.823   5.010  11.082  0.1834  2.1415  1.3262
   73SLPC  H13B 6380   3.664   5.103  11.082  0.1850 -0.8090 -0.4463
   73SLPC  H13C 6381   3.707   5.002  11.202 -0.5806 -0.1906  0.5873
   73SLPC   C14 6382   3.639   4.923  10.884  0.3358  0.7706 -0.5215
   73SLPC  H14A 6383   3.561   4.868  10.833 -0.8213  2.3901 -0.5205
   73SLPC  H14B 6384   3.631   5.028  10.861  1.3764  0.5469 -2.0270
   73SLPC  H14C 6385   3.726   4.864  10.856  0.0374 -0.4305  1.0303
   73SLPC   C15 6386   3.501   4.918  11.087  0.5662 -0.4523 -0.2146
   73SLPC  H15A 6387   3.439   4.840  11.046 -2.3723  2.2393 -1.1226
   73SLPC  H15B 6388   3.482   4.919  11.193 -2.1996  2.2927 -0.6826
   73SLPC  H15C 6389   3.463   5.013  11.053 -2.3438 -1.7445 -0.6819
   73SLPC   C12 6390   3.692   4.760  11.068 -0.1855 -1.3254  0.4412
   73SLPC  H12A 6391   3.637   4.685  11.014 -2.6893 -0.3963  1.6498
   73SLPC  H12B 6392   3.675   4.733  11.171 -1.9095 -1.6010  0.1023
   73SLPC   C11 6393   3.838   4.739  11.033  0.3931  0.4407 -0.1223
   73SLPC  H11A 6394   3.877   4.643  11.073  0.7996 -0.0320 -1.6353
   73SLPC  H11B 6395   3.898   4.818  11.083 -0.8379  1.5727 -0.4085
   73SLPC     P 6396   4.000   4.738  10.835 -0.4589 -0.0752 -0.1106
   73SLPC   O13 6397   4.012   4.855  10.745  0.0185 -0.2642  0.4034
   73SLPC   O14 6398   4.098   4.724  10.944 -0.0995  0.5331  0.1559
   73SLPC   O12 6399   3.857   4.748  10.894 -0.2554  0.2427  0.9590
   73SLPC   O11 6400   4.007   4.601  10.751  0.7980 -0.2938 -0.2641
   73SLPC    C1 6401   4.125   4.556  10.689  0.6290  0.2349 -0.7451
   73SLPC    HA 6402   4.213   4.617  10.718  1.9837 -1.4829 -1.1507
   73SLPC    HB 6403   4.146   4.450  10.716 -0.5440  0.8432  2.8295
   73SLPC    C2 6404   4.103   4.572  10.532 -0.0630 -0.1737  0.0929
   73SLPC    HS 6405   4.067   4.676  10.523 -1.5943 -0.5204  1.9399
   73SLPC   O21 6406   4.003   4.473  10.494  0.5004  0.5908 -0.3526
   73SLPC   C21 6407   3.920   4.525  10.400 -0.1853  0.6393  0.4101
   73SLPC   O22 6408   3.949   4.605  10.311  0.4201  0.0913  0.0016
   73SLPC   C22 6409   3.780   4.468  10.416 -0.0844  0.4813  0.3560
   73SLPC   H2R 6410   3.788   4.373  10.472 -1.7045 -0.0586 -0.2965
   73SLPC   H2S 6411   3.720   4.537  10.479  0.3661 -0.1100  1.4404
   73SLPC    C3 6412   4.240   4.541  10.460  0.3187 -0.1521  0.9377
   73SLPC    HX 6413   4.287   4.449  10.501 -0.7502  0.2649  3.1632
   73SLPC    HY 6414   4.305   4.623  10.499 -0.3464  0.4650  0.7712
   73SLPC   O31 6415   4.225   4.535  10.313  0.0094 -0.1646  0.3784
   73SLPC   C31 6416   4.270   4.634  10.245 -0.4771 -0.2270 -0.4064
   73SLPC   O32 6417   4.315   4.742  10.287 -0.4597 -0.1215  0.0912
   73SLPC   C32 6418   4.288   4.579  10.100  0.0550  0.5639  0.0393
   73SLPC   H2X 6419   4.301   4.470  10.118  2.0674  0.7379 -0.2820
   73SLPC   H2Y 6420   4.377   4.623  10.052 -0.9996  3.4646  0.6445
   73SLPC   C23 6421   3.710   4.439  10.283  0.2621 -0.1635  0.1796
   73SLPC   H3R 6422   3.725   4.525  10.215  3.1328 -0.9241 -0.2249
   73SLPC   H3S 6423   3.600   4.427  10.298 -0.1538  0.7952 -1.9226
   73SLPC   C24 6424   3.757   4.309  10.208  0.7757 -0.2449 -0.4562
   73SLPC   H4R 6425   3.779   4.239  10.292  2.9772 -0.2944 -1.0321
   73SLPC   H4S 6426   3.857   4.305  10.159  0.6542  0.5750 -0.7777
   73SLPC   C25 6427   3.665   4.251  10.101 -0.0151  0.1651 -0.1034
   73SLPC   H5R 6428   3.581   4.193  10.146  1.6019 -1.7723  0.5298
   73SLPC   H5S 6429   3.716   4.172  10.041 -1.2774  0.0801 -1.0759
   73SLPC   C26 6430   3.611   4.364  10.009 -1.1266  0.0400 -0.0483
   73SLPC   H6R 6431   3.553   4.435  10.073 -0.7319 -0.9602  1.4407
   73SLPC   H6S 6432   3.537   4.320   9.938 -1.8816 -0.3512  0.9717
   73SLPC   C27 6433   3.723   4.414   9.912 -0.0067  0.0081  0.2600
   73SLPC   H7R 6434   3.763   4.329   9.852 -0.1065 -1.3285  2.0493
   73SLPC   H7S 6435   3.800   4.468   9.970  0.5425  1.1936 -1.5177
   73SLPC   C28 6436   3.674   4.523   9.809 -0.2713 -0.0910  0.2239
   73SLPC   H8R 6437   3.770   4.552   9.762  1.1475 -1.5097  2.1626
   73SLPC   H8S 6438   3.633   4.614   9.858  1.7237  0.3951  1.0425
   73SLPC   C29 6439   3.573   4.489   9.705 -0.1009 -0.4165  0.1698
   73SLPC   H9R 6440   3.479   4.439   9.732  0.1541 -0.1394  1.5975
   73SLPC  C210 6441   3.595   4.476   9.573 -0.3490 -0.3295  0.4528
   73SLPC  H10R 6442   3.512   4.449   9.506  0.0331 -1.6778  0.5074
   73SLPC  C211 6443   3.720   4.511   9.500  0.2331  0.1936 -0.9531
   73SLPC  H11R 6444   3.778   4.421   9.471  0.9822  0.9283 -1.7786
   73SLPC  H11S 6445   3.793   4.565   9.565 -2.5169  0.7414  1.7670
   73SLPC  C212 6446   3.688   4.598   9.381 -0.2110 -1.0277  0.3219
   73SLPC  H12R 6447   3.683   4.703   9.412 -0.9832 -1.3157  1.1904
   73SLPC  C213 6448   3.685   4.562   9.254  0.4452 -0.1468  0.3381
   73SLPC  H13R 6449   3.658   4.637   9.179  0.8525 -0.7020 -0.3777
   73SLPC  C214 6450   3.701   4.425   9.199 -0.2884  0.0990  0.3675
   73SLPC  H14R 6451   3.611   4.361   9.192  0.7412 -1.3295 -0.0395
   73SLPC  H14S 6452   3.773   4.372   9.265 -1.6001  0.8966  2.4606
   73SLPC  C215 6453   3.756   4.424   9.056 -0.1840 -0.6437 -0.9327
   73SLPC  H15R 6454   3.808   4.329   9.027 -0.2718 -0.9811  0.0033
   73SLPC  H15S 6455   3.838   4.498   9.042  1.2654 -2.1384 -0.4967
   73SLPC  C216 6456   3.646   4.444   8.954 -0.0118 -1.0028 -0.7826
   73SLPC  H16R 6457   3.602   4.544   8.979 -1.1491 -1.3354 -1.4134
   73SLPC  H16S 6458   3.565   4.368   8.964 -2.4113  1.5876  0.4825
   73SLPC  C217 6459   3.687   4.427   8.806  0.2092  0.3125 -0.2379
   73SLPC  H17R 6460   3.709   4.321   8.783  0.4215 -0.0953  1.7088
   73SLPC  H17S 6461   3.781   4.484   8.788 -0.4400  0.6810 -2.6236
   73SLPC  C218 6462   3.588   4.479   8.698  0.0200  0.2768 -0.5252
   73SLPC  H18R 6463   3.567   4.584   8.727  2.1411  1.1948 -2.1263
   73SLPC  H18S 6464   3.492   4.425   8.690 -0.1729  0.4634  0.4599
   73SLPC  H18T 6465   3.649   4.477   8.605 -0.0910 -0.0687 -0.5894
   73SLPC   C33 6466   4.161   4.592  10.010  0.1069  0.1712  0.2647
   73SLPC   H3X 6467   4.099   4.683  10.022 -0.3270  0.5131 -3.8394
   73SLPC   H3Y 6468   4.103   4.500  10.030  0.8891 -1.7454 -5.2385
   73SLPC   C34 6469   4.196   4.594   9.858 -0.0288 -0.2521 -1.0354
   73SLPC   H4X 6470   4.271   4.515   9.838 -0.0386 -0.6764  0.5507
   73SLPC   H4Y 6471   4.240   4.688   9.820 -0.0003 -1.3168 -3.7951
   73SLPC   C35 6472   4.068   4.557   9.781  0.1818  0.1625  0.5542
   73SLPC   H5X 6473   3.997   4.642   9.771 -1.3891 -1.1285  0.5001
   73SLPC   H5Y 6474   4.015   4.484   9.846  0.2681 -0.2456  0.1665
   73SLPC   C36 6475   4.103   4.509   9.640 -0.1487 -0.3123  0.7402
   73SLPC   H6X 6476   4.018   4.458   9.589 -0.3087 -0.0621  0.7508
   73SLPC   H6Y 6477   4.179   4.429   9.651  0.0978 -0.2046 -0.1745
   73SLPC   C37 6478   4.144   4.615   9.538 -0.3904 -0.2218 -0.3680
   73SLPC   H7X 6479   4.254   4.607   9.541  0.0004  3.4935 -1.8321
   73SLPC   H7Y 6480   4.108   4.716   9.568  2.3159  0.8697 -0.6481
   73SLPC   C38 6481   4.094   4.591   9.393 -0.3499  0.0156 -0.1616
   73SLPC   H8X 6482   3.989   4.557   9.398  0.1919 -1.8832 -1.2449
   73SLPC   H8Y 6483   4.149   4.504   9.351  1.6104 -0.4394  3.1110
   73SLPC   C39 6484   4.117   4.712   9.301  0.3647  0.0216 -0.6829
   73SLPC   H9X 6485   4.223   4.743   9.314  0.0942  0.5448  0.3262
   73SLPC   H9Y 6486   4.041   4.791   9.321  0.0876 -0.6995  1.1941
   73SLPC  C310 6487   4.077   4.672   9.158 -0.0963  0.5953  0.0479
   73SLPC  H10X 6488   3.972   4.638   9.164 -0.5595  1.5205 -2.2918
   73SLPC  H10Y 6489   4.142   4.585   9.133 -0.1989  0.0879  1.5477
   73SLPC  C311 6490   4.093   4.791   9.054  0.5064 -0.4103  0.0872
   73SLPC  H11X 6491   4.201   4.815   9.056  0.6447 -1.0670  0.8519
   73SLPC  H11Y 6492   4.038   4.874   9.103  1.0097 -0.0165 -0.0244
   73SLPC  C312 6493   4.042   4.765   8.911 -0.1146 -0.0854 -0.1862
   73SLPC  H12X 6494   3.943   4.714   8.910 -0.2204  0.1096  0.2967
   73SLPC  H12Y 6495   4.107   4.694   8.857 -1.5403 -0.7456 -1.0759
   73SLPC  C313 6496   4.024   4.897   8.826 -0.4965  0.0593 -0.4249
   73SLPC  H13X 6497   4.124   4.945   8.828  0.0714 -1.1397  1.2640
   73SLPC  H13Y 6498   3.945   4.962   8.869 -2.1702 -2.3517  0.2928
   73SLPC  C314 6499   3.992   4.870   8.679  0.4659 -0.2474 -0.4756
   73SLPC  H14X 6500   4.074   4.818   8.625  0.7046  0.2964 -0.6447
   73SLPC  H14Y 6501   3.984   4.972   8.637  1.3845  0.2963  0.6510
   73SLPC  C315 6502   3.860   4.785   8.657  0.4341 -0.5342  0.3686
   73SLPC  H15X 6503   3.785   4.830   8.725 -1.8066 -1.3335 -1.4862
   73SLPC  H15Y 6504   3.875   4.678   8.682  1.6238 -0.1504  1.3176
   73SLPC  C316 6505   3.808   4.805   8.513 -0.4387 -0.2381  0.7189
   73SLPC  H16X 6506   3.798   4.914   8.495  1.1240 -0.4508 -1.6870
   73SLPC  H16Y 6507   3.708   4.758   8.501 -1.3214  1.7100  0.2383
   73SLPC  C317 6508   3.913   4.756   8.407 -0.4687  0.1167  0.5321
   73SLPC  H17X 6509   4.010   4.798   8.440  0.2530 -0.2750 -1.0357
   73SLPC  H17Y 6510   3.896   4.792   8.303 -2.3554  0.4753  0.9412
   73SLPC  C318 6511   3.926   4.607   8.403  0.3750 -1.8410  0.1069
   73SLPC  H18X 6512   3.831   4.553   8.385 -0.5556 -0.6785  1.4985
   73SLPC  H18Y 6513   3.969   4.571   8.498 -0.5373 -2.7384  0.1835
   73SLPC  H18Z 6514   3.994   4.564   8.326  0.6496 -3.9231  1.4647
   74SLPC     N 6515   4.782   5.933  10.739 -0.0733 -0.1043 -0.8793
   74SLPC   C13 6516   4.729   5.977  10.879 -0.9576 -0.1952 -0.3967
   74SLPC  H13A 6517   4.621   5.988  10.882 -0.8774  0.2653  0.7387
   74SLPC  H13B 6518   4.771   5.913  10.955  0.9602 -0.9749 -2.0658
   74SLPC  H13C 6519   4.752   6.080  10.898 -0.8783 -0.5882  1.7517
   74SLPC   C14 6520   4.719   5.798  10.712  0.8286 -0.0404  0.7721
   74SLPC  H14A 6521   4.616   5.819  10.737  0.6509  0.8517 -0.6826
   74SLPC  H14B 6522   4.724   5.769  10.608 -1.2624  5.3104 -0.9848
   74SLPC  H14C 6523   4.743   5.723  10.786 -1.4534 -0.8310  0.7507
   74SLPC   C15 6524   4.935   5.916  10.756  0.3975 -0.0962  0.6622
   74SLPC  H15A 6525   4.958   5.845  10.834 -0.2144  0.0162  0.9492
   74SLPC  H15B 6526   4.976   5.896  10.658 -1.1175 -1.8193  0.3674
   74SLPC  H15C 6527   4.985   6.004  10.794  1.5071  0.2485 -1.5046
   74SLPC   C12 6528   4.746   6.034  10.635 -0.7805 -0.4770  0.6797
   74SLPC  H12A 6529   4.803   6.120  10.667  1.4671 -2.2022  1.4486
   74SLPC  H12B 6530   4.640   6.055  10.633 -0.7199 -0.2798 -1.7736
   74SLPC   C11 6531   4.775   6.006  10.486 -0.5874 -0.1247  0.6399
   74SLPC  H11A 6532   4.722   6.078  10.420 -0.1661  0.2943  0.7588
   74SLPC  H11B 6533   4.750   5.901  10.457 -0.3759  0.6173 -2.2839
   74SLPC     P 6534   4.990   6.160  10.445 -0.0115 -0.0715  0.0723
   74SLPC   O13 6535   4.950   6.258  10.546  0.4495  0.8174 -0.2001
   74SLPC   O14 6536   5.135   6.128  10.434 -0.1834 -0.0729  0.3638
   74SLPC   O12 6537   4.912   6.024  10.464  0.3364  0.1915 -0.3595
   74SLPC   O11 6538   4.931   6.203  10.309 -0.3301 -0.4712  0.1800
   74SLPC    C1 6539   4.923   6.107  10.204  0.5111  0.3053 -0.3595
   74SLPC    HA 6540   5.014   6.044  10.199  1.1674  0.9615  2.1658
   74SLPC    HB 6541   4.830   6.049  10.220  1.1526 -0.1743  1.8053
   74SLPC    C2 6542   4.898   6.176  10.066  0.3364  0.6447 -0.0026
   74SLPC    HS 6543   4.824   6.257  10.080 -0.6874 -0.4755  1.2410
   74SLPC   O21 6544   4.848   6.080   9.974 -0.0419  0.1525 -0.3129
   74SLPC   C21 6545   4.759   6.128   9.890  0.2312 -0.3407  0.6459
   74SLPC   O22 6546   4.702   6.235   9.903  0.7500 -0.1503 -0.4174
   74SLPC   C22 6547   4.751   6.037   9.771 -0.7865 -0.1974 -0.1327
   74SLPC   H2R 6548   4.858   6.026   9.743 -0.8176  1.1934 -0.8017
   74SLPC   H2S 6549   4.712   5.941   9.812  2.6809 -1.8487 -0.4162
   74SLPC    C3 6550   5.030   6.239  10.020 -0.4288 -0.0872  0.3178
   74SLPC    HX 6551   5.103   6.156  10.025  0.9965  1.0891 -0.4042
   74SLPC    HY 6552   5.068   6.319  10.088 -0.6624  0.4303 -0.1557
   74SLPC   O31 6553   5.017   6.286   9.884 -0.1583 -0.2110  0.0848
   74SLPC   C31 6554   4.974   6.405   9.875  0.0118  0.0149 -0.2424
   74SLPC   O32 6555   4.954   6.485   9.964  0.4304 -0.2671  0.0213
   74SLPC   C32 6556   4.975   6.440   9.725 -0.0916  0.0105  0.6059
   74SLPC   H2X 6557   4.945   6.349   9.669 -1.4962 -0.9863  2.9178
   74SLPC   H2Y 6558   5.083   6.461   9.709  0.6629 -3.6082  0.5163
   74SLPC   C23 6559   4.670   6.098   9.657 -0.4467  0.2560 -0.7716
   74SLPC   H3R 6560   4.715   6.194   9.623 -1.8978  1.2830  0.1620
   74SLPC   H3S 6561   4.573   6.138   9.694  0.3385 -0.1472  1.8372
   74SLPC   C24 6562   4.657   6.011   9.533  0.4414 -0.7095 -0.3110
   74SLPC   H4R 6563   4.584   5.928   9.548  0.4512 -0.8640 -1.1075
   74SLPC   H4S 6564   4.752   5.953   9.528 -0.0177 -1.6136  0.9259
   74SLPC   C25 6565   4.624   6.104   9.408 -0.7142 -0.0844 -0.7746
   74SLPC   H5R 6566   4.698   6.186   9.398 -1.4440  0.5450 -1.0777
   74SLPC   H5S 6567   4.529   6.162   9.411 -2.1749 -2.4943  0.6460
   74SLPC   C26 6568   4.615   6.024   9.276 -0.1691 -0.0663 -0.0094
   74SLPC   H6R 6569   4.532   5.951   9.265  0.3022 -0.8737  1.7242
   74SLPC   H6S 6570   4.704   5.959   9.265  0.4918  0.5095  1.7786
   74SLPC   C27 6571   4.601   6.118   9.153  0.0858 -0.1192 -0.6426
   74SLPC   H7R 6572   4.700   6.162   9.127  0.1711 -0.7969 -1.4661
   74SLPC   H7S 6573   4.546   6.204   9.196  2.8544  1.3219  0.1567
   74SLPC   C28 6574   4.548   6.046   9.037 -0.0348  0.4101 -0.6806
   74SLPC   H8R 6575   4.463   5.981   9.066  1.3770 -0.7147  1.0441
   74SLPC   H8S 6576   4.631   5.982   9.002  0.2717  0.7941 -0.6681
   74SLPC   C29 6577   4.478   6.146   8.935  0.6050  0.3780 -0.1231
   74SLPC   H9R 6578   4.383   6.188   8.972  0.0274  0.1199 -1.2630
   74SLPC  C210 6579   4.517   6.178   8.812 -0.1147  0.1970  0.4315
   74SLPC  H10R 6580   4.456   6.246   8.751 -2.1805  0.6868  2.9527
   74SLPC  C211 6581   4.639   6.132   8.737  1.2124  0.5583 -0.0532
   74SLPC  H11R 6582   4.617   6.031   8.697  0.1102  0.6375  0.3452
   74SLPC  H11S 6583   4.723   6.111   8.807 -0.2420  0.8160  1.8105
   74SLPC  C212 6584   4.684   6.230   8.629 -0.3047  0.4742  0.0490
   74SLPC  H12R 6585   4.729   6.325   8.662 -1.2587  1.4631 -1.4655
   74SLPC  C213 6586   4.647   6.223   8.498 -0.1026  0.1489 -1.0968
   74SLPC  H13R 6587   4.672   6.298   8.422 -1.2803 -0.7859 -2.4258
   74SLPC  C214 6588   4.559   6.120   8.443 -1.3215  0.4103  0.3259
   74SLPC  H14R 6589   4.537   6.037   8.512 -0.2683 -0.6128 -0.5438
   74SLPC  H14S 6590   4.614   6.056   8.371 -2.3161 -1.1840  0.9677
   74SLPC  C215 6591   4.429   6.173   8.368 -0.7934  0.3348  0.0746
   74SLPC  H15R 6592   4.443   6.226   8.271 -2.4688  0.5014 -0.0907
   74SLPC  H15S 6593   4.376   6.246   8.433 -0.3539  1.9861 -1.4133
   74SLPC  C216 6594   4.331   6.055   8.320 -0.5038  0.5294  0.2938
   74SLPC  H16R 6595   4.290   5.992   8.401  0.9127 -2.5257 -1.2590
   74SLPC  H16S 6596   4.371   5.989   8.240 -1.8858 -2.8010  2.2361
   74SLPC  C217 6597   4.205   6.126   8.268  0.0968  0.2538  0.2165
   74SLPC  H17R 6598   4.237   6.203   8.194  1.8714  0.1230  0.8210
   74SLPC  H17S 6599   4.145   6.171   8.349  0.5598 -0.3788  0.9113
   74SLPC  C218 6600   4.116   6.028   8.191 -0.0687 -0.4751  0.0663
   74SLPC  H18R 6601   4.065   5.955   8.258 -0.7996 -0.7614 -0.7884
   74SLPC  H18S 6602   4.172   5.982   8.107 -0.2038 -1.1509  0.3428
   74SLPC  H18T 6603   4.027   6.084   8.155 -1.3410 -0.6452  2.8194
   74SLPC   C33 6604   4.878   6.557   9.691 -0.3727  0.0176  0.1183
   74SLPC   H3X 6605   4.902   6.648   9.750 -0.0223  0.6009 -0.9005
   74SLPC   H3Y 6606   4.774   6.525   9.716 -1.3190  1.3890 -1.9173
   74SLPC   C34 6607   4.879   6.605   9.541  0.4883  0.3390 -0.4143
   74SLPC   H4X 6608   4.975   6.660   9.528  0.2359  0.5553 -1.3544
   74SLPC   H4Y 6609   4.790   6.671   9.530  0.5601  0.4485 -0.3418
   74SLPC   C35 6610   4.855   6.491   9.435 -0.5023  0.4770 -0.2043
   74SLPC   H5X 6611   4.766   6.434   9.469  0.0384  0.3797  1.0685
   74SLPC   H5Y 6612   4.936   6.416   9.444  0.5794  1.6989  0.4062
   74SLPC   C36 6613   4.835   6.553   9.299  0.1553  0.7988  0.4386
   74SLPC   H6X 6614   4.929   6.608   9.273 -0.0519  1.0802  0.2866
   74SLPC   H6Y 6615   4.744   6.615   9.285  0.1860  0.9590  0.9645
   74SLPC   C37 6616   4.832   6.451   9.186  0.2795  0.5712 -0.7350
   74SLPC   H7X 6617   4.741   6.388   9.188  0.9502 -0.3565  1.3279
   74SLPC   H7Y 6618   4.919   6.383   9.198 -1.2900 -1.2291  0.6449
   74SLPC   C38 6619   4.829   6.511   9.037 -0.3184 -0.3889 -0.1818
   74SLPC   H8X 6620   4.754   6.593   9.040 -0.4528 -0.5482  1.4601
   74SLPC   H8Y 6621   4.791   6.446   8.956 -0.0599  0.1964 -0.7782
   74SLPC   C39 6622   4.958   6.590   9.002 -0.4568 -0.1868 -0.2548
   74SLPC   H9X 6623   5.051   6.531   9.015 -0.7095 -0.4815  0.2390
   74SLPC   H9Y 6624   4.965   6.679   9.069 -1.8206  0.4549 -0.9590
   74SLPC  C310 6625   4.957   6.646   8.858 -0.0739 -0.8884 -0.5463
   74SLPC  H10X 6626   4.855   6.687   8.841  0.1403 -0.5265 -0.9764
   74SLPC  H10Y 6627   4.967   6.564   8.783  2.4199 -1.2278  0.1117
   74SLPC  C311 6628   5.046   6.754   8.831 -0.0444 -0.0941 -0.1868
   74SLPC  H11X 6629   5.151   6.737   8.862 -0.0729  0.1130  0.0258
   74SLPC  H11Y 6630   5.017   6.834   8.903  0.9626 -0.3813  0.5481
   74SLPC  C312 6631   5.042   6.806   8.687  0.3632 -0.4413 -0.2999
   74SLPC  H12X 6632   5.121   6.881   8.671  0.1688 -0.2046 -0.1584
   74SLPC  H12Y 6633   4.943   6.854   8.676  0.2313 -0.9038 -1.1997
   74SLPC  C313 6634   5.057   6.695   8.579 -0.3535 -0.5855  0.3217
   74SLPC  H13X 6635   4.969   6.626   8.582  0.1575 -1.4637 -3.0550
   74SLPC  H13Y 6636   5.146   6.635   8.608 -0.9214 -1.7759 -0.3754
   74SLPC  C314 6637   5.067   6.744   8.433  0.2047 -0.8312 -0.4664
   74SLPC  H14X 6638   5.146   6.821   8.425  0.2512 -0.5933  1.9744
   74SLPC  H14Y 6639   4.969   6.792   8.413  1.0422  1.5320  0.8595
   74SLPC  C315 6640   5.115   6.638   8.335  0.3833  0.4306 -0.0442
   74SLPC  H15X 6641   5.058   6.545   8.358 -2.7048  1.6945 -2.1970
   74SLPC  H15Y 6642   5.220   6.613   8.361  0.2543 -0.4457 -0.3327
   74SLPC  C316 6643   5.109   6.675   8.189  0.2969  0.0584  0.1413
   74SLPC  H16X 6644   5.169   6.595   8.142  1.7985 -0.5035  2.8971
   74SLPC  H16Y 6645   5.145   6.780   8.181 -2.3052  1.0487  1.0701
   74SLPC  C317 6646   4.967   6.676   8.123 -0.1390 -0.0549  0.2540
   74SLPC  H17X 6647   4.984   6.706   8.018  1.8590 -2.9814 -0.3108
   74SLPC  H17Y 6648   4.899   6.745   8.178 -0.6201  1.3420 -2.0385
   74SLPC  C318 6649   4.894   6.543   8.129 -0.5272 -0.6668  0.2284
   74SLPC  H18X 6650   4.876   6.495   8.228 -2.9360  0.5983  0.4523
   74SLPC  H18Y 6651   4.932   6.476   8.049 -1.1486  1.0115 -1.5190
   74SLPC  H18Z 6652   4.790   6.563   8.095 -0.3301 -1.5836 -0.9393
   75SLPC     N 6653   2.885   3.625   6.480 -0.4470  0.3626  0.0565
   75SLPC   C13 6654   2.979   3.736   6.446  0.1112 -0.0380  0.0186
   75SLPC  H13A 6655   3.002   3.780   6.542 -0.2747  1.1060 -0.4062
   75SLPC  H13B 6656   3.074   3.701   6.410 -0.0051 -0.5278  0.1723
   75SLPC  H13C 6657   2.940   3.809   6.377  1.1765  0.4835 -0.0327
   75SLPC   C14 6658   2.902   3.515   6.380  0.0457  0.3606  0.6062
   75SLPC  H14A 6659   2.858   3.421   6.408  0.6124 -0.4716 -1.2485
   75SLPC  H14B 6660   2.868   3.520   6.278 -2.2420 -0.2076  1.3148
   75SLPC  H14C 6661   3.008   3.494   6.382  0.4289  2.1501  0.5611
   75SLPC   C15 6662   2.747   3.662   6.492 -0.4529  0.1518 -0.0352
   75SLPC  H15A 6663   2.718   3.688   6.392  1.0259 -0.4011 -0.6151
   75SLPC  H15B 6664   2.679   3.579   6.504  0.3357 -0.2549  1.7783
   75SLPC  H15C 6665   2.734   3.736   6.569  1.9597 -0.1803  0.7363
   75SLPC   C12 6666   2.939   3.581   6.622  0.2600  0.1388  0.0092
   75SLPC  H12A 6667   2.944   3.672   6.679  2.7421 -0.4175  0.7234
   75SLPC  H12B 6668   3.033   3.531   6.608  0.7601  0.7487  1.2014
   75SLPC   C11 6669   2.850   3.473   6.696 -0.0278  0.9049 -0.3558
   75SLPC  H11A 6670   2.743   3.505   6.699 -0.0055  0.8720  1.1101
   75SLPC  H11B 6671   2.885   3.462   6.800 -2.8357 -3.4481  0.2191
   75SLPC     P 6672   3.013   3.281   6.616 -0.1823 -0.0628  0.0667
   75SLPC   O13 6673   3.018   3.223   6.480 -0.6781  0.4328  0.0031
   75SLPC   O14 6674   3.116   3.383   6.654 -0.1307  0.0527 -0.0727
   75SLPC   O12 6675   2.864   3.343   6.633 -0.3424  0.4758 -0.1443
   75SLPC   O11 6676   3.008   3.166   6.722  0.1967 -0.0872  0.4252
   75SLPC    C1 6677   2.955   3.039   6.686  0.2338  0.0947 -0.1525
   75SLPC    HA 6678   2.969   3.015   6.578 -1.7236  1.9715 -0.8547
   75SLPC    HB 6679   3.011   2.958   6.738 -0.4938 -0.4158 -0.1503
   75SLPC    C2 6680   2.809   3.027   6.724  0.1644 -0.5021 -0.3439
   75SLPC    HS 6681   2.761   3.120   6.688  0.1740 -0.0257  0.8541
   75SLPC   O21 6682   2.802   3.023   6.871  0.3278 -0.0151 -0.0186
   75SLPC   C21 6683   2.686   3.051   6.920 -0.1606  0.3015 -0.1233
   75SLPC   O22 6684   2.583   3.076   6.853 -0.6977  0.8617 -0.6023
   75SLPC   C22 6685   2.693   3.043   7.075  0.0803  0.8546 -0.2501
   75SLPC   H2R 6686   2.716   2.936   7.090 -0.6160  0.8532  0.8331
   75SLPC   H2S 6687   2.774   3.116   7.098  0.3770  0.2283  0.7369
   75SLPC    C3 6688   2.725   2.909   6.664 -0.1022  0.1992  0.0416
   75SLPC    HX 6689   2.733   2.915   6.553  0.7432  2.8302  0.2068
   75SLPC    HY 6690   2.618   2.921   6.693 -0.0590 -0.4786  0.4926
   75SLPC   O31 6691   2.773   2.791   6.709  0.5298 -0.2046 -0.4343
   75SLPC   C31 6692   2.844   2.704   6.634  0.2878 -0.0598 -0.0028
   75SLPC   O32 6693   2.885   2.728   6.523  0.1761  0.1112  0.9784
   75SLPC   C32 6694   2.855   2.574   6.710  0.1105 -0.2410  0.2290
   75SLPC   H2X 6695   2.892   2.496   6.640 -0.8060  0.8220 -1.4888
   75SLPC   H2Y 6696   2.747   2.548   6.724  0.3271 -1.1531  0.2610
   75SLPC   C23 6697   2.559   3.077   7.144 -0.1204 -0.1198  0.2092
   75SLPC   H3R 6698   2.494   2.988   7.145 -0.2955 -0.0199 -1.2898
   75SLPC   H3S 6699   2.506   3.156   7.088 -0.6912 -0.1201  0.7426
   75SLPC   C24 6700   2.581   3.121   7.285 -0.5137  0.6693  0.6536
   75SLPC   H4R 6701   2.661   3.197   7.285 -0.5516  0.7074  0.1473
   75SLPC   H4S 6702   2.630   3.041   7.345 -0.6877  0.8291  1.0169
   75SLPC   C25 6703   2.450   3.151   7.363 -0.2311 -0.3195 -1.2453
   75SLPC   H5R 6704   2.389   3.058   7.355 -1.5584  0.2728  1.4396
   75SLPC   H5S 6705   2.390   3.238   7.328 -1.9231 -0.5013  1.0656
   75SLPC   C26 6706   2.475   3.167   7.512 -0.5627 -0.4986  0.5297
   75SLPC   H6R 6707   2.401   3.230   7.565 -0.2864  0.0352  0.2871
   75SLPC   H6S 6708   2.564   3.232   7.519 -0.6113 -0.5622  1.9063
   75SLPC   C27 6709   2.513   3.023   7.571  0.1540  0.3277  0.1042
   75SLPC   H7R 6710   2.617   2.997   7.541 -0.5787  0.4540 -2.6344
   75SLPC   H7S 6711   2.453   2.940   7.531  0.1520  0.1706  0.4267
   75SLPC   C28 6712   2.495   3.011   7.726  0.1330  0.0577  0.1733
   75SLPC   H8R 6713   2.578   3.068   7.773  2.1795 -1.1964 -1.8612
   75SLPC   H8S 6714   2.520   2.907   7.755  1.2480  0.3968  0.4673
   75SLPC   C29 6715   2.366   3.046   7.786  0.1321 -0.4680  0.5849
   75SLPC   H9R 6716   2.283   3.032   7.716  0.1562  1.6558  0.0973
   75SLPC  C210 6717   2.342   3.092   7.915  0.1805  0.3227  0.0446
   75SLPC  H10R 6718   2.237   3.098   7.949  0.4542  2.2388  0.6088
   75SLPC  C211 6719   2.458   3.109   8.013 -0.8972  0.3200  1.0001
   75SLPC  H11R 6720   2.527   3.191   7.985  0.8453 -0.8797  1.6710
   75SLPC  H11S 6721   2.526   3.022   7.996  0.0697  1.1815  0.3754
   75SLPC  C212 6722   2.431   3.122   8.156 -0.1610  0.4534 -0.7220
   75SLPC  H12R 6723   2.440   3.035   8.222  0.9077  1.3315  0.3192
   75SLPC  C213 6724   2.396   3.233   8.213  0.0283 -0.4070 -0.1881
   75SLPC  H13R 6725   2.379   3.227   8.322  0.9439 -0.2545 -0.0327
   75SLPC  C214 6726   2.371   3.361   8.134  0.0349  0.2565 -0.4811
   75SLPC  H14R 6727   2.262   3.381   8.131  0.0750  0.2899 -2.3866
   75SLPC  H14S 6728   2.387   3.350   8.025 -1.2481 -2.6245 -0.4115
   75SLPC  C215 6729   2.433   3.490   8.191  0.4311  0.3153 -0.5985
   75SLPC  H15R 6730   2.543   3.475   8.197  0.3632 -0.1360 -0.4516
   75SLPC  H15S 6731   2.410   3.500   8.299 -0.2164 -1.2040 -0.5917
   75SLPC  C216 6732   2.392   3.621   8.129 -0.6011 -0.2322  0.0859
   75SLPC  H16R 6733   2.284   3.635   8.150 -0.8234  0.0940 -1.2837
   75SLPC  H16S 6734   2.388   3.611   8.019 -0.9409 -0.9867  0.1690
   75SLPC  C217 6735   2.473   3.745   8.168  0.4361 -0.7788 -0.6328
   75SLPC  H17R 6736   2.572   3.732   8.119  1.6879  1.0706  1.2936
   75SLPC  H17S 6737   2.484   3.749   8.279  0.3113  0.6529 -0.6623
   75SLPC  C218 6738   2.415   3.881   8.126 -0.7734  0.1878  0.3258
   75SLPC  H18R 6739   2.306   3.880   8.147 -0.6745 -2.6972  0.8426
   75SLPC  H18S 6740   2.413   3.892   8.016 -0.0818 -0.2904  0.2610
   75SLPC  H18T 6741   2.461   3.969   8.176 -2.2049  0.1964  1.6402
   75SLPC   C33 6742   2.943   2.580   6.838  0.2587  0.4722 -0.2216
   75SLPC   H3X 6743   3.045   2.609   6.803  1.1562 -1.6792  0.5553
   75SLPC   H3Y 6744   2.913   2.660   6.909 -0.4837  1.6669 -1.8514
   75SLPC   C34 6745   2.948   2.439   6.907 -1.2745 -0.5812  0.3563
   75SLPC   H4X 6746   3.033   2.384   6.860 -2.2988 -2.4474  0.6388
   75SLPC   H4Y 6747   2.854   2.385   6.887 -1.0659 -0.9762  0.4309
   75SLPC   C35 6748   2.992   2.435   7.054 -0.1094 -0.3852 -0.6051
   75SLPC   H5X 6749   3.086   2.491   7.074 -1.6249  1.8309  0.5583
   75SLPC   H5Y 6750   3.017   2.330   7.080  1.6008  0.2059  0.2695
   75SLPC   C36 6751   2.879   2.482   7.143  0.0685 -0.3475  0.2506
   75SLPC   H6X 6752   2.795   2.409   7.134 -0.8670  0.6079  1.0015
   75SLPC   H6Y 6753   2.840   2.584   7.124  1.1461  0.2130  1.0000
   75SLPC   C37 6754   2.919   2.478   7.293  0.1731  0.2257 -0.3539
   75SLPC   H7X 6755   3.014   2.536   7.300  0.0227  0.5983 -1.4094
   75SLPC   H7Y 6756   2.951   2.377   7.325 -0.2021 -0.2469 -1.4415
   75SLPC   C38 6757   2.816   2.513   7.394  0.0279 -0.2852 -0.0936
   75SLPC   H8X 6758   2.736   2.436   7.381 -1.8568  1.4011  1.1147
   75SLPC   H8Y 6759   2.789   2.620   7.383 -0.5841 -0.1177  2.5940
   75SLPC   C39 6760   2.863   2.493   7.547 -0.1414  0.6576 -0.2691
   75SLPC   H9X 6761   2.946   2.566   7.560 -0.0583  0.5233 -0.0306
   75SLPC   H9Y 6762   2.923   2.402   7.566 -1.0622  0.0818 -0.0717
   75SLPC  C310 6763   2.756   2.519   7.657  0.2211  0.0257  0.7926
   75SLPC  H10X 6764   2.663   2.461   7.640  0.6551 -0.6416  0.6737
   75SLPC  H10Y 6765   2.725   2.625   7.642 -1.2381 -0.4516  0.3309
   75SLPC  C311 6766   2.814   2.518   7.799 -0.0023 -0.1895 -0.7980
   75SLPC  H11X 6767   2.908   2.575   7.818  0.3990 -2.0597  3.2820
   75SLPC  H11Y 6768   2.833   2.410   7.814 -1.7524 -0.2708  1.1557
   75SLPC  C312 6769   2.706   2.558   7.894 -0.5493 -0.0516 -0.6463
   75SLPC  H12X 6770   2.624   2.486   7.873 -1.7499  0.9347  0.5586
   75SLPC  H12Y 6771   2.665   2.658   7.867  0.5519  0.5280 -0.1939
   75SLPC  C313 6772   2.767   2.558   8.031 -0.2509  0.1377 -0.8236
   75SLPC  H13X 6773   2.853   2.627   8.017 -0.6304  0.6295 -0.7319
   75SLPC  H13Y 6774   2.806   2.456   8.056 -1.9025 -0.4528 -0.5684
   75SLPC  C314 6775   2.679   2.617   8.139  0.2940  0.9825 -0.3270
   75SLPC  H14X 6776   2.580   2.630   8.090  0.8667  1.2916 -1.4240
   75SLPC  H14Y 6777   2.706   2.721   8.165 -0.0289  0.9375  0.2002
   75SLPC  C315 6778   2.671   2.544   8.278 -0.1616 -0.2440  0.0267
   75SLPC  H15X 6779   2.636   2.445   8.241  1.3943  0.0752 -2.4572
   75SLPC  H15Y 6780   2.597   2.603   8.336 -1.9057 -2.5453  0.2405
   75SLPC  C316 6781   2.805   2.522   8.345 -0.6613 -0.2304  0.1105
   75SLPC  H16X 6782   2.895   2.547   8.286 -1.1066  3.9925  1.1023
   75SLPC  H16Y 6783   2.810   2.412   8.365 -1.0616 -0.6226 -1.8904
   75SLPC  C317 6784   2.821   2.604   8.473  0.0065 -0.0090 -0.1814
   75SLPC  H17X 6785   2.756   2.565   8.554 -1.5895 -0.1363 -1.4973
   75SLPC  H17Y 6786   2.784   2.709   8.474 -1.2968 -0.4596 -1.0593
   75SLPC  C318 6787   2.965   2.610   8.527 -0.3125  0.4356  0.6309
   75SLPC  H18X 6788   2.998   2.504   8.525 -0.1054  0.4777  1.7131
   75SLPC  H18Y 6789   2.966   2.657   8.627 -1.3437 -0.2493  0.9768
   75SLPC  H18Z 6790   3.028   2.676   8.464  0.0083  0.7133  1.2409
   76SLPC     N 6791   4.540   1.569   6.260 -0.0947 -0.7263 -0.1256
   76SLPC   C13 6792   4.542   1.701   6.189  0.0672  0.7159  0.0701
   76SLPC  H13A 6793   4.584   1.696   6.090 -1.1588  1.1758 -0.4831
   76SLPC  H13B 6794   4.443   1.733   6.162 -0.9763 -1.0645  1.6626
   76SLPC  H13C 6795   4.596   1.781   6.238  2.1052  0.1591 -1.1999
   76SLPC   C14 6796   4.445   1.481   6.180  0.8412 -0.6924 -0.0716
   76SLPC  H14A 6797   4.475   1.380   6.205  1.2545 -0.0239  2.2022
   76SLPC  H14B 6798   4.340   1.499   6.200  0.4380 -0.6545 -2.0877
   76SLPC  H14C 6799   4.458   1.507   6.076  3.0113  0.7885  0.5318
   76SLPC   C15 6800   4.493   1.604   6.394 -0.3862 -0.1977 -0.1298
   76SLPC  H15A 6801   4.391   1.638   6.385  0.3147  1.9222 -0.4290
   76SLPC  H15B 6802   4.500   1.525   6.466  0.6592  1.1864  1.3189
   76SLPC  H15C 6803   4.555   1.678   6.443 -0.7637 -1.5366  2.4387
   76SLPC   C12 6804   4.680   1.507   6.267  0.9319 -0.3294 -0.5311
   76SLPC  H12A 6805   4.735   1.589   6.310  2.0286 -1.1076 -0.4278
   76SLPC  H12B 6806   4.720   1.494   6.167 -0.0452 -1.1050 -0.8323
   76SLPC   C11 6807   4.698   1.374   6.342  0.0251 -0.4834  0.2105
   76SLPC  H11A 6808   4.668   1.390   6.448  1.7446  1.0083  0.5038
   76SLPC  H11B 6809   4.805   1.343   6.340 -0.3194 -1.6451 -1.0712
   76SLPC     P 6810   4.671   1.172   6.164  0.4082 -0.1857 -0.1869
   76SLPC   O13 6811   4.597   1.183   6.036  0.1806  0.1677  0.5691
   76SLPC   O14 6812   4.816   1.185   6.147 -0.1640 -0.1259  0.4369
   76SLPC   O12 6813   4.616   1.275   6.273  0.1919 -0.3938  0.6910
   76SLPC   O11 6814   4.642   1.028   6.228 -0.3706 -0.4395 -0.5308
   76SLPC    C1 6815   4.749   0.965   6.302  0.1589  0.3466  0.0790
   76SLPC    HA 6816   4.759   0.863   6.261 -0.1206  0.7507 -1.0216
   76SLPC    HB 6817   4.852   1.007   6.291  0.2477  0.5524  1.6996
   76SLPC    C2 6818   4.716   0.954   6.445  0.5720  0.1890 -0.0159
   76SLPC    HS 6819   4.713   1.048   6.504  1.5446 -0.1482  0.5838
   76SLPC   O21 6820   4.809   0.859   6.513 -0.2987 -0.2651  0.1683
   76SLPC   C21 6821   4.912   0.923   6.570 -0.5149 -0.6145  0.3365
   76SLPC   O22 6822   4.935   1.040   6.565  0.1833  0.2835  0.2847
   76SLPC   C22 6823   5.014   0.819   6.619  0.6214 -0.0087 -0.2048
   76SLPC   H2R 6824   5.044   0.755   6.534  1.7875  0.4915 -0.1827
   76SLPC   H2S 6825   5.108   0.864   6.658 -0.8876  1.6861  1.5610
   76SLPC    C3 6826   4.577   0.889   6.464  0.5614 -0.6826 -0.3635
   76SLPC    HX 6827   4.578   0.798   6.401 -3.2935 -0.9468 -0.1350
   76SLPC    HY 6828   4.491   0.942   6.418  1.4771  1.4593  0.3392
   76SLPC   O31 6829   4.544   0.859   6.603  0.1760 -0.0928  0.6272
   76SLPC   C31 6830   4.513   0.966   6.672  0.3405  0.2729 -0.0703
   76SLPC   O32 6831   4.522   1.083   6.641 -0.1394  0.0465 -0.0369
   76SLPC   C32 6832   4.450   0.920   6.806 -0.4089 -0.3063 -0.2634
   76SLPC   H2X 6833   4.347   0.879   6.804 -0.0923 -1.4954  3.7213
   76SLPC   H2Y 6834   4.453   1.016   6.861 -1.2587  0.5393 -1.6583
   76SLPC   C23 6835   4.954   0.728   6.726 -0.0770  0.2415 -0.4242
   76SLPC   H3R 6836   5.000   0.627   6.731 -0.6949  0.0651  2.1559
   76SLPC   H3S 6837   4.849   0.701   6.703  0.4699 -2.1087 -0.2757
   76SLPC   C24 6838   4.979   0.774   6.872  0.3375 -0.3865  0.0796
   76SLPC   H4R 6839   4.947   0.880   6.884  1.2246 -0.2019  0.9726
   76SLPC   H4S 6840   5.089   0.778   6.886  0.4311 -0.4136 -0.6458
   76SLPC   C25 6841   4.912   0.675   6.963  0.1923 -0.4422  0.2581
   76SLPC   H5R 6842   4.954   0.577   6.932  1.5290  0.7112 -1.6608
   76SLPC   H5S 6843   4.803   0.664   6.943  0.2375  0.9153 -0.8122
   76SLPC   C26 6844   4.936   0.700   7.116 -0.2620 -0.6234 -0.5878
   76SLPC   H6R 6845   4.926   0.808   7.137 -1.3960 -0.5130 -1.6527
   76SLPC   H6S 6846   5.044   0.679   7.134  0.3085  2.1929 -0.5103
   76SLPC   C27 6847   4.852   0.610   7.207 -0.4249 -0.4297 -0.1356
   76SLPC   H7R 6848   4.754   0.614   7.153  1.9170 -0.3451 -4.6420
   76SLPC   H7S 6849   4.839   0.658   7.306  0.2799  0.8119 -0.6321
   76SLPC   C28 6850   4.888   0.463   7.227  0.2470 -0.5156  0.1778
   76SLPC   H8R 6851   4.804   0.401   7.264  0.0927  0.2472  1.1174
   76SLPC   H8S 6852   4.918   0.425   7.127 -0.3612 -0.9642  0.1638
   76SLPC   C29 6853   5.001   0.454   7.330 -0.3390 -0.3898 -0.3824
   76SLPC   H9R 6854   5.103   0.450   7.290 -0.6627 -2.1262 -1.0629
   76SLPC  C210 6855   4.992   0.448   7.463 -0.6609 -0.1037 -0.9690
   76SLPC  H10R 6856   5.080   0.438   7.528 -1.0671 -3.3102 -0.8105
   76SLPC  C211 6857   4.859   0.447   7.543  0.2847  0.3486  0.2834
   76SLPC  H11R 6858   4.873   0.373   7.624 -1.7648 -0.9992 -0.5758
   76SLPC  H11S 6859   4.777   0.396   7.489  2.4842 -2.3439 -0.6501
   76SLPC  C212 6860   4.796   0.577   7.597  0.0009 -1.0207 -0.8639
   76SLPC  H12R 6861   4.707   0.615   7.544  0.2310  0.7599 -0.0150
   76SLPC  C213 6862   4.837   0.639   7.711  0.0717 -0.2929  0.2897
   76SLPC  H13R 6863   4.801   0.735   7.751  2.3003 -1.0947  4.4757
   76SLPC  C214 6864   4.951   0.585   7.799  0.0011  0.0946  0.3468
   76SLPC  H14R 6865   5.036   0.655   7.809  0.8771 -0.7652 -0.9626
   76SLPC  H14S 6866   4.991   0.493   7.751 -1.6217 -1.1249  1.2578
   76SLPC  C215 6867   4.897   0.543   7.937 -1.1300 -0.3356 -0.2388
   76SLPC  H15R 6868   4.842   0.617   7.999  1.9815  2.5007 -0.7349
   76SLPC  H15S 6869   4.980   0.518   8.007 -1.1222 -0.5341 -0.3196
   76SLPC  C216 6870   4.817   0.408   7.948 -0.1064 -0.5773 -0.2958
   76SLPC  H16R 6871   4.873   0.323   7.904 -0.7843 -1.3630  0.3371
   76SLPC  H16S 6872   4.721   0.419   7.894  0.3337  1.0451 -0.7772
   76SLPC  C217 6873   4.780   0.376   8.090  0.0051 -0.3649 -0.5541
   76SLPC  H17R 6874   4.688   0.313   8.095 -0.5411  0.5626  1.4277
   76SLPC  H17S 6875   4.751   0.470   8.140 -1.7312 -2.0091  1.6527
   76SLPC  C218 6876   4.888   0.302   8.156 -0.4326  0.0724 -0.5651
   76SLPC  H18R 6877   4.903   0.199   8.118  1.8746  0.1908 -0.0570
   76SLPC  H18S 6878   4.868   0.283   8.264  0.5333 -0.8741 -0.5447
   76SLPC  H18T 6879   4.990   0.347   8.147 -0.9503  1.0288 -1.7749
   76SLPC   C33 6880   4.541   0.822   6.886 -0.0108 -0.2795  0.3880
   76SLPC   H3X 6881   4.645   0.858   6.880  0.1651 -0.7478  0.5762
   76SLPC   H3Y 6882   4.533   0.724   6.834 -2.0202  0.5433 -0.9296
   76SLPC   C34 6883   4.505   0.816   7.035 -0.3038  0.4441  0.2924
   76SLPC   H4X 6884   4.544   0.721   7.076  0.9728  1.8624  2.4728
   76SLPC   H4Y 6885   4.395   0.829   7.046 -0.2580  0.3340  0.8689
   76SLPC   C35 6886   4.582   0.929   7.118 -0.7622 -0.2827  0.1475
   76SLPC   H5X 6887   4.570   1.030   7.073 -0.2220 -0.0145  0.6077
   76SLPC   H5Y 6888   4.690   0.904   7.122 -0.8133 -0.2992  2.0477
   76SLPC   C36 6889   4.533   0.947   7.268 -0.2846  0.8573 -0.3423
   76SLPC   H6X 6890   4.425   0.972   7.268 -0.7789 -1.1528  1.2541
   76SLPC   H6Y 6891   4.577   1.034   7.321  3.3981 -1.0620 -0.0394
   76SLPC   C37 6892   4.556   0.821   7.349  0.5184 -0.3539 -0.4288
   76SLPC   H7X 6893   4.662   0.808   7.380  1.5333  3.7317 -1.8943
   76SLPC   H7Y 6894   4.518   0.730   7.297  0.2380 -0.4929  0.0089
   76SLPC   C38 6895   4.487   0.823   7.482  0.7651 -0.3088 -0.9824
   76SLPC   H8X 6896   4.490   0.722   7.528  0.6988  0.2461  0.2788
   76SLPC   H8Y 6897   4.381   0.850   7.459  0.3030 -0.7861  0.5242
   76SLPC   C39 6898   4.545   0.915   7.593  0.1454 -0.1396  0.3763
   76SLPC   H9X 6899   4.559   1.020   7.562 -1.8041 -0.0127 -0.1185
   76SLPC   H9Y 6900   4.646   0.873   7.614 -0.1832 -0.5612  1.1572
   76SLPC  C310 6901   4.459   0.918   7.717 -0.1121  0.5199  0.2919
   76SLPC  H10X 6902   4.430   0.815   7.749 -0.7131  1.6130  3.4294
   76SLPC  H10Y 6903   4.363   0.972   7.705  0.4287  1.7270  1.3079
   76SLPC  C311 6904   4.516   0.972   7.848 -0.3039  0.4291  0.3128
   76SLPC  H11X 6905   4.552   1.075   7.827  1.9818 -0.6282 -1.1200
   76SLPC  H11Y 6906   4.592   0.900   7.886  0.4530  0.2610 -1.5034
   76SLPC  C312 6907   4.405   0.992   7.958  0.1559 -0.3830 -0.1077
   76SLPC  H12X 6908   4.365   0.889   7.968 -0.0933 -0.3413 -0.6691
   76SLPC  H12Y 6909   4.335   1.069   7.922  0.5959 -1.1947 -2.8529
   76SLPC  C313 6910   4.477   1.036   8.086 -0.3511 -0.5185 -1.1091
   76SLPC  H13X 6911   4.554   0.959   8.108 -0.1696 -0.0046  0.1094
   76SLPC  H13Y 6912   4.399   1.042   8.165  0.7845  0.2115 -0.0105
   76SLPC  C314 6913   4.548   1.174   8.077 -0.0960  0.6846 -0.3768
   76SLPC  H14X 6914   4.471   1.242   8.032  0.2321  0.6656 -0.9784
   76SLPC  H14Y 6915   4.630   1.169   8.001 -1.6531 -0.6487 -2.0006
   76SLPC  C315 6916   4.598   1.236   8.208  0.1095  0.3626  1.2723
   76SLPC  H15X 6917   4.641   1.335   8.180  1.0545 -0.0721  1.1366
   76SLPC  H15Y 6918   4.680   1.174   8.249 -1.0052 -1.2985  1.0322
   76SLPC  C316 6919   4.495   1.246   8.316 -0.0030 -0.1490 -0.2006
   76SLPC  H16X 6920   4.472   1.143   8.352  1.8946  0.1362  1.9196
   76SLPC  H16Y 6921   4.408   1.286   8.259  0.8081  0.1024 -1.2884
   76SLPC  C317 6922   4.519   1.326   8.449  0.1432 -0.2722  0.6282
   76SLPC  H17X 6923   4.621   1.306   8.488  0.6376  2.7920  1.0391
   76SLPC  H17Y 6924   4.451   1.296   8.531  0.5380 -0.1411  1.0089
   76SLPC  C318 6925   4.519   1.479   8.435  0.0035 -0.0042 -0.6155
   76SLPC  H18X 6926   4.533   1.521   8.333  0.1088  0.5910 -0.3600
   76SLPC  H18Y 6927   4.607   1.503   8.497 -0.3483 -2.3859  0.8595
   76SLPC  H18Z 6928   4.429   1.521   8.484 -0.2933 -0.3360 -0.8730
   77SLPC     N 6929   0.968   0.920   6.363 -0.0583  0.0487 -0.2094
   77SLPC   C13 6930   0.828   0.981   6.361  0.1490  0.0719  0.4663
   77SLPC  H13A 6931   0.831   1.085   6.389 -0.5215 -0.2981  1.9405
   77SLPC  H13B 6932   0.782   0.966   6.264  0.6029  0.6992  0.1527
   77SLPC  H13C 6933   0.762   0.938   6.435 -0.0279 -1.2564 -0.4406
   77SLPC   C14 6934   1.057   0.973   6.255 -0.0796 -0.0985  0.1338
   77SLPC  H14A 6935   1.149   0.917   6.263 -1.3539 -2.1404  0.6579
   77SLPC  H14B 6936   1.009   0.975   6.158 -1.9342  0.5843  1.0533
   77SLPC  H14C 6937   1.080   1.076   6.279 -1.0982 -0.3344  2.1782
   77SLPC   C15 6938   0.957   0.773   6.328  0.1061 -0.5186  0.4454
   77SLPC  H15A 6939   1.043   0.714   6.357  1.1785  0.5771 -0.4540
   77SLPC  H15B 6940   0.864   0.740   6.370 -1.1934  0.8508 -1.2558
   77SLPC  H15C 6941   0.938   0.763   6.222  2.0701 -1.0517  0.1211
   77SLPC   C12 6942   1.033   0.938   6.496 -0.1652  0.3315 -0.2475
   77SLPC  H12A 6943   1.023   1.041   6.528 -0.4340  0.2341 -0.0159
   77SLPC  H12B 6944   1.140   0.922   6.494 -0.2070 -0.4042  1.9292
   77SLPC   C11 6945   0.979   0.855   6.615  0.8942 -0.2079 -0.0157
   77SLPC  H11A 6946   1.033   0.886   6.707  1.7006  1.7988 -1.1548
   77SLPC  H11B 6947   1.005   0.749   6.591  0.9072  0.5010 -3.3623
   77SLPC     P 6948   0.747   0.746   6.633  0.0449 -0.3519  0.2165
   77SLPC   O13 6949   0.615   0.803   6.650  0.1221 -0.7777 -0.0548
   77SLPC   O14 6950   0.777   0.656   6.518  0.2634  0.1312  0.2054
   77SLPC   O12 6951   0.842   0.875   6.636 -0.3007  0.5245  0.8620
   77SLPC   O11 6952   0.779   0.655   6.764  0.3368 -0.0872  0.4727
   77SLPC    C1 6953   0.814   0.733   6.884  0.1405  0.1310  0.2806
   77SLPC    HA 6954   0.851   0.667   6.965  0.2422  1.0810  1.0155
   77SLPC    HB 6955   0.899   0.804   6.872 -0.8258  1.3155  0.3070
   77SLPC    C2 6956   0.688   0.801   6.956 -0.5627 -0.8110  0.2929
   77SLPC    HS 6957   0.643   0.883   6.896  0.8329 -0.5230 -0.3797
   77SLPC   O21 6958   0.726   0.844   7.089  0.5486  0.2487  0.3194
   77SLPC   C21 6959   0.795   0.963   7.090  0.1402  0.4173 -0.7788
   77SLPC   O22 6960   0.810   1.030   6.985 -0.2042  0.2000 -0.2935
   77SLPC   C22 6961   0.859   0.984   7.229 -0.7953 -0.6170  0.2063
   77SLPC   H2R 6962   0.784   1.031   7.296  0.6289  0.5600  1.0083
   77SLPC   H2S 6963   0.887   0.888   7.276 -0.1866  0.0814  1.2848
   77SLPC    C3 6964   0.588   0.683   6.971  1.0369  0.2781  0.3312
   77SLPC    HX 6965   0.637   0.618   7.047  2.3751  0.8707 -0.0133
   77SLPC    HY 6966   0.578   0.626   6.876  2.0862  2.2319 -0.9964
   77SLPC   O31 6967   0.469   0.737   7.025  0.4582  0.3722  0.1104
   77SLPC   C31 6968   0.354   0.718   6.962  0.4076 -0.3808 -0.2494
   77SLPC   O32 6969   0.344   0.648   6.862  0.0049  0.3636 -0.5114
   77SLPC   C32 6970   0.235   0.779   7.039 -0.4114  0.5158 -0.6822
   77SLPC   H2X 6971   0.241   0.886   7.010 -0.4064  0.6745 -0.0876
   77SLPC   H2Y 6972   0.265   0.768   7.145 -0.1092  1.1466 -0.7008
   77SLPC   C23 6973   0.986   1.052   7.211  0.1290  0.0909 -0.0471
   77SLPC   H3R 6974   0.978   1.160   7.186 -1.6004 -0.2542 -1.0819
   77SLPC   H3S 6975   1.047   1.005   7.132  0.5905  0.6223 -0.0115
   77SLPC   C24 6976   1.070   1.046   7.340  0.3372 -0.1481 -0.3587
   77SLPC   H4R 6977   1.169   1.093   7.319  0.9791 -0.2429  2.2609
   77SLPC   H4S 6978   1.093   0.939   7.359  1.2482 -0.2131 -1.7277
   77SLPC   C25 6979   1.002   1.101   7.462  0.8008 -0.0883 -0.1515
   77SLPC   H5R 6980   0.905   1.053   7.490 -0.3672  0.8620 -2.4375
   77SLPC   H5S 6981   0.975   1.207   7.445 -1.5174 -0.5316  0.4684
   77SLPC   C26 6982   1.092   1.102   7.588 -0.1693 -0.1117 -0.2469
   77SLPC   H6R 6983   1.188   1.151   7.561  0.6732 -1.4713  0.2566
   77SLPC   H6S 6984   1.111   1.000   7.625 -0.7464 -0.6021 -1.2690
   77SLPC   C27 6985   1.026   1.179   7.702  0.0991 -0.7470 -0.7100
   77SLPC   H7R 6986   1.029   1.290   7.698  0.1135 -0.7546 -0.9127
   77SLPC   H7S 6987   1.097   1.139   7.777 -0.1067  0.6972  0.2867
   77SLPC   C28 6988   0.895   1.118   7.742 -0.1419 -0.6533 -0.2556
   77SLPC   H8R 6989   0.908   1.009   7.723 -0.7993 -0.7132 -0.3642
   77SLPC   H8S 6990   0.811   1.158   7.681  0.3041 -0.8074 -0.9887
   77SLPC   C29 6991   0.867   1.164   7.879 -0.5628 -0.4898 -0.6262
   77SLPC   H9R 6992   0.808   1.256   7.896 -1.8036 -0.9989 -2.0653
   77SLPC  C210 6993   0.878   1.089   7.992 -0.3963  0.2210  0.0701
   77SLPC  H10R 6994   0.868   1.142   8.088  1.2912  1.6028 -0.4953
   77SLPC  C211 6995   0.918   0.943   8.019 -0.3869 -0.2787 -0.7129
   77SLPC  H11R 6996   0.883   0.893   8.112 -1.0596  1.6269  0.0897
   77SLPC  H11S 6997   1.028   0.943   8.039 -0.3893  0.3860 -0.6725
   77SLPC  C212 6998   0.889   0.846   7.909 -0.0419 -0.3820 -0.8582
   77SLPC  H12R 6999   0.802   0.865   7.844  0.2166 -0.6294 -1.2818
   77SLPC  C213 7000   0.961   0.738   7.882 -0.2328  0.4578  0.2586
   77SLPC  H13R 7001   0.940   0.673   7.796  0.6991  0.0560  0.3264
   77SLPC  C214 7002   1.086   0.682   7.958 -0.0952  0.1974 -0.2440
   77SLPC  H14R 7003   1.100   0.729   8.058  2.5291  0.1945 -0.5694
   77SLPC  H14S 7004   1.183   0.722   7.920  0.0682  0.4872  0.4597
   77SLPC  C215 7005   1.075   0.527   7.984 -0.2176 -0.0956 -0.1426
   77SLPC  H15R 7006   0.991   0.497   8.050  0.9271  0.3675  1.5469
   77SLPC  H15S 7007   1.159   0.510   8.055 -0.4350  0.6651  0.3119
   77SLPC  C216 7008   1.102   0.431   7.871 -0.3123 -0.9210  0.0895
   77SLPC  H16R 7009   1.189   0.471   7.814 -0.4578  2.4178  2.0851
   77SLPC  H16S 7010   1.013   0.425   7.806  0.2682 -1.0817 -0.6994
   77SLPC  C217 7011   1.126   0.293   7.938 -0.4351  0.2377  0.1811
   77SLPC  H17R 7012   1.056   0.278   8.023  0.2144  1.5831  0.9800
   77SLPC  H17S 7013   1.229   0.288   7.979  0.0292 -0.2644 -1.0177
   77SLPC  C218 7014   1.098   0.178   7.846  0.3735  0.0691  0.4884
   77SLPC  H18R 7015   1.093   0.085   7.907 -2.6540  0.2917  0.6365
   77SLPC  H18S 7016   1.170   0.169   7.761 -0.0226 -0.0078  0.1606
   77SLPC  H18T 7017   1.004   0.194   7.789  1.4365 -1.4032 -1.7521
   77SLPC   C33 7018   0.098   0.739   6.987  0.6457  0.1634 -0.1132
   77SLPC   H3X 7019   0.086   0.725   6.878 -0.1026 -1.3875  0.1535
   77SLPC   H3Y 7020   0.038   0.831   7.004 -0.2522 -0.6540  1.3173
   77SLPC   C34 7021   0.032   0.622   7.058 -0.7401  0.2705 -0.6318
   77SLPC   H4X 7022   0.102   0.538   7.076 -0.3186  0.6873 -0.3449
   77SLPC   H4Y 7023  -0.046   0.574   6.994  1.1932 -2.6708 -0.9047
   77SLPC   C35 7024  -0.033   0.663   7.194 -0.4434  0.3128  0.5186
   77SLPC   H5X 7025  -0.104   0.743   7.164  2.8662  3.7499  1.3583
   77SLPC   H5Y 7026   0.033   0.709   7.271 -2.2663  0.2018  2.2098
   77SLPC   C36 7027  -0.104   0.544   7.263  0.3887 -0.0885 -1.1431
   77SLPC   H6X 7028  -0.025   0.477   7.302  1.2051  1.6403  0.2647
   77SLPC   H6Y 7029  -0.153   0.482   7.186 -1.2492  0.0096 -0.2045
   77SLPC   C37 7030  -0.195   0.575   7.384 -0.3598 -0.2946  0.0482
   77SLPC   H7X 7031  -0.300   0.595   7.352 -0.2989  0.6940  0.4496
   77SLPC   H7Y 7032  -0.162   0.664   7.443  0.0896 -0.2624 -0.2515
   77SLPC   C38 7033  -0.199   0.460   7.486 -0.4546  0.4090  0.0379
   77SLPC   H8X 7034  -0.117   0.472   7.561 -0.0685  0.0826 -0.3299
   77SLPC   H8Y 7035  -0.199   0.361   7.435 -3.6946  1.1581 -1.4766
   77SLPC   C39 7036  -0.329   0.477   7.577 -0.3622  0.2420 -0.1109
   77SLPC   H9X 7037  -0.416   0.454   7.512  0.3177  0.4693 -1.1135
   77SLPC   H9Y 7038  -0.331   0.576   7.627 -1.4666 -0.0752  0.4741
   77SLPC  C310 7039  -0.339   0.366   7.689  0.6800 -0.2761  0.3938
   77SLPC  H10X 7040  -0.278   0.282   7.648 -0.2078 -1.0046  0.5425
   77SLPC  H10Y 7041  -0.443   0.328   7.693  0.4250  0.3764  0.0137
   77SLPC  C311 7042  -0.291   0.409   7.826  0.3588  0.1374  0.4516
   77SLPC  H11X 7043  -0.345   0.501   7.856  1.0724  0.8096 -0.3219
   77SLPC  H11Y 7044  -0.182   0.430   7.816  0.2014  1.5051  1.5978
   77SLPC  C312 7045  -0.317   0.290   7.923 -0.0690 -0.4083 -0.3151
   77SLPC  H12X 7046  -0.425   0.263   7.924 -0.6396  1.7235  1.5861
   77SLPC  H12Y 7047  -0.301   0.339   8.021  1.9147  2.1202 -1.8397
   77SLPC  C313 7048  -0.231   0.164   7.904  0.0222  0.0028  0.0739
   77SLPC  H13X 7049  -0.128   0.200   7.881 -0.1905  1.8653  1.8663
   77SLPC  H13Y 7050  -0.259   0.109   7.811 -2.1890  2.6093 -0.8526
   77SLPC  C314 7051  -0.213   0.090   8.037  0.3981 -0.0984 -0.5753
   77SLPC  H14X 7052  -0.304   0.107   8.099  1.9277  1.1109  1.4102
   77SLPC  H14Y 7053  -0.126   0.125   8.096 -0.4125 -0.3806  0.8244
   77SLPC  C315 7054  -0.194  -0.065   8.027 -0.2405  0.8130  0.4287
   77SLPC  H15X 7055  -0.107  -0.073   7.959  0.0646  0.5976  0.8375
   77SLPC  H15Y 7056  -0.284  -0.112   7.982 -0.4174  1.6235 -0.0650
   77SLPC  C316 7057  -0.169  -0.140   8.164  0.2139 -0.8636  0.5519
   77SLPC  H16X 7058  -0.098  -0.078   8.223 -0.6000 -0.6971  1.3588
   77SLPC  H16Y 7059  -0.116  -0.232   8.130  1.0031 -0.5757  0.9920
   77SLPC  C317 7060  -0.295  -0.158   8.240  0.5392  0.8413 -0.4269
   77SLPC  H17X 7061  -0.371  -0.205   8.174  0.5866  0.7335 -0.4059
   77SLPC  H17Y 7062  -0.325  -0.056   8.270  0.7190  0.2482  1.8387
   77SLPC  C318 7063  -0.291  -0.247   8.371 -0.0674 -0.4418  0.3009
   77SLPC  H18X 7064  -0.190  -0.224   8.413  0.1455  2.4241 -1.6139
   77SLPC  H18Y 7065  -0.293  -0.352   8.335 -0.7281  0.1344 -1.4414
   77SLPC  H18Z 7066  -0.360  -0.219   8.453  0.3756 -0.1714  0.5856
   78SLPC     N 7067   2.767   1.710   5.855 -0.4359 -0.4649 -0.0848
   78SLPC   C13 7068   2.807   1.569   5.880 -0.3220  0.1106  0.1483
   78SLPC  H13A 7069   2.911   1.552   5.859 -0.5301 -1.4847  0.3639
   78SLPC  H13B 7070   2.780   1.528   5.977  0.5520  1.4750  0.9943
   78SLPC  H13C 7071   2.759   1.504   5.809 -1.6815  1.1314  0.1065
   78SLPC   C14 7072   2.618   1.712   5.871  0.2664  0.2149 -0.3768
   78SLPC  H14A 7073   2.581   1.650   5.790  0.8555  1.0924 -1.3370
   78SLPC  H14B 7074   2.596   1.690   5.974 -0.3462  1.5121 -0.2256
   78SLPC  H14C 7075   2.570   1.806   5.848 -0.5819 -0.3023 -0.7782
   78SLPC   C15 7076   2.810   1.749   5.712 -0.0793 -0.0198 -0.2385
   78SLPC  H15A 7077   2.917   1.749   5.701  0.0823 -0.1810  1.2968
   78SLPC  H15B 7078   2.751   1.683   5.649 -0.8003  1.7772 -1.4983
   78SLPC  H15C 7079   2.776   1.850   5.694  2.0461  0.7804  0.0876
   78SLPC   C12 7080   2.839   1.799   5.960  0.4491  0.2322 -0.5910
   78SLPC  H12A 7081   2.838   1.896   5.914 -1.5831  1.9245  2.8147
   78SLPC  H12B 7082   2.939   1.761   5.978  0.6314  1.2393  0.5629
   78SLPC   C11 7083   2.781   1.808   6.109 -0.7801  0.4904  0.0451
   78SLPC  H11A 7084   2.681   1.854   6.096 -1.2359  0.4784  3.1848
   78SLPC  H11B 7085   2.832   1.879   6.178  0.4719 -0.8381  0.5238
   78SLPC     P 7086   2.907   1.625   6.247  0.0642 -0.0850 -0.1605
   78SLPC   O13 7087   2.999   1.553   6.160  0.4914  0.0046 -0.3169
   78SLPC   O14 7088   2.962   1.736   6.328 -0.4597  0.1342  0.0661
   78SLPC   O12 7089   2.783   1.674   6.162 -0.2592  0.2338 -0.4468
   78SLPC   O11 7090   2.844   1.522   6.341  0.3168  0.0127 -0.1493
   78SLPC    C1 7091   2.739   1.556   6.433  0.4872 -0.0800  0.2533
   78SLPC    HA 7092   2.723   1.666   6.433 -0.5055 -0.2060 -1.0575
   78SLPC    HB 7093   2.641   1.513   6.404 -0.4955  0.7361  2.2737
   78SLPC    C2 7094   2.779   1.500   6.575  0.2472 -0.1075 -0.1688
   78SLPC    HS 7095   2.710   1.543   6.651 -0.0296 -0.8045 -0.0169
   78SLPC   O21 7096   2.920   1.509   6.607 -0.5442 -0.1917 -0.1103
   78SLPC   C21 7097   2.948   1.635   6.625 -0.1965 -0.7480 -0.0855
   78SLPC   O22 7098   2.866   1.724   6.647  0.2527  0.5641  0.2723
   78SLPC   C22 7099   3.096   1.658   6.605  0.6709 -0.1532 -0.5787
   78SLPC   H2R 7100   3.127   1.672   6.499 -0.4061  1.6779 -0.6869
   78SLPC   H2S 7101   3.110   1.753   6.661 -3.0016  1.0904 -1.6369
   78SLPC    C3 7102   2.752   1.347   6.578 -0.1369 -0.1216  0.0634
   78SLPC    HX 7103   2.811   1.292   6.503 -0.2832 -0.8192  0.4580
   78SLPC    HY 7104   2.643   1.329   6.561 -0.4322  0.8039  0.9030
   78SLPC   O31 7105   2.786   1.295   6.710 -0.1511 -0.3082  0.5780
   78SLPC   C31 7106   2.908   1.252   6.726 -0.6334  0.0303 -0.0123
   78SLPC   O32 7107   2.994   1.244   6.640 -0.0623  0.4414 -0.2536
   78SLPC   C32 7108   2.920   1.204   6.875  0.3064 -0.7705  0.1899
   78SLPC   H2X 7109   3.028   1.194   6.899  0.1531 -0.1654  1.1600
   78SLPC   H2Y 7110   2.886   1.098   6.879 -1.0744 -0.5271 -3.5590
   78SLPC   C23 7111   3.187   1.552   6.671  0.3946 -0.4358 -0.1359
   78SLPC   H3R 7112   3.285   1.571   6.623 -0.4776  0.8763 -1.4660
   78SLPC   H3S 7113   3.149   1.454   6.634  1.0351 -1.4871  1.9638
   78SLPC   C24 7114   3.187   1.547   6.817  0.2710 -0.3872  0.1319
   78SLPC   H4R 7115   3.082   1.546   6.851 -0.3169  2.4190 -1.4460
   78SLPC   H4S 7116   3.224   1.642   6.861 -2.9788  0.4169  1.2845
   78SLPC   C25 7117   3.281   1.438   6.863  0.2973 -0.3202  0.1522
   78SLPC   H5R 7118   3.379   1.462   6.817 -1.5935  1.0706 -3.3053
   78SLPC   H5S 7119   3.258   1.335   6.828  0.0939 -0.4710  0.7168
   78SLPC   C26 7120   3.284   1.437   7.016 -0.6249 -0.3559  0.5922
   78SLPC   H6R 7121   3.339   1.347   7.050 -2.6713 -1.2286  1.6938
   78SLPC   H6S 7122   3.177   1.431   7.045 -0.9101  0.7112 -0.2187
   78SLPC   C27 7123   3.341   1.560   7.086  0.1055  0.1671 -0.3333
   78SLPC   H7R 7124   3.267   1.640   7.064 -0.8747 -1.2552 -2.4112
   78SLPC   H7S 7125   3.439   1.590   7.041  0.5458  0.7473  0.9787
   78SLPC   C28 7126   3.347   1.552   7.239 -0.1159  0.2354  0.1296
   78SLPC   H8R 7127   3.415   1.469   7.265  0.4667 -0.0428 -2.1875
   78SLPC   H8S 7128   3.247   1.538   7.284 -0.8734 -0.9200 -1.8276
   78SLPC   C29 7129   3.407   1.676   7.307 -0.3739 -0.2577 -0.2690
   78SLPC   H9R 7130   3.400   1.763   7.239 -0.1125  0.5776  0.7670
   78SLPC  C210 7131   3.464   1.680   7.430 -0.0847  0.2742 -0.1676
   78SLPC  H10R 7132   3.515   1.775   7.449  1.7743 -1.0524  1.7525
   78SLPC  C211 7133   3.492   1.572   7.528  0.1213  0.4140  0.4844
   78SLPC  H11R 7134   3.596   1.598   7.557  0.1878 -0.4437  1.0356
   78SLPC  H11S 7135   3.477   1.469   7.489 -0.8846  0.2867  1.1777
   78SLPC  C212 7136   3.390   1.591   7.639  0.0974 -0.2869  0.8206
   78SLPC  H12R 7137   3.285   1.599   7.608 -0.3428 -0.2859  2.2450
   78SLPC  C213 7138   3.417   1.615   7.769  0.4775  0.6279  0.3116
   78SLPC  H13R 7139   3.327   1.638   7.828 -1.3480 -0.9679 -1.7544
   78SLPC  C214 7140   3.554   1.616   7.838  0.0454 -0.5750 -0.3733
   78SLPC  H14R 7141   3.599   1.717   7.826  1.3894 -1.2798 -1.2442
   78SLPC  H14S 7142   3.621   1.545   7.786 -0.8651 -1.2990 -0.5670
   78SLPC  C215 7143   3.540   1.599   7.991  0.2743 -0.4060 -0.1733
   78SLPC  H15R 7144   3.640   1.601   8.038 -1.4432  1.8080  3.6249
   78SLPC  H15S 7145   3.490   1.502   8.009 -1.3339  0.4605  0.1005
   78SLPC  C216 7146   3.450   1.698   8.073 -0.4361 -0.0386  0.3230
   78SLPC  H16R 7147   3.344   1.694   8.040 -0.3046  0.0656 -0.1198
   78SLPC  H16S 7148   3.489   1.800   8.053  0.2287 -0.7464 -2.1268
   78SLPC  C217 7149   3.456   1.668   8.223  1.2149  0.0751  0.0495
   78SLPC  H17R 7150   3.559   1.684   8.263  1.3049  2.0718 -0.9021
   78SLPC  H17S 7151   3.435   1.561   8.240  3.2733 -0.0668  2.0918
   78SLPC  C218 7152   3.348   1.742   8.304  0.4077  0.2351 -0.0146
   78SLPC  H18R 7153   3.390   1.768   8.404 -0.8577 -0.4923  0.7133
   78SLPC  H18S 7154   3.257   1.686   8.333  0.9799 -1.1667 -0.8937
   78SLPC  H18T 7155   3.308   1.837   8.263  1.1024 -0.0029 -1.2699
   78SLPC   C33 7156   2.848   1.304   6.969  0.1243  0.7532  0.6291
   78SLPC   H3X 7157   2.738   1.306   6.955  0.3735  0.7040 -1.5283
   78SLPC   H3Y 7158   2.890   1.404   6.945 -3.0702  1.4489 -2.3500
   78SLPC   C34 7159   2.874   1.264   7.116 -0.4763  0.3510  0.6006
   78SLPC   H4X 7160   2.984   1.270   7.133 -0.7132  1.2181  1.8721
   78SLPC   H4Y 7161   2.825   1.168   7.143 -0.1035  0.2033  0.7580
   78SLPC   C35 7162   2.817   1.380   7.207 -0.2015 -0.4017  0.0369
   78SLPC   H5X 7163   2.802   1.338   7.308 -0.5498  1.9157  0.9916
   78SLPC   H5Y 7164   2.712   1.408   7.182 -0.9367 -2.4190  0.8227
   78SLPC   C36 7165   2.913   1.502   7.212 -0.4325 -0.3155  0.3351
   78SLPC   H6X 7166   2.925   1.533   7.106 -1.0389 -1.8130 -0.1969
   78SLPC   H6Y 7167   3.013   1.477   7.251  0.2761  1.6880 -0.1580
   78SLPC   C37 7168   2.850   1.621   7.291 -0.5231  0.0933  0.4032
   78SLPC   H7X 7169   2.756   1.662   7.248  0.7750  1.8164 -0.9146
   78SLPC   H7Y 7170   2.920   1.707   7.282  0.9472 -1.2473 -1.5422
   78SLPC   C38 7171   2.839   1.589   7.438 -0.0052  0.0131  0.2182
   78SLPC   H8X 7172   2.937   1.573   7.487 -0.9050 -0.5365  1.8921
   78SLPC   H8Y 7173   2.782   1.494   7.443 -0.1470  0.0242 -1.1799
   78SLPC   C39 7174   2.754   1.697   7.508 -0.4478 -0.8619  0.6960
   78SLPC   H9X 7175   2.656   1.704   7.457 -1.5918  1.6533  3.1395
   78SLPC   H9Y 7176   2.804   1.795   7.494 -0.5186 -0.9674 -0.2883
   78SLPC  C310 7177   2.731   1.664   7.653  0.0844  0.4097 -0.4426
   78SLPC  H10X 7178   2.833   1.650   7.694  0.8441 -1.6291 -2.8631
   78SLPC  H10Y 7179   2.664   1.577   7.668  2.5567 -1.2332  1.6640
   78SLPC  C311 7180   2.665   1.782   7.727  0.3674  0.2886 -0.2089
   78SLPC  H11X 7181   2.562   1.803   7.690 -0.2999 -0.1857  1.3460
   78SLPC  H11Y 7182   2.727   1.874   7.718  0.3580  0.2937 -0.2233
   78SLPC  C312 7183   2.629   1.756   7.875  0.0165  0.2238 -0.6152
   78SLPC  H12X 7184   2.720   1.723   7.928  0.1988  1.2990 -0.2639
   78SLPC  H12Y 7185   2.565   1.665   7.888  0.4606  0.1321  1.0245
   78SLPC  C313 7186   2.579   1.881   7.946  0.3532 -0.1380  0.2487
   78SLPC  H13X 7187   2.483   1.909   7.898  0.0668  0.5797  1.2303
   78SLPC  H13Y 7188   2.646   1.970   7.941  0.7251 -0.4237  0.1341
   78SLPC  C314 7189   2.526   1.855   8.086 -0.2112  0.3865  0.1055
   78SLPC  H14X 7190   2.462   1.765   8.075  0.8756 -0.5955  1.6267
   78SLPC  H14Y 7191   2.458   1.934   8.125 -0.2605  0.2205  0.3593
   78SLPC  C315 7192   2.630   1.832   8.202  0.2150  0.5684  0.2971
   78SLPC  H15X 7193   2.723   1.889   8.183  1.7567 -0.4571  4.3324
   78SLPC  H15Y 7194   2.657   1.724   8.203  0.8598  0.6911 -1.4895
   78SLPC  C316 7195   2.579   1.867   8.341 -0.4295  0.3602 -0.6241
   78SLPC  H16X 7196   2.550   1.973   8.355  1.3247  0.6381  1.1305
   78SLPC  H16Y 7197   2.666   1.859   8.410 -0.7474  2.8539  0.1178
   78SLPC  C317 7198   2.481   1.764   8.402  0.4993 -0.4612 -0.5577
   78SLPC  H17X 7199   2.528   1.664   8.388 -0.2476 -0.7643 -0.9039
   78SLPC  H17Y 7200   2.398   1.774   8.329 -0.1969  0.4009  0.3346
   78SLPC  C318 7201   2.424   1.807   8.537  0.3810  0.0048  0.2826
   78SLPC  H18X 7202   2.506   1.833   8.606  0.3698  0.5705  0.0797
   78SLPC  H18Y 7203   2.375   1.715   8.576 -0.2486  0.4804  0.6177
   78SLPC  H18Z 7204   2.347   1.887   8.543  1.3318  0.9810 -0.5397
   79SLPC     N 7205   0.203   3.446   6.231 -0.0037  0.1227  0.2810
   79SLPC   C13 7206   0.171   3.472   6.084  0.4997 -0.8376 -0.2254
   79SLPC  H13A 7207   0.218   3.549   6.025  3.5667 -1.0786  1.7561
   79SLPC  H13B 7208   0.167   3.380   6.028  0.1437 -0.2654 -1.1320
   79SLPC  H13C 7209   0.070   3.510   6.083  0.6899 -0.2084  1.5858
   79SLPC   C14 7210   0.098   3.349   6.290 -0.1699  0.1321  0.2901
   79SLPC  H14A 7211   0.136   3.315   6.385 -0.1756  1.5754  0.8157
   79SLPC  H14B 7212  -0.001   3.392   6.286 -0.4845 -0.7134 -2.1515
   79SLPC  H14C 7213   0.104   3.265   6.222 -0.1862 -0.1313  0.6107
   79SLPC   C15 7214   0.196   3.576   6.302 -0.7732 -0.7608 -0.3856
   79SLPC  H15A 7215   0.195   3.563   6.409  0.4732 -1.9718 -0.5039
   79SLPC  H15B 7216   0.281   3.635   6.274 -1.6195 -0.0072 -1.3947
   79SLPC  H15C 7217   0.108   3.638   6.288 -1.8464 -1.9941  0.6559
   79SLPC   C12 7218   0.339   3.380   6.247  0.3665  0.7556 -0.1745
   79SLPC  H12A 7219   0.329   3.277   6.217  2.1031  1.1313 -2.1601
   79SLPC  H12B 7220   0.354   3.383   6.354 -0.6099  0.5512 -0.0284
   79SLPC   C11 7221   0.469   3.437   6.189  0.4319 -0.1023  0.5725
   79SLPC  H11A 7222   0.455   3.448   6.079 -1.9230  0.2732  0.8712
   79SLPC  H11B 7223   0.555   3.368   6.197 -0.2174 -1.0069 -0.1213
   79SLPC     P 7224   0.554   3.594   6.381 -0.0345 -0.0779 -0.1753
   79SLPC   O13 7225   0.694   3.534   6.381  0.4145 -0.0077  0.0230
   79SLPC   O14 7226   0.555   3.739   6.405  0.3557 -0.1440 -0.4004
   79SLPC   O12 7227   0.492   3.571   6.237 -0.7435 -0.5822 -0.7091
   79SLPC   O11 7228   0.461   3.508   6.475 -0.1731 -0.5753 -0.1451
   79SLPC    C1 7229   0.424   3.543   6.608  0.5980  0.1793  0.0745
   79SLPC    HA 7230   0.387   3.648   6.613  2.7592  1.2621 -4.2824
   79SLPC    HB 7231   0.335   3.485   6.641  0.1765  0.4418 -0.6004
   79SLPC    C2 7232   0.541   3.526   6.717  0.6542  0.1640 -0.3749
   79SLPC    HS 7233   0.630   3.582   6.681 -0.7235  2.6185 -0.1271
   79SLPC   O21 7234   0.578   3.389   6.726  0.4805 -0.0259 -0.3430
   79SLPC   C21 7235   0.698   3.358   6.755 -0.7704  0.3332 -0.4747
   79SLPC   O22 7236   0.789   3.439   6.767  0.0915 -0.2336 -0.5821
   79SLPC   C22 7237   0.708   3.205   6.790  1.2828  0.0278 -0.4309
   79SLPC   H2R 7238   0.632   3.194   6.871  0.1492 -0.9766 -1.6044
   79SLPC   H2S 7239   0.669   3.149   6.702  0.7343  0.5875 -0.5465
   79SLPC    C3 7240   0.494   3.595   6.851 -0.2811  0.6415  0.3454
   79SLPC    HX 7241   0.394   3.553   6.876  1.8829 -2.4388  4.3941
   79SLPC    HY 7242   0.466   3.702   6.836 -0.9784  0.5675  1.0750
   79SLPC   O31 7243   0.583   3.573   6.958 -0.3667 -0.2702 -0.7486
   79SLPC   C31 7244   0.684   3.658   6.972 -0.4394  0.3885 -0.5041
   79SLPC   O32 7245   0.704   3.751   6.890  0.3172  0.4399 -0.4893
   79SLPC   C32 7246   0.761   3.633   7.098 -0.5866  0.2423  0.3261
   79SLPC   H2X 7247   0.850   3.700   7.091  0.2678 -0.8999  0.2106
   79SLPC   H2Y 7248   0.789   3.526   7.096 -0.8172  0.1778  0.5323
   79SLPC   C23 7249   0.856   3.166   6.826 -0.2708  0.4270  0.4369
   79SLPC   H3R 7250   0.912   3.191   6.733  1.2400 -5.0844 -0.3306
   79SLPC   H3S 7251   0.857   3.055   6.823  0.3871  0.4500 -0.5756
   79SLPC   C24 7252   0.906   3.216   6.965  0.5111  0.6537  1.1248
   79SLPC   H4R 7253   0.879   3.323   6.978 -0.1028  0.4022  1.9273
   79SLPC   H4S 7254   1.015   3.196   6.975 -0.0844 -3.7124 -0.2402
   79SLPC   C25 7255   0.820   3.144   7.073 -0.8463  0.2992 -0.0521
   79SLPC   H5R 7256   0.824   3.035   7.048  1.6334  0.0599  1.2005
   79SLPC   H5S 7257   0.713   3.173   7.077 -1.3347 -1.2989 -0.7442
   79SLPC   C26 7258   0.886   3.147   7.209  0.2227  0.4491  0.7566
   79SLPC   H6R 7259   0.982   3.091   7.201 -1.3063 -2.3574  1.2048
   79SLPC   H6S 7260   0.832   3.084   7.283  1.0713  1.7910  2.5296
   79SLPC   C27 7261   0.907   3.284   7.279 -0.1875 -0.5967 -0.1121
   79SLPC   H7R 7262   0.815   3.346   7.284 -0.7863 -1.2415 -2.6243
   79SLPC   H7S 7263   0.977   3.354   7.228 -0.9447 -0.5098 -1.0572
   79SLPC   C28 7264   0.960   3.270   7.424  0.4817 -0.1936 -0.4429
   79SLPC   H8R 7265   0.996   3.372   7.450  1.3485 -0.5168 -0.3698
   79SLPC   H8S 7266   1.051   3.209   7.411  0.5890 -0.8132  2.6494
   79SLPC   C29 7267   0.866   3.228   7.531 -0.4327 -0.0888  0.0098
   79SLPC   H9R 7268   0.810   3.138   7.503 -2.2612  1.1473 -0.4134
   79SLPC  C210 7269   0.846   3.292   7.647 -0.2138  0.0417  0.2998
   79SLPC  H10R 7270   0.770   3.247   7.713 -0.8125 -0.8905 -1.0064
   79SLPC  C211 7271   0.920   3.418   7.695 -0.4296  0.5516  0.7749
   79SLPC  H11R 7272   0.853   3.478   7.760 -1.7110  0.5770 -0.5600
   79SLPC  H11S 7273   0.954   3.474   7.605  1.8205 -2.0068 -0.0385
   79SLPC  C212 7274   1.035   3.358   7.775 -0.3758  0.9114  0.6785
   79SLPC  H12R 7275   1.107   3.311   7.707 -0.7657  0.7429  0.3779
   79SLPC  C213 7276   1.062   3.363   7.906  1.0419 -0.4408 -0.7036
   79SLPC  H13R 7277   1.151   3.314   7.948  0.7743 -0.8699 -0.6330
   79SLPC  C214 7278   0.972   3.421   8.012 -0.6922  0.3109  0.2862
   79SLPC  H14R 7279   0.885   3.470   7.964 -1.3973 -0.8739  0.3234
   79SLPC  H14S 7280   1.024   3.501   8.069  3.3593 -1.3133 -0.9292
   79SLPC  C215 7281   0.917   3.311   8.107 -0.2852 -0.6359  0.5198
   79SLPC  H15R 7282   0.903   3.209   8.064  0.0649 -0.6292  0.3863
   79SLPC  H15S 7283   0.817   3.333   8.150 -0.8660 -1.6881 -0.2584
   79SLPC  C216 7284   0.996   3.291   8.238  0.6907  0.0722 -0.1636
   79SLPC  H16R 7285   0.948   3.213   8.301 -1.3347  0.2926 -1.3987
   79SLPC  H16S 7286   1.011   3.385   8.296  1.7161 -0.4754  0.5015
   79SLPC  C217 7287   1.137   3.232   8.220  0.2860 -0.4466 -0.4718
   79SLPC  H17R 7288   1.209   3.314   8.198  1.2589 -1.7565 -2.2400
   79SLPC  H17S 7289   1.145   3.153   8.143  1.1230  0.3006 -1.1566
   79SLPC  C218 7290   1.192   3.177   8.355  0.3044 -0.2625  0.1335
   79SLPC  H18R 7291   1.302   3.162   8.354  0.4257  0.3176  2.2842
   79SLPC  H18S 7292   1.140   3.080   8.368  0.3449 -0.6613 -2.4889
   79SLPC  H18T 7293   1.156   3.246   8.434  0.3249  1.0380 -0.9767
   79SLPC   C33 7294   0.689   3.674   7.229  0.2184  0.1667  0.2745
   79SLPC   H3X 7295   0.596   3.614   7.237 -1.3244  2.5871  1.1540
   79SLPC   H3Y 7296   0.656   3.780   7.219  1.9484  0.8311  1.2144
   79SLPC   C34 7297   0.785   3.672   7.352 -0.2952  0.4934  0.0806
   79SLPC   H4X 7298   0.872   3.739   7.334  0.1454  0.2271  1.1785
   79SLPC   H4Y 7299   0.826   3.570   7.366 -1.4162 -0.0802 -0.7527
   79SLPC   C35 7300   0.698   3.698   7.473  0.5180  0.0846 -0.2099
   79SLPC   H5X 7301   0.643   3.603   7.491 -0.5264  0.9737  1.4263
   79SLPC   H5Y 7302   0.613   3.769   7.461 -0.6459 -1.2261  0.0498
   79SLPC   C36 7303   0.783   3.735   7.589  0.4735  0.0597  0.5611
   79SLPC   H6X 7304   0.837   3.830   7.568  1.5958 -0.6212  0.3422
   79SLPC   H6Y 7305   0.866   3.662   7.596  0.8195  0.1601 -2.0038
   79SLPC   C37 7306   0.713   3.739   7.718  1.1166 -0.0488  0.6556
   79SLPC   H7X 7307   0.654   3.648   7.740  0.3992 -0.1058 -1.4051
   79SLPC   H7Y 7308   0.640   3.823   7.724 -0.5055 -1.4760  1.4606
   79SLPC   C38 7309   0.818   3.743   7.831  0.1250 -0.6022  0.4370
   79SLPC   H8X 7310   0.880   3.835   7.824 -1.0357 -0.0140 -2.3974
   79SLPC   H8Y 7311   0.894   3.663   7.818 -0.7216 -1.3456  0.0135
   79SLPC   C39 7312   0.747   3.738   7.970  0.0734 -0.6908 -0.7052
   79SLPC   H9X 7313   0.688   3.646   7.987 -0.3604 -0.5791 -1.5925
   79SLPC   H9Y 7314   0.664   3.813   7.972  0.7537  0.0375  1.8309
   79SLPC  C310 7315   0.826   3.781   8.095 -0.2544  0.2309 -0.2127
   79SLPC  H10X 7316   0.829   3.892   8.102 -2.4909  0.4331 -2.0935
   79SLPC  H10Y 7317   0.929   3.744   8.073  0.0550  0.4208  0.8877
   79SLPC  C311 7318   0.775   3.723   8.221  0.1560 -0.7466  0.2009
   79SLPC  H11X 7319   0.858   3.747   8.290 -0.2710 -0.1653  0.5143
   79SLPC  H11Y 7320   0.760   3.613   8.221  2.8148 -1.1384  0.9740
   79SLPC  C312 7321   0.649   3.780   8.282 -0.1559  0.1885  0.2484
   79SLPC  H12X 7322   0.578   3.747   8.203  0.1369  0.2756 -0.0533
   79SLPC  H12Y 7323   0.640   3.891   8.292 -0.4603  0.1744  0.1386
   79SLPC  C313 7324   0.612   3.716   8.417 -0.2175 -0.0891 -0.7078
   79SLPC  H13X 7325   0.687   3.727   8.499 -0.6033 -0.4732 -0.3047
   79SLPC  H13Y 7326   0.619   3.609   8.390  0.8876 -0.1617 -0.1566
   79SLPC  C314 7327   0.476   3.768   8.476  0.2998  0.1315 -0.0956
   79SLPC  H14X 7328   0.486   3.878   8.491 -1.1981  0.2269  0.3359
   79SLPC  H14Y 7329   0.463   3.730   8.580  0.2960  0.7803  0.1448
   79SLPC  C315 7330   0.357   3.731   8.380  0.4662 -0.2943 -0.0016
   79SLPC  H15X 7331   0.332   3.625   8.401  1.0282 -0.9760 -2.5799
   79SLPC  H15Y 7332   0.387   3.737   8.273 -0.0870 -0.7197 -0.1858
   79SLPC  C316 7333   0.230   3.807   8.405 -0.0486 -0.6775 -0.6825
   79SLPC  H16X 7334   0.152   3.789   8.328 -0.7829 -2.3742  0.4157
   79SLPC  H16Y 7335   0.261   3.911   8.379 -0.7861 -0.5044 -0.8897
   79SLPC  C317 7336   0.174   3.814   8.548  0.2719 -0.3788 -0.2984
   79SLPC  H17X 7337   0.253   3.847   8.618 -1.5299  1.0835  1.1065
   79SLPC  H17Y 7338   0.148   3.713   8.586  2.3397 -0.8244 -0.0434
   79SLPC  C318 7339   0.046   3.901   8.555  0.2296  0.1107  0.2673
   79SLPC  H18X 7340   0.054   4.001   8.506 -0.6279 -0.6165 -1.3832
   79SLPC  H18Y 7341   0.026   3.921   8.662  1.2943 -0.1572  0.5188
   79SLPC  H18Z 7342  -0.030   3.835   8.508  2.0278 -2.7909  1.3307
   80SLPC     N 7343   2.126   0.993   6.586 -0.3481 -0.3400 -0.5705
   80SLPC   C13 7344   2.219   0.948   6.694  0.0795  0.0353 -0.3258
   80SLPC  H13A 7345   2.225   0.841   6.691 -0.4680 -0.0209  0.4753
   80SLPC  H13B 7346   2.323   0.963   6.669 -0.0159  1.7964  0.2671
   80SLPC  H13C 7347   2.202   0.989   6.792 -0.8931 -0.8920 -0.1024
   80SLPC   C14 7348   2.104   1.142   6.605 -0.4823  0.4219 -0.1376
   80SLPC  H14A 7349   2.092   1.170   6.708  1.2062  1.6622 -0.2606
   80SLPC  H14B 7350   2.198   1.190   6.580 -0.0116 -0.7490 -0.6470
   80SLPC  H14C 7351   2.023   1.176   6.542 -0.6724 -2.0795 -1.3307
   80SLPC   C15 7352   1.998   0.927   6.620  0.1436 -0.8868  0.7674
   80SLPC  H15A 7353   1.967   0.953   6.720 -0.9059  3.2834 -0.5638
   80SLPC  H15B 7354   1.921   0.966   6.556 -0.5803 -0.9889  1.5697
   80SLPC  H15C 7355   1.996   0.822   6.593  0.9245 -1.0115  1.1708
   80SLPC   C12 7356   2.183   0.951   6.451  0.0145 -0.2245  0.1751
   80SLPC  H12A 7357   2.106   0.957   6.376  1.3493  1.6131 -1.1132
   80SLPC  H12B 7358   2.194   0.844   6.440  1.5133  0.0322 -0.9264
   80SLPC   C11 7359   2.305   1.033   6.397 -0.0752  0.0004  0.1109
   80SLPC  H11A 7360   2.350   0.992   6.304  0.4386 -2.0451  1.2318
   80SLPC  H11B 7361   2.383   1.039   6.476 -0.4986  0.8884  0.4693
   80SLPC     P 7362   2.342   1.302   6.335  0.5095  0.0674  0.1307
   80SLPC   O13 7363   2.489   1.276   6.352 -0.0278 -0.3337 -0.1442
   80SLPC   O14 7364   2.289   1.377   6.218 -0.0822 -1.1378 -0.0116
   80SLPC   O12 7365   2.260   1.165   6.357  0.3025  0.0455 -0.4213
   80SLPC   O11 7366   2.304   1.374   6.465 -0.0991 -0.0820 -0.2629
   80SLPC    C1 7367   2.332   1.506   6.490  0.4124  0.1423  0.6587
   80SLPC    HA 7368   2.441   1.524   6.496  0.4739 -0.6663  2.1860
   80SLPC    HB 7369   2.291   1.569   6.408  0.9566  1.2382  1.2210
   80SLPC    C2 7370   2.266   1.561   6.619  0.1040 -0.2540  0.4395
   80SLPC    HS 7371   2.317   1.656   6.646 -1.8352  1.7475 -2.5936
   80SLPC   O21 7372   2.272   1.466   6.723 -0.1568 -0.2058 -0.2830
   80SLPC   C21 7373   2.397   1.441   6.766  0.1249 -0.3428 -0.2572
   80SLPC   O22 7374   2.493   1.512   6.752  0.0803 -0.0317 -0.2116
   80SLPC   C22 7375   2.410   1.316   6.851  1.0847  0.0881  0.4189
   80SLPC   H2R 7376   2.327   1.242   6.853  1.7892 -0.7014  0.5047
   80SLPC   H2S 7377   2.497   1.265   6.804 -1.4598 -1.1233 -3.2208
   80SLPC    C3 7378   2.118   1.606   6.602  0.4955 -0.3219 -0.1617
   80SLPC    HX 7379   2.063   1.514   6.572 -0.1573  0.0537 -0.1187
   80SLPC    HY 7380   2.106   1.678   6.518  0.0403  1.0685  1.0773
   80SLPC   O31 7381   2.062   1.660   6.721 -0.0706 -0.0361  0.0269
   80SLPC   C31 7382   1.978   1.575   6.787  0.5095 -0.8623  0.8906
   80SLPC   O32 7383   1.946   1.459   6.745  0.1455 -0.1847  0.6785
   80SLPC   C32 7384   1.931   1.647   6.906 -0.3230  0.4358  0.3364
   80SLPC   H2X 7385   1.830   1.684   6.877 -1.0826 -1.4923  0.3924
   80SLPC   H2Y 7386   1.993   1.735   6.933  1.1482  0.2863 -2.4409
   80SLPC   C23 7387   2.440   1.350   6.996  0.5572  0.1985 -0.1724
   80SLPC   H3R 7388   2.511   1.434   7.011  1.4788 -0.6434  0.3390
   80SLPC   H3S 7389   2.489   1.257   7.034  3.9061  1.8109 -0.3455
   80SLPC   C24 7390   2.313   1.367   7.093 -1.2991 -0.3714 -0.5431
   80SLPC   H4R 7391   2.279   1.264   7.120  1.5843 -1.0777  0.6086
   80SLPC   H4S 7392   2.245   1.430   7.033  0.4988  0.2088 -2.0093
   80SLPC   C25 7393   2.363   1.436   7.219  0.2220 -0.0738 -0.3348
   80SLPC   H5R 7394   2.400   1.533   7.179  0.5982  0.0445  0.2840
   80SLPC   H5S 7395   2.456   1.392   7.259 -0.4592  0.1923  1.6313
   80SLPC   C26 7396   2.262   1.461   7.336  0.6707 -0.1625  0.5182
   80SLPC   H6R 7397   2.231   1.364   7.381  2.2459 -1.4463 -1.1320
   80SLPC   H6S 7398   2.176   1.506   7.281  0.7507 -0.3634  0.2293
   80SLPC   C27 7399   2.313   1.557   7.443 -0.1265  0.0878 -0.7181
   80SLPC   H7R 7400   2.334   1.659   7.404 -0.2351  0.1339 -0.6535
   80SLPC   H7S 7401   2.398   1.509   7.496 -0.8577  1.5281  1.8232
   80SLPC   C28 7402   2.206   1.583   7.558 -0.0098 -0.2230 -0.2131
   80SLPC   H8R 7403   2.173   1.484   7.595  0.4200 -0.5062 -0.5870
   80SLPC   H8S 7404   2.125   1.639   7.507 -0.1469 -0.2716 -0.0476
   80SLPC   C29 7405   2.275   1.668   7.668 -0.1119  0.0961  0.2923
   80SLPC   H9R 7406   2.350   1.747   7.648  0.5870 -0.6445 -0.0508
   80SLPC  C210 7407   2.261   1.638   7.798  0.7937  0.0695  0.7168
   80SLPC  H10R 7408   2.310   1.708   7.867 -0.2627  0.9811  0.5424
   80SLPC  C211 7409   2.180   1.527   7.864 -1.0433 -0.2619  0.9106
   80SLPC  H11R 7410   2.184   1.429   7.811 -2.8083  1.5094 -2.7155
   80SLPC  H11S 7411   2.072   1.549   7.849 -0.9124  0.7647  1.4325
   80SLPC  C212 7412   2.190   1.506   8.011 -0.7507  0.0827 -0.1092
   80SLPC  H12R 7413   2.269   1.441   8.051 -0.4551  0.0008 -0.8307
   80SLPC  C213 7414   2.131   1.578   8.108 -0.2907 -0.3886  0.3510
   80SLPC  H13R 7415   2.144   1.539   8.210 -0.5725  0.8335  0.8609
   80SLPC  C214 7416   2.028   1.682   8.090  0.3320  0.0950 -0.6542
   80SLPC  H14R 7417   1.926   1.641   8.101 -0.3540  2.0374  0.4406
   80SLPC  H14S 7418   2.027   1.730   7.989 -2.4619 -1.0044 -1.2015
   80SLPC  C215 7419   2.054   1.800   8.194 -0.9440  0.0308 -0.7409
   80SLPC  H15R 7420   1.993   1.886   8.160 -1.5346  1.5079  3.7536
   80SLPC  H15S 7421   2.160   1.834   8.203 -0.7401 -1.1840  1.8569
   80SLPC  C216 7422   2.006   1.761   8.336  0.5216 -0.2008 -0.6906
   80SLPC  H16R 7423   2.075   1.681   8.371  0.4055  0.1143  0.2838
   80SLPC  H16S 7424   1.900   1.729   8.339  1.5143 -3.4757  1.3233
   80SLPC  C217 7425   2.006   1.874   8.444  0.0507  0.3280  0.3575
   80SLPC  H17R 7426   1.933   1.949   8.407 -0.2479  0.0792  0.4397
   80SLPC  H17S 7427   2.103   1.927   8.440  0.0136  0.4602  1.2536
   80SLPC  C218 7428   1.978   1.815   8.581  0.1979  0.2826 -0.8366
   80SLPC  H18R 7429   1.885   1.755   8.589 -0.6808  1.2369 -3.1754
   80SLPC  H18S 7430   1.960   1.902   8.648  0.8899 -0.4271  0.2701
   80SLPC  H18T 7431   2.061   1.755   8.623  0.8448  0.5983 -1.6460
   80SLPC   C33 7432   1.896   1.564   7.033 -0.6948  0.0243  0.6199
   80SLPC   H3X 7433   1.985   1.510   7.072  0.3891  0.4729 -1.1753
   80SLPC   H3Y 7434   1.816   1.490   7.012  0.6837 -1.0121 -1.1896
   80SLPC   C34 7435   1.859   1.651   7.154  0.4152 -0.3623  0.5896
   80SLPC   H4X 7436   1.758   1.694   7.133  1.6567  2.4904  0.2979
   80SLPC   H4Y 7437   1.935   1.730   7.168  1.0927 -0.5845 -1.6569
   80SLPC   C35 7438   1.846   1.579   7.280 -0.5461 -0.0121  0.1258
   80SLPC   H5X 7439   1.937   1.517   7.295 -0.5196 -0.4793 -1.8662
   80SLPC   H5Y 7440   1.761   1.508   7.276 -0.4419 -0.1224 -0.1129
   80SLPC   C36 7441   1.826   1.679   7.396  0.3596 -0.4430  0.5934
   80SLPC   H6X 7442   1.749   1.753   7.367 -0.2148  0.1017  3.3256
   80SLPC   H6Y 7443   1.921   1.735   7.402 -0.3598  0.8314  0.1413
   80SLPC   C37 7444   1.798   1.621   7.534 -0.1135  0.5422 -0.0375
   80SLPC   H7X 7445   1.892   1.577   7.574  0.1631  0.1952 -1.0686
   80SLPC   H7Y 7446   1.738   1.531   7.511  1.9981 -0.7099 -0.7455
   80SLPC   C38 7447   1.702   1.693   7.637  0.3347 -0.4564 -0.9601
   80SLPC   H8X 7448   1.605   1.715   7.590 -1.1886 -0.9026  1.8456
   80SLPC   H8Y 7449   1.747   1.793   7.655 -0.1830 -0.1540 -1.3581
   80SLPC   C39 7450   1.675   1.611   7.769 -0.2014 -0.2164  0.0126
   80SLPC   H9X 7451   1.770   1.566   7.803  0.3982  0.8493 -0.2302
   80SLPC   H9Y 7452   1.604   1.526   7.756  1.3025 -1.3107 -1.1360
   80SLPC  C310 7453   1.628   1.707   7.872  0.2721 -0.4822  0.0069
   80SLPC  H10X 7454   1.523   1.726   7.843  0.3835  0.5393  0.2712
   80SLPC  H10Y 7455   1.675   1.807   7.873 -2.9956  1.1326 -1.1433
   80SLPC  C311 7456   1.644   1.663   8.018  0.0869  0.2314 -0.2058
   80SLPC  H11X 7457   1.752   1.657   8.043 -0.3350 -1.7353  1.1847
   80SLPC  H11Y 7458   1.593   1.565   8.022  1.2757 -0.3441  0.9915
   80SLPC  C312 7459   1.560   1.749   8.114  0.2750 -0.0095  0.6818
   80SLPC  H12X 7460   1.540   1.693   8.208  1.1259 -0.1846  0.7548
   80SLPC  H12Y 7461   1.462   1.774   8.067  1.4338  1.2493 -1.1311
   80SLPC  C313 7462   1.629   1.886   8.134  0.4658  0.3579 -0.5365
   80SLPC  H13X 7463   1.589   1.965   8.067 -2.6523  0.1297  0.9317
   80SLPC  H13Y 7464   1.737   1.878   8.110  0.3805 -3.1300  0.0618
   80SLPC  C314 7465   1.604   1.943   8.282  0.5020 -0.0494 -0.0361
   80SLPC  H14X 7466   1.670   1.883   8.349  2.3441  1.0443 -0.8494
   80SLPC  H14Y 7467   1.496   1.925   8.305  0.9916 -3.7652 -0.2926
   80SLPC  C315 7468   1.638   2.094   8.288 -0.5906 -0.3705 -0.3474
   80SLPC  H15X 7469   1.590   2.150   8.205  1.5905  0.2715 -1.2185
   80SLPC  H15Y 7470   1.748   2.107   8.277 -0.8002  0.3768 -1.6304
   80SLPC  C316 7471   1.577   2.157   8.417  0.2874 -0.1152  0.7223
   80SLPC  H16X 7472   1.472   2.129   8.435 -0.7069  1.9829 -1.5232
   80SLPC  H16Y 7473   1.579   2.265   8.389 -0.3605 -0.3379 -0.2186
   80SLPC  C317 7474   1.663   2.120   8.535  0.7323 -0.4547 -0.3457
   80SLPC  H17X 7475   1.771   2.139   8.517  1.0182 -2.3886 -0.7970
   80SLPC  H17Y 7476   1.663   2.011   8.555  1.6506 -0.4565 -0.3286
   80SLPC  C318 7477   1.628   2.197   8.671 -0.0402  0.2789 -0.3119
   80SLPC  H18X 7478   1.636   2.307   8.653 -0.1501  0.1716 -1.0409
   80SLPC  H18Y 7479   1.709   2.170   8.742 -0.3675  0.8267  0.2728
   80SLPC  H18Z 7480   1.526   2.171   8.704  0.3139  0.5395  1.0281
   81SAPS     N 7481   2.315   3.125  10.946  0.2429 -0.1176 -0.2100
   81SAPS   HN1 7482   2.379   3.127  10.864 -1.1267 -1.6730 -1.3378
   81SAPS   HN2 7483   2.218   3.149  10.920  0.4469  0.8517 -0.1076
   81SAPS   HN3 7484   2.355   3.204  11.002  1.4059 -0.9290  0.1225
   81SAPS   C12 7485   2.341   3.008  11.039  0.3538  0.3311  1.0292
   81SAPS  H12A 7486   2.444   2.976  11.027 -0.2313 -0.5810 -1.9440
   81SAPS   C13 7487   2.325   3.042  11.191 -0.1466 -0.0954 -0.3451
   81SAPS  O13A 7488   2.269   3.152  11.223 -0.5467  0.4751  0.0405
   81SAPS  O13B 7489   2.327   2.949  11.268  0.2165 -0.2544 -0.3022
   81SAPS   C11 7490   2.248   2.896  10.990  0.2935  0.4950  0.1447
   81SAPS  H11A 7491   2.143   2.934  10.994  0.6460  1.4883  0.0581
   81SAPS  H11B 7492   2.252   2.807  11.056 -1.5396  0.5652  0.3979
   81SAPS     P 7493   2.272   2.708  10.810 -0.2922  0.1341  0.1391
   81SAPS   O13 7494   2.374   2.626  10.883 -0.0165  0.1041 -0.4022
   81SAPS   O14 7495   2.134   2.665  10.828 -0.7643 -0.6988  0.3264
   81SAPS   O12 7496   2.277   2.861  10.852  0.1118  0.5126  0.3073
   81SAPS   O11 7497   2.298   2.707  10.655 -0.2100  0.0568 -0.0147
   81SAPS    C1 7498   2.323   2.835  10.590  0.2936  0.3343  0.1453
   81SAPS    HA 7499   2.244   2.911  10.609  0.2631  0.1560  0.7417
   81SAPS    HB 7500   2.416   2.880  10.632 -0.3330  0.3616  1.5380
   81SAPS    C2 7501   2.315   2.829  10.433  0.0382  0.1621 -0.2200
   81SAPS    HS 7502   2.327   2.934  10.398 -1.2383 -0.1727 -1.7164
   81SAPS   O21 7503   2.184   2.780  10.397  0.4084  0.2086 -0.2894
   81SAPS   C21 7504   2.152   2.822  10.278  0.3462  0.8110 -0.1194
   81SAPS   O22 7505   2.218   2.902  10.212 -0.4935  0.1791  0.1487
   81SAPS   C22 7506   2.014   2.772  10.242  0.2765  0.7881 -0.0992
   81SAPS   H2R 7507   2.008   2.662  10.229 -1.7612  0.5802  2.1091
   81SAPS   H2S 7508   1.947   2.794  10.328 -1.0683 -2.0997 -0.3379
   81SAPS    C3 7509   2.430   2.741  10.371 -0.5507 -1.2342 -0.2138
   81SAPS    HX 7510   2.391   2.637  10.376 -0.0147 -1.3669  2.0120
   81SAPS    HY 7511   2.515   2.746  10.443  0.0716  0.3434 -1.0412
   81SAPS   O31 7512   2.448   2.767  10.232  0.1868 -0.4694 -0.2440
   81SAPS   C31 7513   2.529   2.876  10.222  0.2913 -0.3689  0.2649
   81SAPS   O32 7514   2.589   2.920  10.319 -0.5208 -0.2645 -0.5745
   81SAPS   C32 7515   2.514   2.948  10.086  0.1972  0.4118  0.5424
   81SAPS   H2X 7516   2.618   2.988  10.078  0.1515  0.5807  0.8047
   81SAPS   H2Y 7517   2.442   3.029  10.108  1.0930  0.8645  1.8710
   81SAPS   C23 7518   1.943   2.843  10.125  0.5175 -0.1346  0.4531
   81SAPS   H3R 7519   1.920   2.948  10.152 -0.2281 -0.4565  1.0859
   81SAPS   H3S 7520   1.850   2.784  10.111  0.1208  1.0695 -2.1650
   81SAPS   C24 7521   2.018   2.836   9.990  0.0334 -0.2927  0.5215
   81SAPS   H4R 7522   2.113   2.893   9.996 -0.5981  0.7855  0.2230
   81SAPS   H4S 7523   1.947   2.890   9.924 -0.4510 -2.0277 -0.4186
   81SAPS   C25 7524   2.046   2.697   9.943 -0.1867 -0.1147  0.2701
   81SAPS   H5R 7525   2.142   2.657   9.978  1.0506  1.1989 -1.5607
   81SAPS   C26 7526   1.972   2.633   9.849  0.1573  0.7813  0.5363
   81SAPS   H6R 7527   2.009   2.535   9.816  3.8846  1.3624  2.6724
   81SAPS   C27 7528   1.855   2.689   9.779 -0.3617  0.2738 -0.5366
   81SAPS   H7R 7529   1.862   2.781   9.716 -0.3476  1.0284  0.5625
   81SAPS   H7S 7530   1.788   2.720   9.861 -0.2240 -2.4096  0.6534
   81SAPS   C28 7531   1.782   2.585   9.699 -0.4778  1.3458 -0.4928
   81SAPS   H8R 7532   1.696   2.535   9.748  0.2585 -0.8038 -1.3254
   81SAPS   C29 7533   1.825   2.539   9.580  0.6140 -0.5481  0.0328
   81SAPS   H9R 7534   1.753   2.475   9.526  0.8994 -0.4298 -0.4929
   81SAPS  C210 7535   1.951   2.581   9.503  0.4548  0.3103 -0.0232
   81SAPS  H10R 7536   1.977   2.489   9.446 -0.5886 -1.3506  2.0605
   81SAPS  H10S 7537   2.039   2.596   9.570 -0.7688  1.9146  1.2471
   81SAPS  C211 7538   1.958   2.699   9.416  0.2121  0.3700  0.2665
   81SAPS  H11R 7539   1.972   2.791   9.474  0.3785  0.2489  0.4185
   81SAPS  C212 7540   1.926   2.705   9.283 -0.3189  0.6428 -0.1777
   81SAPS  H12R 7541   1.942   2.796   9.224  1.6164 -0.4733 -1.4120
   81SAPS  C213 7542   1.878   2.581   9.208  0.7532  0.5237  0.0189
   81SAPS  H13R 7543   1.783   2.549   9.254  1.0649  0.4169  0.5878
   81SAPS  H13S 7544   1.948   2.495   9.214  0.7380  0.1694 -3.4334
   81SAPS  C214 7545   1.873   2.595   9.060 -0.1324 -0.8154  0.0577
   81SAPS  H14R 7546   1.969   2.559   9.021 -0.2100  0.7076 -1.6567
   81SAPS  C215 7547   1.771   2.631   8.982  0.8781  0.0934 -0.3969
   81SAPS  H15R 7548   1.778   2.649   8.873  0.8372 -0.1032 -0.4320
   81SAPS  C216 7549   1.638   2.667   9.036 -0.5215  0.2097  0.1769
   81SAPS  H16R 7550   1.591   2.758   8.994  0.1092  0.0784 -0.8164
   81SAPS  H16S 7551   1.652   2.694   9.143  3.2645  1.1066 -0.4772
   81SAPS  C217 7552   1.549   2.539   9.018 -0.3135  0.5270  0.2958
   81SAPS  H17R 7553   1.459   2.542   9.083  0.3285 -1.2504  1.3134
   81SAPS  H17S 7554   1.604   2.444   9.037  0.4502  0.8407 -0.3206
   81SAPS  C218 7555   1.480   2.542   8.881 -0.1301  0.1732  0.1699
   81SAPS  H18R 7556   1.552   2.545   8.797  0.4720 -1.5805  0.6188
   81SAPS  H18S 7557   1.417   2.633   8.869  2.4251  2.0215  0.3425
   81SAPS  C219 7558   1.382   2.425   8.869 -0.4494 -0.2223  0.3238
   81SAPS  H19R 7559   1.329   2.430   8.966 -1.1387 -0.6425 -0.0262
   81SAPS  H19S 7560   1.447   2.335   8.863 -0.5459 -0.1506 -2.8229
   81SAPS  C220 7561   1.275   2.437   8.755 -0.0466  0.1563  0.1834
   81SAPS  H20R 7562   1.187   2.500   8.779  0.0296  0.8901 -1.3443
   81SAPS  H20S 7563   1.240   2.336   8.724  0.9861 -0.0632 -0.3154
   81SAPS  H20T 7564   1.320   2.483   8.664 -0.4675  1.3544  0.5787
   81SAPS   C33 7565   2.470   2.865   9.962 -0.0422  0.1579  0.1572
   81SAPS   H3X 7566   2.390   2.803  10.007  0.2556  1.5245  2.6288
   81SAPS   H3Y 7567   2.544   2.786   9.934  1.1128  0.9003  1.0863
   81SAPS   C34 7568   2.427   2.956   9.846 -0.3440  0.4199  0.5049
   81SAPS   H4X 7569   2.510   3.025   9.823  1.4121 -1.2713  1.6156
   81SAPS   H4Y 7570   2.344   3.024   9.875  1.0950  2.5701 -0.2642
   81SAPS   C35 7571   2.400   2.876   9.720 -0.2264 -0.5897  0.2348
   81SAPS   H5X 7572   2.321   2.798   9.725 -0.2771 -0.5614 -0.1408
   81SAPS   H5Y 7573   2.491   2.822   9.687  0.2909  1.8974 -2.7142
   81SAPS   C36 7574   2.353   2.978   9.615 -0.1876  1.0397  0.2506
   81SAPS   H6X 7575   2.405   3.076   9.622 -0.6298  1.4675 -1.9618
   81SAPS   H6Y 7576   2.248   3.010   9.634  0.6438  2.4240  2.6403
   81SAPS   C37 7577   2.358   2.927   9.466 -0.4881  0.4473 -0.4965
   81SAPS   H7X 7578   2.307   2.829   9.455 -1.4358  0.9920 -0.9717
   81SAPS   H7Y 7579   2.465   2.904   9.444  0.1412  1.2353  1.6075
   81SAPS   C38 7580   2.315   3.036   9.367  0.0027 -0.0864 -0.5613
   81SAPS   H8X 7581   2.345   3.137   9.400 -1.3440 -0.3714  1.6352
   81SAPS   H8Y 7582   2.205   3.037   9.351 -0.2452  0.6705  1.0962
   81SAPS   C39 7583   2.381   3.017   9.223 -1.0267 -0.5364 -0.0806
   81SAPS   H9X 7584   2.489   2.994   9.233 -0.4950  1.3265 -1.1788
   81SAPS   H9Y 7585   2.382   3.118   9.176  2.4758 -1.3773 -1.9833
   81SAPS  C310 7586   2.301   2.922   9.136 -0.8730 -0.1255 -0.1790
   81SAPS  H10X 7587   2.197   2.957   9.122 -0.4307  0.8681 -1.0838
   81SAPS  H10Y 7588   2.290   2.822   9.184  1.2325 -0.6023 -0.6138
   81SAPS  C311 7589   2.349   2.895   8.997  0.0048 -0.0296 -0.6827
   81SAPS  H11X 7590   2.456   2.865   8.999 -0.7013 -2.6466  1.2494
   81SAPS  H11Y 7591   2.339   2.979   8.925 -1.1386  0.4185 -0.0127
   81SAPS  C312 7592   2.281   2.766   8.945 -0.1421 -0.0408 -0.1639
   81SAPS  H12X 7593   2.172   2.786   8.933  0.5572  1.5448 -4.7303
   81SAPS  H12Y 7594   2.305   2.681   9.012  1.3128 -1.0508 -1.9182
   81SAPS  C313 7595   2.322   2.718   8.799 -0.3434  0.0681 -0.5815
   81SAPS  H13X 7596   2.284   2.614   8.788 -0.3366 -0.2926  2.3969
   81SAPS  H13Y 7597   2.433   2.721   8.790 -0.2224 -3.3392 -0.9975
   81SAPS  C314 7598   2.264   2.813   8.696 -0.2867  0.1740  0.2050
   81SAPS  H14X 7599   2.298   2.776   8.597 -3.2410  2.7037 -1.8531
   81SAPS  H14Y 7600   2.313   2.912   8.708  1.8243 -0.8038 -0.1446
   81SAPS  C315 7601   2.116   2.816   8.691  0.0099 -0.2790  0.2548
   81SAPS  H15X 7602   2.074   2.882   8.770  3.6933  2.6190 -0.0665
   81SAPS  H15Y 7603   2.068   2.715   8.696 -2.2315  0.6919 -0.7575
   81SAPS  C316 7604   2.070   2.867   8.555 -0.7814 -0.8812  0.5559
   81SAPS  H16X 7605   1.959   2.864   8.554 -0.7487 -2.1589  0.5835
   81SAPS  H16Y 7606   2.099   2.801   8.471  1.7496  1.5227 -0.5550
   81SAPS  C317 7607   2.120   3.006   8.506 -0.2574 -0.4961  0.3064
   81SAPS  H17X 7608   2.226   2.992   8.477 -0.0687  1.8244 -0.2206
   81SAPS  H17Y 7609   2.113   3.080   8.588 -2.9357 -0.9251  0.5098
   81SAPS  C318 7610   2.063   3.047   8.367  0.1102  0.6204 -0.0030
   81SAPS  H18X 7611   2.078   2.967   8.292  0.0576  1.2650 -0.7126
   81SAPS  H18Y 7612   2.118   3.133   8.324 -0.9117  2.0686  1.5021
   81SAPS  H18Z 7613   1.957   3.071   8.392 -0.2363  0.1616 -1.0250
   82SAPS     N 7614   0.766   1.820  10.886  0.5213  0.6686 -0.7649
   82SAPS   HN1 7615   0.832   1.857  10.814  0.7783  0.9980 -0.3561
   82SAPS   HN2 7616   0.775   1.716  10.887  0.1355  0.6447  1.5420
   82SAPS   HN3 7617   0.667   1.845  10.865 -0.0691  0.0489  1.2105
   82SAPS   C12 7618   0.809   1.879  11.014 -0.3624  0.4423 -0.7073
   82SAPS  H12A 7619   0.734   1.850  11.086  1.7169  0.2769  1.4796
   82SAPS   C13 7620   0.937   1.821  11.077 -0.3969  0.2974  0.9277
   82SAPS  O13A 7621   1.010   1.749  11.007 -0.8396  0.0784  0.2809
   82SAPS  O13B 7622   0.970   1.854  11.195  0.3698 -0.5176 -0.5450
   82SAPS   C11 7623   0.829   2.033  10.999  0.0955  0.7751 -0.1932
   82SAPS  H11A 7624   0.880   2.072  11.089 -0.6705  2.6723 -0.5518
   82SAPS  H11B 7625   0.731   2.084  10.988  0.4613  1.3001 -1.0436
   82SAPS     P 7626   0.938   2.193  10.820  0.2974  0.0376  0.1719
   82SAPS   O13 7627   0.801   2.237  10.771 -0.4133 -0.0064 -0.5299
   82SAPS   O14 7628   1.011   2.291  10.901 -0.4952 -0.1830 -0.4078
   82SAPS   O12 7629   0.920   2.057  10.890  0.3465  0.9201  0.4402
   82SAPS   O11 7630   1.021   2.169  10.696 -0.0573 -0.2577  0.3003
   82SAPS    C1 7631   0.982   2.079  10.588  0.1589  0.3601  0.8381
   82SAPS    HA 7632   1.067   2.023  10.542 -0.9800 -0.8615  0.1878
   82SAPS    HB 7633   0.910   2.001  10.619  1.2961 -0.8172  0.5648
   82SAPS    C2 7634   0.929   2.178  10.476 -0.0819  0.0685 -0.8318
   82SAPS    HS 7635   0.851   2.238  10.527  1.5250  0.7337  0.9365
   82SAPS   O21 7636   0.868   2.098  10.373  0.0707 -0.5672 -0.1343
   82SAPS   C21 7637   0.789   2.158  10.273 -0.1662  0.3516 -0.0030
   82SAPS   O22 7638   0.741   2.271  10.282  0.1067  0.2940 -0.8848
   82SAPS   C22 7639   0.769   2.056  10.161 -0.0952  0.1163 -0.6044
   82SAPS   H2R 7640   0.871   2.026  10.128 -0.2533  0.3076 -1.2680
   82SAPS   H2S 7641   0.736   1.958  10.202  2.1768  0.3626  1.9746
   82SAPS    C3 7642   1.049   2.265  10.430  0.8143 -0.3176  0.2384
   82SAPS    HX 7643   1.116   2.201  10.368 -2.3962 -2.3262 -1.3240
   82SAPS    HY 7644   1.105   2.288  10.523  0.8567  0.4782  0.0184
   82SAPS   O31 7645   1.004   2.390  10.373  0.4350 -0.3214 -0.0309
   82SAPS   C31 7646   1.035   2.411  10.252 -0.1881  0.4829  0.4039
   82SAPS   O32 7647   1.093   2.328  10.177 -0.7500  0.0858  0.1571
   82SAPS   C32 7648   1.000   2.548  10.208 -0.3662  0.7926  0.0422
   82SAPS   H2X 7649   1.091   2.581  10.153  1.0268 -1.7828  0.7254
   82SAPS   H2Y 7650   0.981   2.614  10.295 -4.2760  1.5210 -1.2966
   82SAPS   C23 7651   0.674   2.098  10.035 -0.5024 -0.1452  0.1499
   82SAPS   H3R 7652   0.707   2.196   9.995 -1.9299 -0.1423 -1.0554
   82SAPS   H3S 7653   0.576   2.124  10.080 -0.0879 -0.4826  1.2617
   82SAPS   C24 7654   0.654   1.995   9.922  0.8021 -0.2500 -0.7214
   82SAPS   H4R 7655   0.572   2.037   9.860  0.2518  1.2833  1.0100
   82SAPS   H4S 7656   0.612   1.899   9.960  0.7670  0.7318  1.8167
   82SAPS   C25 7657   0.777   1.961   9.851 -0.5757 -0.3774  0.5225
   82SAPS   H5R 7658   0.861   1.925   9.912  0.4295  2.9329  1.1690
   82SAPS   C26 7659   0.793   1.964   9.717 -0.2798 -0.1637  0.0010
   82SAPS   H6R 7660   0.890   1.937   9.673 -0.3070 -2.8038  1.4535
   82SAPS   C27 7661   0.685   2.001   9.621  0.7336 -0.1393  0.7312
   82SAPS   H7R 7662   0.663   2.110   9.618  1.7433  0.0416 -0.8325
   82SAPS   H7S 7663   0.587   1.957   9.650  0.2464  1.4178  1.4984
   82SAPS   C28 7664   0.719   1.934   9.492  0.6281  0.3428  0.5981
   82SAPS   H8R 7665   0.779   1.841   9.484 -1.6239 -1.1133  0.0823
   82SAPS   C29 7666   0.675   1.983   9.370 -0.4349  0.6122  0.1289
   82SAPS   H9R 7667   0.707   1.935   9.276  0.4486  1.1534  0.1452
   82SAPS  C210 7668   0.590   2.109   9.347  0.2839  0.2924  0.2890
   82SAPS  H10R 7669   0.648   2.192   9.393 -1.7914 -0.3940  4.3222
   82SAPS  H10S 7670   0.495   2.116   9.404 -1.5589 -2.4274 -2.2785
   82SAPS  C211 7671   0.559   2.159   9.203 -0.0292  0.3103 -0.7670
   82SAPS  H11R 7672   0.451   2.181   9.193  0.0957  0.9409 -0.7525
   82SAPS  C212 7673   0.634   2.188   9.098 -0.2302  0.1073 -0.3021
   82SAPS  H12R 7674   0.582   2.210   9.004  0.2833  0.0142 -0.6104
   82SAPS  C213 7675   0.788   2.184   9.094 -0.7382 -0.6036 -0.1140
   82SAPS  H13R 7676   0.823   2.108   9.020  0.4741 -0.0181 -0.1646
   82SAPS  H13S 7677   0.832   2.143   9.188 -1.2507  1.1780  0.9187
   82SAPS  C214 7678   0.852   2.320   9.089 -0.4646  0.5543 -0.6503
   82SAPS  H14R 7679   0.794   2.374   9.013 -1.5640  1.0452  0.5150
   82SAPS  C215 7680   0.949   2.373   9.163 -0.5309 -0.0183  0.0074
   82SAPS  H15R 7681   0.983   2.477   9.150  0.9317 -0.5989 -1.0509
   82SAPS  C216 7682   1.017   2.292   9.273 -0.2582 -0.4010  0.0261
   82SAPS  H16R 7683   1.127   2.305   9.265  0.0263 -1.0496  2.5101
   82SAPS  H16S 7684   1.002   2.183   9.281 -0.0711 -0.2802  2.2744
   82SAPS  C217 7685   0.978   2.347   9.411 -0.2879  0.2555  0.6267
   82SAPS  H17R 7686   0.875   2.314   9.434 -1.2816  1.0908 -2.3895
   82SAPS  H17S 7687   0.993   2.457   9.421  1.1128 -0.1320  3.2083
   82SAPS  C218 7688   1.057   2.279   9.528 -0.2190 -0.2153 -0.0256
   82SAPS  H18R 7689   1.160   2.319   9.537 -0.4157 -0.2571  2.7514
   82SAPS  H18S 7690   1.055   2.171   9.504 -0.1202 -0.2751  0.2316
   82SAPS  C219 7691   0.990   2.308   9.661  0.3039  0.9102  0.1911
   82SAPS  H19R 7692   0.885   2.270   9.655  1.0097 -0.7207 -2.7401
   82SAPS  H19S 7693   0.980   2.417   9.674  0.3921  1.0195 -0.6089
   82SAPS  C220 7694   1.050   2.230   9.775  0.0876  0.1989 -0.4211
   82SAPS  H20R 7695   1.155   2.260   9.796 -0.1013 -0.4270  1.5223
   82SAPS  H20S 7696   1.054   2.126   9.736 -0.9496 -0.4245  1.0850
   82SAPS  H20T 7697   0.997   2.235   9.873 -0.0894 -1.8412 -0.3901
   82SAPS   C33 7698   0.877   2.548  10.116  0.3301 -0.6783  0.0169
   82SAPS   H3X 7699   0.834   2.650  10.108 -0.4850 -1.0907 -0.8410
   82SAPS   H3Y 7700   0.803   2.473  10.149  0.9308  0.0207  3.1153
   82SAPS   C34 7701   0.923   2.522   9.972 -0.0335 -0.3773 -0.7434
   82SAPS   H4X 7702   0.831   2.477   9.927 -0.1241  1.1423 -2.1002
   82SAPS   H4Y 7703   1.009   2.452   9.966  0.5333  0.0868  1.4735
   82SAPS   C35 7704   0.963   2.644   9.889 -0.1142 -0.5712  0.4094
   82SAPS   H5X 7705   1.001   2.605   9.792  0.4685 -0.9427  0.7885
   82SAPS   H5Y 7706   1.044   2.698   9.943 -0.5407 -0.4335  0.9174
   82SAPS   C36 7707   0.852   2.731   9.844 -0.2124 -0.2203 -0.0533
   82SAPS   H6X 7708   0.804   2.777   9.933  1.2977  0.2779  0.5323
   82SAPS   H6Y 7709   0.778   2.661   9.800 -0.7019  0.8534 -0.9564
   82SAPS   C37 7710   0.884   2.832   9.733 -0.1320 -0.3693 -1.2809
   82SAPS   H7X 7711   0.926   2.778   9.645 -1.7941 -1.0250 -1.6891
   82SAPS   H7Y 7712   0.953   2.910   9.772 -1.1291  0.2081 -0.6639
   82SAPS   C38 7713   0.752   2.892   9.682 -0.0478  0.2040 -0.2428
   82SAPS   H8X 7714   0.733   2.965   9.763 -1.7483 -1.2338  0.6701
   82SAPS   H8Y 7715   0.672   2.815   9.688  1.2693 -1.1673 -0.0176
   82SAPS   C39 7716   0.760   2.945   9.534  0.0462 -0.2958  0.6610
   82SAPS   H9X 7717   0.800   2.864   9.469 -1.5724  0.4854 -1.3735
   82SAPS   H9Y 7718   0.821   3.037   9.527  1.5006 -1.3038 -0.2961
   82SAPS  C310 7719   0.618   2.980   9.482 -0.2112 -1.0063 -0.2090
   82SAPS  H10X 7720   0.565   3.037   9.561  0.1451  0.0132 -0.6914
   82SAPS  H10Y 7721   0.554   2.889   9.491  1.0262 -1.8666  0.0275
   82SAPS  C311 7722   0.597   3.046   9.347 -0.6466 -0.0304  0.2655
   82SAPS  H11X 7723   0.662   3.136   9.351 -1.9535  1.0019 -1.0673
   82SAPS  H11Y 7724   0.493   3.085   9.337 -0.5724 -0.2819 -1.7360
   82SAPS  C312 7725   0.621   2.957   9.226  0.1262 -0.6125 -0.5103
   82SAPS  H12X 7726   0.555   2.869   9.213  1.1368 -1.7016  1.4475
   82SAPS  H12Y 7727   0.726   2.921   9.237  0.2566 -1.1767 -3.0953
   82SAPS  C313 7728   0.627   3.040   9.102 -0.3750 -1.2849  0.6441
   82SAPS  H13X 7729   0.683   3.133   9.125 -2.7648 -0.2082  2.3757
   82SAPS  H13Y 7730   0.526   3.083   9.083  0.3548  0.7948  1.3229
   82SAPS  C314 7731   0.681   2.971   8.974  0.8927  0.7327 -0.3732
   82SAPS  H14X 7732   0.636   2.870   8.972  1.3574  0.4981  0.6019
   82SAPS  H14Y 7733   0.792   2.968   8.973  0.8636 -0.2404 -1.0692
   82SAPS  C315 7734   0.641   3.047   8.847  0.1936 -0.8326  0.2879
   82SAPS  H15X 7735   0.537   3.018   8.821  0.6549 -0.4642 -2.1301
   82SAPS  H15Y 7736   0.709   3.021   8.763 -2.2282  2.0783 -2.7388
   82SAPS  C316 7737   0.654   3.198   8.854  0.4715 -0.1646 -0.2861
   82SAPS  H16X 7738   0.750   3.218   8.906  0.1634 -1.1414  0.6799
   82SAPS  H16Y 7739   0.569   3.242   8.910 -0.1154  1.5661 -2.4771
   82SAPS  C317 7740   0.664   3.277   8.722  0.0252  0.4596 -0.2197
   82SAPS  H17X 7741   0.561   3.306   8.692 -0.4980 -1.9525 -0.8900
   82SAPS  H17Y 7742   0.706   3.209   8.645 -0.3284 -0.0972  0.0743
   82SAPS  C318 7743   0.757   3.393   8.731  0.3633  0.0458  0.2453
   82SAPS  H18X 7744   0.772   3.437   8.629 -1.3851  2.6314  1.0574
   82SAPS  H18Y 7745   0.860   3.365   8.763  0.7292  1.5420  0.4182
   82SAPS  H18Z 7746   0.725   3.466   8.808 -2.6672 -2.4097  1.4280
   83SAPS     N 7747   2.445   3.296  11.344  0.0985 -0.3196  0.3691
   83SAPS   HN1 7748   2.385   3.243  11.278 -1.5748  0.5396  1.1698
   83SAPS   HN2 7749   2.541   3.272  11.314  0.1512  1.5724 -1.0382
   83SAPS   HN3 7750   2.430   3.249  11.436  2.5471 -1.7547  0.0790
   83SAPS   C12 7751   2.399   3.439  11.338  0.2531  1.2551 -0.0790
   83SAPS  H12A 7752   2.330   3.456  11.257 -1.7239 -1.0599  1.0346
   83SAPS   C13 7753   2.331   3.491  11.467  0.0240  0.1501 -0.3715
   83SAPS  O13A 7754   2.353   3.421  11.570 -0.2081  0.0699 -0.0585
   83SAPS  O13B 7755   2.301   3.611  11.483 -0.0767 -0.4372 -0.4109
   83SAPS   C11 7756   2.517   3.529  11.312 -0.3546  0.2468  0.3399
   83SAPS  H11A 7757   2.588   3.521  11.396  1.0006 -0.0343 -0.8163
   83SAPS  H11B 7758   2.479   3.632  11.294  1.1046  0.9537  1.2886
   83SAPS     P 7759   2.735   3.539  11.159  0.0941 -0.1596  0.0768
   83SAPS   O13 7760   2.771   3.656  11.245 -0.1533  0.1137 -0.3806
   83SAPS   O14 7761   2.824   3.418  11.159  0.1194  0.1451  0.0677
   83SAPS   O12 7762   2.588   3.495  11.191 -0.0666  0.2401 -0.3371
   83SAPS   O11 7763   2.732   3.591  11.012 -0.6609  0.5431 -0.1946
   83SAPS    C1 7764   2.633   3.687  10.975  0.5544 -0.1534  0.3411
   83SAPS    HA 7765   2.530   3.654  10.999  0.0159 -0.0674 -1.7452
   83SAPS    HB 7766   2.650   3.783  11.029  2.1077  0.5094 -1.2741
   83SAPS    C2 7767   2.632   3.711  10.822  0.7154 -0.3176  0.9292
   83SAPS    HS 7768   2.589   3.813  10.811 -1.2305 -0.7060  4.4795
   83SAPS   O21 7769   2.536   3.613  10.764  0.3755 -0.0807 -0.2748
   83SAPS   C21 7770   2.412   3.660  10.745 -0.9783  0.2084 -0.3069
   83SAPS   O22 7771   2.374   3.775  10.772 -0.2387 -0.1629  0.1214
   83SAPS   C22 7772   2.318   3.556  10.681 -0.0150 -0.1914 -1.2147
   83SAPS   H2R 7773   2.281   3.499  10.768 -0.6857  1.3231 -0.4881
   83SAPS   H2S 7774   2.230   3.612  10.641 -1.1313  0.6135  2.2129
   83SAPS    C3 7775   2.773   3.702  10.757  0.0106  0.4843  0.1491
   83SAPS    HX 7776   2.789   3.593  10.744  1.7977  0.8328 -0.7117
   83SAPS    HY 7777   2.845   3.755  10.822  1.9111 -0.1132 -1.4292
   83SAPS   O31 7778   2.783   3.757  10.629 -0.6855 -0.6929  0.5791
   83SAPS   C31 7779   2.902   3.759  10.567 -0.5944  0.1709 -0.7774
   83SAPS   O32 7780   3.004   3.710  10.611 -0.6499  0.0463 -0.1154
   83SAPS   C32 7781   2.883   3.819  10.429 -0.1245  0.0805 -0.0537
   83SAPS   H2X 7782   2.840   3.918  10.453 -0.7029  0.2091 -1.5347
   83SAPS   H2Y 7783   2.811   3.759  10.368 -0.6211 -0.1145  0.7171
   83SAPS   C23 7784   2.374   3.462  10.574  0.5722  0.0268 -0.0864
   83SAPS   H3R 7785   2.469   3.418  10.610  0.2158 -2.5628 -2.2517
   83SAPS   H3S 7786   2.411   3.527  10.492  2.4079  1.4819  1.8363
   83SAPS   C24 7787   2.272   3.355  10.550  0.8320 -0.7476 -0.1625
   83SAPS   H4R 7788   2.187   3.399  10.493  0.2966  0.1392  1.3068
   83SAPS   H4S 7789   2.231   3.313  10.644 -2.9099  1.4439 -0.6916
   83SAPS   C25 7790   2.340   3.248  10.472 -0.0235  0.4879 -0.5074
   83SAPS   H5R 7791   2.419   3.186  10.516 -1.6374 -0.7292  0.7598
   83SAPS   C26 7792   2.317   3.212  10.344 -0.3490  0.0641  0.9044
   83SAPS   H6R 7793   2.379   3.135  10.295 -0.1107  1.1099 -0.4770
   83SAPS   C27 7794   2.219   3.282  10.247  0.4595 -0.3782  0.5302
   83SAPS   H7R 7795   2.249   3.387  10.227  0.4395 -0.6201 -0.8260
   83SAPS   H7S 7796   2.121   3.293  10.299 -0.5682  0.1391 -1.4841
   83SAPS   C28 7797   2.193   3.210  10.114  0.6005 -0.0399 -0.3812
   83SAPS   H8R 7798   2.168   3.104  10.133  3.6248 -0.6911  0.3605
   83SAPS   C29 7799   2.205   3.242   9.988 -0.0074  0.3242 -0.3817
   83SAPS   H9R 7800   2.160   3.174   9.913 -1.6621  0.1515  0.7414
   83SAPS  C210 7801   2.247   3.372   9.934  0.3004  0.7638  0.0368
   83SAPS  H10R 7802   2.333   3.420   9.986  1.5960  0.6599 -1.9691
   83SAPS  H10S 7803   2.155   3.433   9.935 -1.1793 -1.4109 -0.2619
   83SAPS  C211 7804   2.282   3.353   9.789  0.5104  0.5672  0.7995
   83SAPS  H11R 7805   2.203   3.304   9.731  2.8588 -2.1993 -0.1735
   83SAPS  C212 7806   2.397   3.389   9.726  0.7678 -0.0008  0.3898
   83SAPS  H12R 7807   2.398   3.377   9.616  0.4054 -0.2833  0.4179
   83SAPS  C213 7808   2.526   3.453   9.787 -0.0878  0.0805  0.2911
   83SAPS  H13R 7809   2.502   3.536   9.856 -0.1050 -0.8508  1.4256
   83SAPS  H13S 7810   2.579   3.506   9.705  0.5642 -0.8170  0.1294
   83SAPS  C214 7811   2.620   3.347   9.842  0.5918 -0.7783  0.2117
   83SAPS  H14R 7812   2.700   3.316   9.773  1.9736  3.9474 -0.4999
   83SAPS  C215 7813   2.639   3.299   9.965  0.2399 -1.3861  0.9631
   83SAPS  H15R 7814   2.692   3.203   9.978  2.0497 -0.6503 -0.6924
   83SAPS  C216 7815   2.576   3.335  10.096  0.4531  0.5913 -0.0032
   83SAPS  H16R 7816   2.479   3.282  10.102  0.5336  0.1297 -2.3474
   83SAPS  H16S 7817   2.578   3.445  10.113  0.6790  0.5064  0.5630
   83SAPS  C217 7818   2.655   3.286  10.217 -0.3593 -0.4142  0.1040
   83SAPS  H17R 7819   2.677   3.177  10.221 -2.9405 -1.0708 -1.9725
   83SAPS  H17S 7820   2.599   3.314  10.309 -0.2527 -2.6123  0.8628
   83SAPS  C218 7821   2.788   3.362  10.231  0.9538  0.2523 -0.8501
   83SAPS  H18R 7822   2.774   3.471  10.216  0.6881 -0.0338 -2.9510
   83SAPS  H18S 7823   2.861   3.326  10.155  0.6248 -1.1404 -0.5329
   83SAPS  C219 7824   2.854   3.346  10.367 -0.3984 -0.1770  0.3357
   83SAPS  H19R 7825   2.945   3.409  10.373 -0.7626  0.2717  1.4083
   83SAPS  H19S 7826   2.891   3.242  10.380  3.3441  0.6074 -3.0228
   83SAPS  C220 7827   2.772   3.393  10.495 -0.2286  0.5676  0.4129
   83SAPS  H20R 7828   2.835   3.417  10.584 -0.8219 -0.9941  1.2561
   83SAPS  H20S 7829   2.694   3.320  10.521  1.6340 -1.5320  0.2829
   83SAPS  H20T 7830   2.720   3.488  10.468 -0.7396 -0.2735 -1.6422
   83SAPS   C33 7831   3.009   3.821  10.339  0.4230 -0.7325  0.5148
   83SAPS   H3X 7832   3.026   3.726  10.284 -0.9295  0.1145 -1.4315
   83SAPS   H3Y 7833   3.096   3.837  10.406  0.4935  0.4312  0.1449
   83SAPS   C34 7834   3.006   3.942  10.245 -0.0181 -0.3288 -0.3611
   83SAPS   H4X 7835   3.103   3.937  10.191 -0.1024  2.0311 -0.8046
   83SAPS   H4Y 7836   3.025   4.037  10.299  1.1985 -1.5927  1.4891
   83SAPS   C35 7837   2.905   3.940  10.129  0.1226  0.0800  0.1648
   83SAPS   H5X 7838   2.919   4.030  10.065 -1.1276 -0.5196 -0.9905
   83SAPS   H5Y 7839   2.807   3.954  10.179 -1.1947  0.9360 -2.5489
   83SAPS   C36 7840   2.916   3.809  10.042 -0.1745 -0.3871  0.0538
   83SAPS   H6X 7841   2.889   3.721  10.105  3.3051 -1.1181  0.6419
   83SAPS   H6Y 7842   3.025   3.800  10.025 -0.2386 -0.0656 -0.5276
   83SAPS   C37 7843   2.831   3.815   9.913  0.0526 -0.0422  0.3815
   83SAPS   H7X 7844   2.725   3.834   9.939 -0.2015  0.1608 -0.7866
   83SAPS   H7Y 7845   2.830   3.713   9.868 -1.1915 -1.0678  2.6393
   83SAPS   C38 7846   2.875   3.909   9.809 -0.3977  0.2345 -0.0428
   83SAPS   H8X 7847   2.982   3.895   9.781 -0.2454  2.3593 -0.5662
   83SAPS   H8Y 7848   2.866   4.012   9.848  1.2278  0.4820 -0.3073
   83SAPS   C39 7849   2.787   3.890   9.675 -0.0946 -0.1726 -0.7800
   83SAPS   H9X 7850   2.681   3.902   9.705 -0.0354  1.7913 -1.2838
   83SAPS   H9Y 7851   2.797   3.782   9.653 -0.7520 -0.5955  0.8580
   83SAPS  C310 7852   2.839   3.996   9.577 -0.0994 -0.4238 -0.8142
   83SAPS  H10X 7853   2.933   4.039   9.617 -0.9643  0.6714  0.0701
   83SAPS  H10Y 7854   2.771   4.084   9.579  2.2499  1.4428 -0.5883
   83SAPS  C311 7855   2.869   3.944   9.442 -0.8423  0.1727  0.3057
   83SAPS  H11X 7856   2.898   4.037   9.389  1.9848  0.7834  2.8366
   83SAPS  H11Y 7857   2.782   3.894   9.394 -2.7400  1.5945  2.1954
   83SAPS  C312 7858   3.000   3.861   9.436 -1.1209 -0.0188  0.3379
   83SAPS  H12X 7859   2.971   3.771   9.494  2.5914 -1.0758  0.6272
   83SAPS  H12Y 7860   3.090   3.911   9.478 -1.0490  0.3133 -0.2016
   83SAPS  C313 7861   3.023   3.810   9.295 -0.4822 -0.0397 -0.7955
   83SAPS  H13X 7862   3.030   3.902   9.235 -0.0929  1.7281  1.8562
   83SAPS  H13Y 7863   2.933   3.745   9.280  0.5501 -1.6649 -0.1435
   83SAPS  C314 7864   3.148   3.717   9.270  0.4903 -0.7443 -0.1202
   83SAPS  H14X 7865   3.125   3.615   9.308  2.6117 -0.9069  0.7909
   83SAPS  H14Y 7866   3.235   3.761   9.324 -2.0462  1.6837  2.1607
   83SAPS  C315 7867   3.178   3.708   9.126 -0.2663 -0.6439  0.3885
   83SAPS  H15X 7868   3.273   3.654   9.111  0.2239 -0.7736  3.6534
   83SAPS  H15Y 7869   3.190   3.806   9.075 -0.8186 -2.4582 -3.3714
   83SAPS  C316 7870   3.072   3.622   9.057  0.1078 -0.5914  0.3236
   83SAPS  H16X 7871   2.970   3.643   9.097 -0.2031 -0.5421 -0.4802
   83SAPS  H16Y 7872   3.099   3.517   9.079  0.7214 -0.2915  0.9951
   83SAPS  C317 7873   3.069   3.653   8.911  0.3599  0.6085  0.3134
   83SAPS  H17X 7874   3.167   3.608   8.884 -0.0944  0.5164 -1.2343
   83SAPS  H17Y 7875   3.086   3.760   8.888 -0.8682  0.8654  0.5884
   83SAPS  C318 7876   2.952   3.610   8.821  0.7611  0.1362  0.6446
   83SAPS  H18X 7877   2.858   3.667   8.835  0.7885  0.5457 -0.7917
   83SAPS  H18Y 7878   2.939   3.501   8.839  1.4543  0.1184  1.0905
   83SAPS  H18Z 7879   2.981   3.615   8.714 -0.2990 -0.1436  0.3396
   84SAPS     N 7880   4.249   2.565  11.245  0.0903  0.2069  0.4486
   84SAPS   HN1 7881   4.253   2.586  11.144 -2.0219 -1.0251  0.0844
   84SAPS   HN2 7882   4.345   2.563  11.284 -0.1095  4.0847  1.4047
   84SAPS   HN3 7883   4.205   2.472  11.258  1.0917 -0.3307 -0.0277
   84SAPS   C12 7884   4.174   2.677  11.302 -0.0460 -0.1278 -1.0557
   84SAPS  H12A 7885   4.070   2.653  11.282 -0.0676 -0.6057 -0.4095
   84SAPS   C13 7886   4.189   2.677  11.453 -0.1868  0.6505  0.0519
   84SAPS  O13A 7887   4.249   2.584  11.512  0.0877  0.6019 -0.7608
   84SAPS  O13B 7888   4.141   2.778  11.514 -0.0212  0.0049 -0.8116
   84SAPS   C11 7889   4.230   2.809  11.240  0.1413  0.3503  0.1079
   84SAPS  H11A 7890   4.339   2.811  11.263  0.4788  0.7610 -1.4655
   84SAPS  H11B 7891   4.176   2.891  11.294 -1.6699 -0.6678 -0.1252
   84SAPS     P 7892   4.155   2.940  11.026 -0.1553 -0.0396  0.5335
   84SAPS   O13 7893   4.006   2.943  11.021 -0.3099 -0.3708  0.1781
   84SAPS   O14 7894   4.217   3.055  11.099 -0.0713  0.9098 -0.5418
   84SAPS   O12 7895   4.203   2.805  11.098 -0.1157 -0.0253 -0.4078
   84SAPS   O11 7896   4.216   2.919  10.883  0.1791  0.0468 -0.0205
   84SAPS    C1 7897   4.219   2.786  10.833 -0.1019 -0.0274 -0.2731
   84SAPS    HA 7898   4.316   2.741  10.862 -0.2902  0.8266  1.7405
   84SAPS    HB 7899   4.130   2.724  10.857  0.2905 -0.7560 -0.6761
   84SAPS    C2 7900   4.243   2.788  10.682  0.6798 -0.3330  0.5510
   84SAPS    HS 7901   4.257   2.679  10.665 -1.4861 -0.5097 -0.2206
   84SAPS   O21 7902   4.361   2.866  10.649  0.0259 -0.2341  0.3968
   84SAPS   C21 7903   4.444   2.814  10.557 -0.8138 -0.1307  0.0448
   84SAPS   O22 7904   4.455   2.698  10.524  0.3283 -0.1816  0.2804
   84SAPS   C22 7905   4.545   2.922  10.496 -0.1112 -0.6645 -0.0067
   84SAPS   H2R 7906   4.504   3.023  10.521 -1.6692 -1.2331 -0.1940
   84SAPS   H2S 7907   4.647   2.908  10.537 -0.3469 -1.8409  0.2037
   84SAPS    C3 7908   4.122   2.840  10.597  0.1905  0.1796 -0.3405
   84SAPS    HX 7909   4.106   2.950  10.607  0.4393  0.0119  2.3003
   84SAPS    HY 7910   4.041   2.792  10.657 -2.1755  2.6168 -1.4464
   84SAPS   O31 7911   4.118   2.785  10.463 -0.0311 -0.0312  0.3060
   84SAPS   C31 7912   4.174   2.864  10.378  0.4417 -0.0140 -0.2980
   84SAPS   O32 7913   4.236   2.967  10.403 -0.2851  0.3128 -0.2070
   84SAPS   C32 7914   4.163   2.814  10.232 -0.0760 -0.1201  0.0615
   84SAPS   H2X 7915   4.057   2.790  10.212 -0.3082  0.8091  0.1178
   84SAPS   H2Y 7916   4.221   2.721  10.219 -1.9832 -1.2121 -0.7362
   84SAPS   C23 7917   4.554   2.921  10.336  0.5580  0.2476 -0.0113
   84SAPS   H3R 7918   4.453   2.926  10.290  1.0158 -0.6795 -1.1543
   84SAPS   H3S 7919   4.603   2.823  10.318  1.4264  0.2199  2.3348
   84SAPS   C24 7920   4.652   3.029  10.282  0.1056  0.3067  0.5352
   84SAPS   H4R 7921   4.662   3.004  10.174 -1.3663  1.9218  0.0089
   84SAPS   H4S 7922   4.746   2.999  10.333 -0.9502  0.7758  2.8048
   84SAPS   C25 7923   4.612   3.167  10.326  0.0382  0.0358 -0.3665
   84SAPS   H5R 7924   4.619   3.189  10.434  1.1623  0.0407 -0.4346
   84SAPS   C26 7925   4.602   3.263  10.233 -0.0917  0.5461  0.5299
   84SAPS   H6R 7926   4.571   3.362  10.269 -1.4903  0.0470  0.7378
   84SAPS   C27 7927   4.633   3.242  10.082 -0.6314  0.1727  0.0462
   84SAPS   H7R 7928   4.585   3.153  10.037  3.2528 -1.5073 -1.0121
   84SAPS   H7S 7929   4.741   3.218  10.081 -0.1666  2.2001 -1.6854
   84SAPS   C28 7930   4.616   3.377  10.007 -0.4346  0.1261  0.0155
   84SAPS   H8R 7931   4.631   3.473  10.059  0.2632 -1.7239  3.3803
   84SAPS   C29 7932   4.582   3.379   9.875 -0.2963  0.5162  0.4223
   84SAPS   H9R 7933   4.589   3.476   9.824 -1.6842 -0.3254 -1.4148
   84SAPS  C210 7934   4.564   3.263   9.782  0.1659  0.1203  0.1406
   84SAPS  H10R 7935   4.468   3.209   9.793 -0.4301  1.1819  0.1416
   84SAPS  H10S 7936   4.642   3.187   9.807 -1.4057 -0.9698  1.7943
   84SAPS  C211 7937   4.562   3.299   9.639  0.4119 -0.4653 -0.3822
   84SAPS  H11R 7938   4.588   3.404   9.622 -0.6546 -0.1692 -0.2114
   84SAPS  C212 7939   4.551   3.217   9.537 -0.1609  0.2408 -0.2420
   84SAPS  H12R 7940   4.555   3.268   9.439 -0.9686 -1.7584 -1.3294
   84SAPS  C213 7941   4.522   3.068   9.541 -0.2235  0.3452 -0.8172
   84SAPS  H13R 7942   4.424   3.050   9.493 -0.1084  0.8934 -1.2559
   84SAPS  H13S 7943   4.520   3.027   9.644 -2.6337  2.7792  0.1367
   84SAPS  C214 7944   4.632   2.983   9.474  0.9548 -0.9149 -0.0304
   84SAPS  H14R 7945   4.732   3.013   9.510  0.8863 -1.5926  0.7505
   84SAPS  C215 7946   4.620   2.889   9.382 -0.0879 -0.2936  0.2318
   84SAPS  H15R 7947   4.708   2.852   9.328 -0.2504 -1.7702  0.9306
   84SAPS  C216 7948   4.492   2.838   9.325  0.2320 -0.6742  0.1285
   84SAPS  H16R 7949   4.399   2.896   9.344 -0.8348 -1.9314 -1.1124
   84SAPS  H16S 7950   4.473   2.739   9.372  0.4831 -0.7142  0.1430
   84SAPS  C217 7951   4.499   2.814   9.175  0.7050  0.1393 -0.1925
   84SAPS  H17R 7952   4.568   2.728   9.158 -1.1331 -0.9629 -2.2842
   84SAPS  H17S 7953   4.546   2.903   9.127 -0.4108  1.0153  0.3202
   84SAPS  C218 7954   4.366   2.778   9.113 -0.2794 -0.2661 -0.5187
   84SAPS  H18R 7955   4.321   2.687   9.159  1.9294 -1.4092 -0.5633
   84SAPS  H18S 7956   4.391   2.744   9.010 -2.7637 -5.0137  0.2980
   84SAPS  C219 7957   4.257   2.894   9.117 -0.3578  0.2544  0.6245
   84SAPS  H19R 7958   4.300   2.993   9.093  1.2085 -0.4847  0.3122
   84SAPS  H19S 7959   4.216   2.910   9.219 -1.9571 -1.7097  0.3414
   84SAPS  C220 7960   4.142   2.861   9.018  0.2192  0.1074 -0.9501
   84SAPS  H20R 7961   4.179   2.844   8.915  1.6701  0.1915 -0.4619
   84SAPS  H20S 7962   4.071   2.945   9.026 -0.5924 -0.6426 -0.0411
   84SAPS  H20T 7963   4.084   2.776   9.061 -1.4096  1.3171 -0.7128
   84SAPS   C33 7964   4.209   2.919  10.130 -0.4723  0.3685 -0.5657
   84SAPS   H3X 7965   4.316   2.948  10.130 -0.3956  0.0802 -1.3253
   84SAPS   H3Y 7966   4.158   3.017  10.138  0.2623  0.7618 -0.6654
   84SAPS   C34 7967   4.208   2.860   9.981  0.3279  0.3172 -1.0563
   84SAPS   H4X 7968   4.243   2.939   9.910 -1.0721  1.0108 -0.9768
   84SAPS   H4Y 7969   4.107   2.827   9.952 -0.1255  1.7643 -1.1831
   84SAPS   C35 7970   4.310   2.749   9.955  0.3945 -0.3202  0.6059
   84SAPS   H5X 7971   4.279   2.662  10.017 -0.0886  1.3644  2.8022
   84SAPS   H5Y 7972   4.409   2.779   9.995  0.0170 -0.4593  1.6610
   84SAPS   C36 7973   4.320   2.683   9.807 -0.1538  0.3588  0.0850
   84SAPS   H6X 7974   4.413   2.697   9.748  2.0879 -2.6491  2.6749
   84SAPS   H6Y 7975   4.237   2.725   9.746  0.9048  3.3421  0.6470
   84SAPS   C37 7976   4.301   2.529   9.814 -0.4585 -0.6730 -0.3128
   84SAPS   H7X 7977   4.200   2.510   9.857  0.3540 -1.3199  1.3456
   84SAPS   H7Y 7978   4.381   2.490   9.880 -1.7140  1.1050  2.3332
   84SAPS   C38 7979   4.317   2.469   9.670  0.1673  0.0277 -0.0804
   84SAPS   H8X 7980   4.305   2.359   9.686  3.1065 -0.8673 -3.3801
   84SAPS   H8Y 7981   4.420   2.491   9.635 -0.5482 -2.3061 -3.8865
   84SAPS   C39 7982   4.228   2.511   9.548 -0.1649  0.6781  0.7319
   84SAPS   H9X 7983   4.260   2.611   9.510  1.1874  0.1954  0.5502
   84SAPS   H9Y 7984   4.126   2.523   9.591 -0.7083 -2.2697  0.4006
   84SAPS  C310 7985   4.228   2.412   9.435 -0.5610  0.2162  0.0064
   84SAPS  H10X 7986   4.210   2.308   9.468 -0.4806  0.0576 -0.4425
   84SAPS  H10Y 7987   4.322   2.423   9.376 -1.6268  3.9250 -1.1174
   84SAPS  C311 7988   4.111   2.450   9.333 -0.0629 -0.0494 -0.5564
   84SAPS  H11X 7989   4.114   2.561   9.333 -0.9584 -0.0218  0.1981
   84SAPS  H11Y 7990   4.014   2.414   9.373  1.4353 -0.8326  2.4870
   84SAPS  C312 7991   4.142   2.399   9.198 -0.1401 -0.1721 -0.0584
   84SAPS  H12X 7992   4.165   2.290   9.197 -1.6220 -0.4984 -1.1260
   84SAPS  H12Y 7993   4.236   2.445   9.161 -0.0638  0.6266  1.0766
   84SAPS  C313 7994   4.030   2.443   9.104 -0.1751  0.5661 -0.3923
   84SAPS  H13X 7995   4.000   2.549   9.116 -0.4985  0.5083 -0.6878
   84SAPS  H13Y 7996   3.944   2.373   9.111  0.1936 -0.3712 -4.0670
   84SAPS  C314 7997   4.084   2.431   8.959  0.6871  0.0134  0.6560
   84SAPS  H14X 7998   4.131   2.330   8.959  1.9027  0.5693  0.8644
   84SAPS  H14Y 7999   4.153   2.513   8.930 -1.2839  1.8297  1.0294
   84SAPS  C315 8000   3.971   2.419   8.859 -0.3082  0.1526 -0.1129
   84SAPS  H15X 8001   3.885   2.369   8.908 -1.0824 -0.5009 -2.1129
   84SAPS  H15Y 8002   4.013   2.369   8.769 -2.0657 -0.0760 -0.8129
   84SAPS  C316 8003   3.949   2.562   8.803  0.2100  0.5258 -0.5890
   84SAPS  H16X 8004   4.030   2.585   8.731  0.9419 -2.0463 -0.6429
   84SAPS  H16Y 8005   3.961   2.634   8.886 -1.9461 -1.4008  1.4964
   84SAPS  C317 8006   3.813   2.580   8.738 -0.2260 -0.0303 -0.5358
   84SAPS  H17X 8007   3.734   2.562   8.813 -0.2282  1.3272 -0.1926
   84SAPS  H17Y 8008   3.814   2.507   8.655  1.2886 -2.2845  1.3868
   84SAPS  C318 8009   3.816   2.724   8.694 -0.5618  0.1685  0.6719
   84SAPS  H18X 8010   3.868   2.737   8.596  1.4192 -1.1207  1.5383
   84SAPS  H18Y 8011   3.848   2.802   8.767  1.5544  0.6745 -0.7228
   84SAPS  H18Z 8012   3.711   2.758   8.678 -2.2958 -3.9201  2.6353
   85SAPS     N 8013   1.316   5.078  11.042 -0.1813 -0.0522  0.0138
   85SAPS   HN1 8014   1.340   5.027  10.955  0.7890  0.0265  0.2257
   85SAPS   HN2 8015   1.364   5.023  11.117  0.4131  0.3538 -0.0607
   85SAPS   HN3 8016   1.215   5.060  11.061  0.2329 -2.4111  0.1672
   85SAPS   C12 8017   1.346   5.229  11.046 -0.3317 -0.7925 -0.4444
   85SAPS  H12A 8018   1.314   5.260  11.144  2.0030  2.3057 -0.5544
   85SAPS   C13 8019   1.492   5.262  11.030 -0.3966 -0.6761 -0.6028
   85SAPS  O13A 8020   1.577   5.175  11.077 -0.4008 -0.3309  0.1303
   85SAPS  O13B 8021   1.528   5.384  11.015  0.0859 -0.2216  0.2188
   85SAPS   C11 8022   1.262   5.303  10.937 -1.1352 -0.3824  1.1814
   85SAPS  H11A 8023   1.317   5.277  10.844 -0.5267 -0.2851  1.5127
   85SAPS  H11B 8024   1.274   5.411  10.957  2.7312 -0.5486  0.0297
   85SAPS     P 8025   1.008   5.320  10.859  0.0659 -0.0312 -0.4588
   85SAPS   O13 8026   0.902   5.366  10.960 -0.0732  0.0729 -0.2919
   85SAPS   O14 8027   1.054   5.415  10.757  0.9617  0.5625  0.0892
   85SAPS   O12 8028   1.130   5.255  10.938 -0.1131  0.4441  0.0294
   85SAPS   O11 8029   0.933   5.213  10.778 -0.4829 -0.2046  0.7485
   85SAPS    C1 8030   0.941   5.070  10.787 -0.2406 -0.0067  0.0635
   85SAPS    HA 8031   0.953   5.043  10.894 -0.3631 -2.4561 -0.4991
   85SAPS    HB 8032   0.846   5.022  10.755  0.2526 -1.9033  1.3698
   85SAPS    C2 8033   1.047   5.026  10.688 -0.2380  0.2681 -0.4711
   85SAPS    HS 8034   1.136   5.085  10.719  0.0413 -0.9614  1.1109
   85SAPS   O21 8035   0.999   5.054  10.559 -0.4780 -0.2896 -0.1911
   85SAPS   C21 8036   1.076   5.135  10.484  0.3391  0.1698 -0.1280
   85SAPS   O22 8037   1.183   5.181  10.520 -0.1768  0.2423  0.1461
   85SAPS   C22 8038   1.009   5.166  10.350 -0.0953  0.6997 -0.0334
   85SAPS   H2R 8039   1.011   5.070  10.294  0.5314 -0.2975  1.6605
   85SAPS   H2S 8040   0.901   5.186  10.372  0.3423  1.8454  1.1152
   85SAPS    C3 8041   1.094   4.874  10.700  0.0125 -0.2403  0.7288
   85SAPS    HX 8042   1.010   4.809  10.666  1.9310 -2.5281  0.2136
   85SAPS    HY 8043   1.108   4.850  10.808 -0.6428 -1.5115  0.5411
   85SAPS   O31 8044   1.207   4.839  10.614  0.5862  0.3266 -0.1661
   85SAPS   C31 8045   1.319   4.891  10.677 -0.1119 -0.5843 -0.4290
   85SAPS   O32 8046   1.323   4.945  10.788 -0.5216 -0.1569 -0.2624
   85SAPS   C32 8047   1.437   4.867  10.590 -0.2369  0.8140 -0.4790
   85SAPS   H2X 8048   1.435   4.766  10.546  2.2615  0.0032  1.1015
   85SAPS   H2Y 8049   1.527   4.881  10.655  1.9164  0.8373 -3.3958
   85SAPS   C23 8050   1.081   5.291  10.279 -0.5781  0.3868 -0.4590
   85SAPS   H3R 8051   1.189   5.267  10.267 -0.9114 -1.7928  0.5123
   85SAPS   H3S 8052   1.059   5.375  10.347  1.5333 -1.2268  2.3651
   85SAPS   C24 8053   1.031   5.324  10.139  0.0359  0.1387  0.2584
   85SAPS   H4R 8054   0.924   5.295  10.134 -0.4771  2.1319 -0.9049
   85SAPS   H4S 8055   1.078   5.250  10.071 -0.2417  0.6588 -0.5097
   85SAPS   C25 8056   1.043   5.472  10.088 -0.0914 -0.1964 -0.4547
   85SAPS   H5R 8057   1.035   5.555  10.159 -1.6922 -0.5955 -0.1567
   85SAPS   C26 8058   1.069   5.506   9.960 -0.7819 -0.3664  0.0306
   85SAPS   H6R 8059   1.089   5.612   9.939 -0.7976 -0.2002  0.8477
   85SAPS   C27 8060   1.105   5.415   9.838 -0.7993 -0.7764  0.5189
   85SAPS   H7R 8061   1.142   5.315   9.871 -0.6822 -0.5452  1.0944
   85SAPS   H7S 8062   1.189   5.462   9.782 -2.6977  1.0522 -0.8593
   85SAPS   C28 8063   0.984   5.397   9.760  0.9014  0.4246  0.6551
   85SAPS   H8R 8064   0.914   5.330   9.811  2.8052 -1.2000  1.2335
   85SAPS   C29 8065   0.948   5.445   9.637  0.5823  0.1369 -0.0832
   85SAPS   H9R 8066   0.850   5.429   9.589 -0.6167  1.6221  1.8004
   85SAPS  C210 8067   1.043   5.531   9.561 -0.8684 -0.6951 -0.5123
   85SAPS  H10R 8068   1.040   5.494   9.456  1.0638 -0.8228 -0.5345
   85SAPS  H10S 8069   1.149   5.510   9.585 -0.3303  0.6824 -1.6330
   85SAPS  C211 8070   0.997   5.674   9.587 -0.0644 -0.6619  0.0238
   85SAPS  H11R 8071   0.998   5.703   9.693 -0.3032  0.5362 -0.2976
   85SAPS  C212 8072   0.964   5.767   9.496 -0.4929 -0.3134 -1.0436
   85SAPS  H12R 8073   0.939   5.868   9.534  1.7969 -0.2055  0.2140
   85SAPS  C213 8074   0.976   5.762   9.344  0.0383 -0.2926  0.3981
   85SAPS  H13R 8075   1.025   5.671   9.304 -2.2307 -1.9844  1.3392
   85SAPS  H13S 8076   1.046   5.844   9.319  1.5546 -1.5925  0.3544
   85SAPS  C214 8077   0.841   5.784   9.284  1.0094 -0.3267 -0.7419
   85SAPS  H14R 8078   0.755   5.783   9.353  0.4299  3.1408 -1.3290
   85SAPS  C215 8079   0.819   5.818   9.158 -0.2994 -0.3975  0.2888
   85SAPS  H15R 8080   0.717   5.817   9.118 -0.9620 -0.0381  1.9060
   85SAPS  C216 8081   0.928   5.842   9.057  0.2417  0.0123  0.3210
   85SAPS  H16R 8082   0.998   5.757   9.048  2.4890  1.9393 -1.1659
   85SAPS  H16S 8083   0.978   5.938   9.086  0.4751  0.6915 -2.2131
   85SAPS  C217 8084   0.880   5.858   8.910 -0.5134  0.2747  0.0508
   85SAPS  H17R 8085   0.962   5.874   8.837 -0.1755 -0.9997  0.1468
   85SAPS  H17S 8086   0.808   5.943   8.905 -0.9317 -0.0218  0.8944
   85SAPS  C218 8087   0.816   5.729   8.859 -0.0312 -0.1963  0.4767
   85SAPS  H18R 8088   0.706   5.717   8.872 -0.4674  1.9211 -1.0999
   85SAPS  H18S 8089   0.872   5.643   8.902 -1.1621  0.1297  2.6529
   85SAPS  C219 8090   0.825   5.710   8.708  0.1672  0.0999 -0.4882
   85SAPS  H19R 8091   0.928   5.729   8.671  0.3309 -0.5257 -0.3631
   85SAPS  H19S 8092   0.760   5.788   8.663  0.7266 -0.2614 -1.9462
   85SAPS  C220 8093   0.771   5.571   8.659 -0.7047  0.5092  0.2379
   85SAPS  H20R 8094   0.772   5.550   8.550 -0.3105 -1.6933  0.6369
   85SAPS  H20S 8095   0.675   5.549   8.711  0.0060  0.8273  1.7041
   85SAPS  H20T 8096   0.831   5.485   8.694 -1.2999 -0.9755 -2.2470
   85SAPS   C33 8097   1.445   4.980  10.478  0.2893  0.4054  0.2946
   85SAPS   H3X 8098   1.553   5.000  10.462  0.2036  0.3740 -0.3501
   85SAPS   H3Y 8099   1.407   5.072  10.526 -0.0054  0.6731 -0.4522
   85SAPS   C34 8100   1.375   4.932  10.356  0.0166  0.1636  0.2944
   85SAPS   H4X 8101   1.267   4.928  10.381 -0.4126  0.1224 -1.5061
   85SAPS   H4Y 8102   1.416   4.835  10.322 -0.5830  1.2667 -3.7785
   85SAPS   C35 8103   1.397   5.030  10.243 -0.3683  0.2125  0.1650
   85SAPS   H5X 8104   1.501   5.019  10.205 -1.0787 -2.6742 -1.1579
   85SAPS   H5Y 8105   1.393   5.133  10.284 -2.9105 -0.6511  2.2170
   85SAPS   C36 8106   1.298   5.007  10.127  0.3818 -0.6752  0.7120
   85SAPS   H6X 8107   1.196   5.040  10.154  0.7273 -0.0119  1.2378
   85SAPS   H6Y 8108   1.292   4.900  10.100 -0.6301 -0.3676 -0.2799
   85SAPS   C37 8109   1.354   5.086  10.004  0.0772 -0.1326 -0.8639
   85SAPS   H7X 8110   1.461   5.062   9.983  0.9647  3.2511 -0.5570
   85SAPS   H7Y 8111   1.353   5.194  10.028  1.9127  0.1858 -2.0778
   85SAPS   C38 8112   1.282   5.068   9.871  0.1988 -0.0487  0.0614
   85SAPS   H8X 8113   1.176   5.097   9.883 -0.0433 -0.7846 -0.2735
   85SAPS   H8Y 8114   1.280   4.962   9.838 -0.9416 -0.1454  0.4450
   85SAPS   C39 8115   1.354   5.144   9.759 -0.3719 -0.3207 -0.0710
   85SAPS   H9X 8116   1.461   5.115   9.754  0.0608  0.8734  1.8983
   85SAPS   H9Y 8117   1.343   5.252   9.785 -0.6929 -0.2717 -0.3988
   85SAPS  C310 8118   1.279   5.139   9.622  0.1901 -0.9164 -0.5986
   85SAPS  H10X 8119   1.174   5.164   9.649  0.0904 -1.5238 -0.4095
   85SAPS  H10Y 8120   1.278   5.037   9.578 -0.2862 -0.2229 -2.2110
   85SAPS  C311 8121   1.327   5.248   9.526  0.2146 -0.5843 -0.1695
   85SAPS  H11X 8122   1.425   5.229   9.477 -0.0741  0.5490 -1.2249
   85SAPS  H11Y 8123   1.331   5.341   9.585 -0.5563  0.7722 -2.1791
   85SAPS  C312 8124   1.222   5.275   9.423  0.2046 -0.2567  1.0443
   85SAPS  H12X 8125   1.252   5.367   9.368  0.6426 -1.1335 -0.1926
   85SAPS  H12Y 8126   1.122   5.293   9.468 -0.7539 -1.5151 -0.5515
   85SAPS  C313 8127   1.200   5.160   9.325 -0.0609  0.3126  0.2428
   85SAPS  H13X 8128   1.157   5.073   9.379  0.4163  0.6936  1.2589
   85SAPS  H13Y 8129   1.300   5.141   9.281  0.4470 -1.1507  1.9816
   85SAPS  C314 8130   1.108   5.192   9.199  0.0331  0.4873  0.4654
   85SAPS  H14X 8131   1.008   5.223   9.237 -0.4414  0.3623 -0.6393
   85SAPS  H14Y 8132   1.099   5.093   9.148  0.8607  0.8678 -0.4269
   85SAPS  C315 8133   1.163   5.300   9.103  0.4503 -0.7312 -0.6383
   85SAPS  H15X 8134   1.273   5.286   9.111  0.8669  1.8291 -1.3869
   85SAPS  H15Y 8135   1.138   5.400   9.146  1.9705 -0.2619 -0.8113
   85SAPS  C316 8136   1.118   5.268   8.965  0.3418  0.3363  0.8724
   85SAPS  H16X 8137   1.008   5.264   8.952 -0.0142  0.6833  3.5267
   85SAPS  H16Y 8138   1.153   5.167   8.932 -1.5551 -0.4809  1.3316
   85SAPS  C317 8139   1.186   5.357   8.868 -0.3850  0.2266  1.0580
   85SAPS  H17X 8140   1.294   5.339   8.885 -0.2981 -1.6248 -1.2001
   85SAPS  H17Y 8141   1.170   5.462   8.902  0.8925  0.2436  1.6086
   85SAPS  C318 8142   1.146   5.344   8.719  0.6115 -0.3732 -0.5438
   85SAPS  H18X 8143   1.171   5.240   8.689 -0.4199 -0.8133  0.0879
   85SAPS  H18Y 8144   1.214   5.402   8.653 -0.9764  1.0801 -0.9220
   85SAPS  H18Z 8145   1.040   5.374   8.705  0.7536 -0.0691 -0.9569
   86SAPS     N 8146   3.160   5.573  11.105 -0.2787 -0.0898  0.0282
   86SAPS   HN1 8147   3.146   5.563  11.207  2.4369  0.8916  0.5182
   86SAPS   HN2 8148   3.098   5.646  11.064  1.4995  1.4792  0.0938
   86SAPS   HN3 8149   3.130   5.485  11.058 -0.0945 -0.4378  0.5610
   86SAPS   C12 8150   3.300   5.583  11.052 -0.6807 -0.4306 -0.1262
   86SAPS  H12A 8151   3.285   5.599  10.946 -2.7348  1.1914  0.3852
   86SAPS   C13 8152   3.378   5.697  11.119 -0.0470  0.1633 -0.4362
   86SAPS  O13A 8153   3.334   5.746  11.223 -0.3372 -0.2356 -0.3003
   86SAPS  O13B 8154   3.500   5.726  11.079 -0.3742  0.0875 -0.6885
   86SAPS   C11 8155   3.375   5.445  11.070 -0.1873  0.5861  0.1024
   86SAPS  H11A 8156   3.381   5.422  11.179 -1.3974 -1.3802 -0.2300
   86SAPS  H11B 8157   3.474   5.468  11.026  0.7875 -2.2014  0.7494
   86SAPS     P 8158   3.373   5.266  10.874 -0.4052 -0.2407 -0.1743
   86SAPS   O13 8159   3.495   5.190  10.901 -0.5116 -0.2624 -0.4146
   86SAPS   O14 8160   3.254   5.194  10.824  0.0068 -0.2300 -1.0582
   86SAPS   O12 8161   3.325   5.331  11.012 -0.3388  0.4357 -0.1570
   86SAPS   O11 8162   3.410   5.394  10.795 -0.2723  0.3026 -0.1413
   86SAPS    C1 8163   3.384   5.407  10.655 -0.4667 -0.0588  0.5126
   86SAPS    HA 8164   3.284   5.368  10.627  1.1215 -2.9990 -1.3011
   86SAPS    HB 8165   3.379   5.512  10.621  0.2549 -0.0486  0.4369
   86SAPS    C2 8166   3.472   5.326  10.563 -0.5864  0.4051  0.2868
   86SAPS    HS 8167   3.448   5.362  10.461 -0.7532  1.4029  0.6740
   86SAPS   O21 8168   3.436   5.193  10.584 -0.5290  0.0766  0.4556
   86SAPS   C21 8169   3.392   5.128  10.473  0.2507  0.7042  0.2787
   86SAPS   O22 8170   3.376   5.178  10.364  0.3884  0.6155 -0.6494
   86SAPS   C22 8171   3.382   4.983  10.517  0.4310  0.3500  0.3398
   86SAPS   H2R 8172   3.341   4.982  10.620  2.4463 -3.1256  1.1895
   86SAPS   H2S 8173   3.311   4.923  10.456  1.0120  1.4464 -1.4769
   86SAPS    C3 8174   3.620   5.345  10.594  0.9689 -0.1783 -0.5666
   86SAPS    HX 8175   3.652   5.305  10.692  0.6682 -0.4536 -0.5793
   86SAPS    HY 8176   3.649   5.453  10.593  1.1494 -0.1970  1.1906
   86SAPS   O31 8177   3.692   5.284  10.485 -0.3696 -0.4085 -0.3627
   86SAPS   C31 8178   3.790   5.202  10.512 -0.3393 -0.8606 -0.0724
   86SAPS   O32 8179   3.833   5.176  10.623 -0.2478  0.0844  1.0786
   86SAPS   C32 8180   3.856   5.165  10.378  0.6823  0.0361  0.3434
   86SAPS   H2X 8181   3.945   5.230  10.363  0.2584  0.5862  0.2138
   86SAPS   H2Y 8182   3.793   5.205  10.296  1.3829 -0.0538 -0.2531
   86SAPS   C23 8183   3.512   4.893  10.503  0.2886 -0.6306 -0.3756
   86SAPS   H3R 8184   3.515   4.809  10.577  1.3759  0.6114  1.0307
   86SAPS   H3S 8185   3.589   4.967  10.534 -0.3400  0.3929 -1.2449
   86SAPS   C24 8186   3.540   4.839  10.363 -0.4230 -0.0549 -0.2470
   86SAPS   H4R 8187   3.632   4.778  10.380  0.4919  1.2336 -0.5713
   86SAPS   H4S 8188   3.547   4.928  10.299 -0.0673  1.4186  1.7897
   86SAPS   C25 8189   3.435   4.754  10.299  0.1282  0.0608 -0.5595
   86SAPS   H5R 8190   3.374   4.699  10.372  2.2079 -2.6231 -0.7627
   86SAPS   C26 8191   3.403   4.757  10.168 -0.7060 -0.3493  0.3346
   86SAPS   H6R 8192   3.318   4.694  10.136 -0.1129 -0.6385 -0.6572
   86SAPS   C27 8193   3.465   4.837  10.062  0.0130  0.5135  0.6035
   86SAPS   H7R 8194   3.461   4.795   9.959  1.5605  1.2327  0.2303
   86SAPS   H7S 8195   3.575   4.848  10.075  0.2183 -1.4230  0.6460
   86SAPS   C28 8196   3.400   4.975  10.051 -0.1690  0.3357  0.3437
   86SAPS   H8R 8197   3.399   5.025  10.149 -1.1995  1.0522 -0.0316
   86SAPS   C29 8198   3.350   5.028   9.938  0.2942  0.4357 -0.6011
   86SAPS   H9R 8199   3.302   5.125   9.952  0.0276  0.2619 -0.3203
   86SAPS  C210 8200   3.334   4.978   9.795 -0.5578  0.2047  0.3568
   86SAPS  H10R 8201   3.383   4.879   9.779 -0.1654  0.6276 -1.1239
   86SAPS  H10S 8202   3.376   5.054   9.726  1.4649  0.0135  1.3285
   86SAPS  C211 8203   3.187   4.953   9.776  0.0318  0.7283  0.7657
   86SAPS  H11R 8204   3.128   4.967   9.867 -1.5881  0.4068 -0.2122
   86SAPS  C212 8205   3.122   4.917   9.659 -0.1974  0.1350  0.9257
   86SAPS  H12R 8206   3.012   4.910   9.667 -0.3132  1.0202  0.0698
   86SAPS  C213 8207   3.192   4.880   9.533  0.8357 -0.1680 -0.4390
   86SAPS  H13R 8208   3.239   4.969   9.487 -0.0754  0.1954 -0.6913
   86SAPS  H13S 8209   3.112   4.863   9.458  1.2982 -1.6733 -0.5923
   86SAPS  C214 8210   3.295   4.773   9.522  0.3685  0.7496 -0.0152
   86SAPS  H14R 8211   3.380   4.775   9.593 -0.5730  0.6082  1.1290
   86SAPS  C215 8212   3.309   4.682   9.429  0.0474 -0.0490 -0.1523
   86SAPS  H15R 8213   3.399   4.618   9.432  1.0070  1.3366  2.0935
   86SAPS  C216 8214   3.228   4.660   9.297  0.3991  0.6635  0.4364
   86SAPS  H16R 8215   3.206   4.753   9.240  1.0330 -0.7571 -2.1888
   86SAPS  H16S 8216   3.134   4.606   9.322  1.2028 -1.1950 -0.4574
   86SAPS  C217 8217   3.288   4.568   9.183  0.3799 -0.3875 -0.0910
   86SAPS  H17R 8218   3.324   4.474   9.231  2.4188  0.1935 -0.4125
   86SAPS  H17S 8219   3.376   4.620   9.139  0.1044  0.6200  0.5462
   86SAPS  C218 8220   3.194   4.538   9.061  0.7455  0.1705  0.2093
   86SAPS  H18R 8221   3.130   4.626   9.037 -0.0174 -0.0074  1.5269
   86SAPS  H18S 8222   3.130   4.452   9.092  0.5171  0.1445 -0.3186
   86SAPS  C219 8223   3.277   4.506   8.941  0.8369 -0.4992 -0.6411
   86SAPS  H19R 8224   3.354   4.434   8.976 -0.3628 -1.8364 -0.7467
   86SAPS  H19S 8225   3.336   4.591   8.900 -0.5127  0.3057 -0.9623
   86SAPS  C220 8226   3.191   4.444   8.835  0.1324 -0.5654  0.3163
   86SAPS  H20R 8227   3.156   4.349   8.879  1.1549 -1.3722 -0.5534
   86SAPS  H20S 8228   3.253   4.411   8.748 -0.0151  0.5126 -0.2056
   86SAPS  H20T 8229   3.106   4.508   8.805 -0.0166 -0.0947  1.7418
   86SAPS   C33 8230   3.874   5.018  10.357  1.5554 -0.9774 -1.0155
   86SAPS   H3X 8231   3.779   4.959  10.358 -0.4077  2.0626  0.8264
   86SAPS   H3Y 8232   3.933   4.969  10.437  1.8807  1.1102  0.0668
   86SAPS   C34 8233   3.961   4.995  10.238 -0.4076  0.3257  0.3507
   86SAPS   H4X 8234   4.008   4.895  10.248  0.2023  0.5942  0.1998
   86SAPS   H4Y 8235   4.037   5.076  10.235 -0.3817  0.2795 -0.6123
   86SAPS   C35 8236   3.883   5.002  10.106 -0.1316 -0.1360 -0.1438
   86SAPS   H5X 8237   3.816   5.091  10.099 -0.5904 -0.3320  1.6250
   86SAPS   H5Y 8238   3.813   4.916  10.104  1.2964 -1.2923 -0.9815
   86SAPS   C36 8239   3.974   5.000   9.975  0.2138 -0.4227 -0.0600
   86SAPS   H6X 8240   4.051   4.922   9.988  0.4508  0.0542  1.4626
   86SAPS   H6Y 8241   4.015   5.102   9.961  0.8434 -0.8884 -1.6654
   86SAPS   C37 8242   3.880   4.971   9.856 -0.3198  0.0661  0.3451
   86SAPS   H7X 8243   3.819   5.061   9.835  1.0483  0.9640  0.1681
   86SAPS   H7Y 8244   3.809   4.887   9.875 -0.1034 -0.5573 -1.4968
   86SAPS   C38 8245   3.957   4.940   9.721  0.1995 -0.2416 -0.5201
   86SAPS   H8X 8246   4.023   4.851   9.731 -0.6747 -0.8560 -0.2131
   86SAPS   H8Y 8247   4.016   5.032   9.699  0.8009 -0.9688 -1.9535
   86SAPS   C39 8248   3.842   4.910   9.619 -0.4427  0.2154 -0.0020
   86SAPS   H9X 8249   3.783   4.824   9.657 -0.6345 -0.1237 -1.0590
   86SAPS   H9Y 8250   3.881   4.877   9.520 -0.5490 -0.5399  0.2034
   86SAPS  C310 8251   3.724   5.010   9.596  0.7016 -0.4767 -0.2590
   86SAPS  H10X 8252   3.754   5.108   9.554  3.4037 -0.4008  1.6978
   86SAPS  H10Y 8253   3.665   5.029   9.688  0.3827 -0.8311 -0.3887
   86SAPS  C311 8254   3.609   4.965   9.497  0.1313 -0.3372  0.4463
   86SAPS  H11X 8255   3.520   5.031   9.506 -0.4375 -1.1006  0.3999
   86SAPS  H11Y 8256   3.577   4.862   9.523 -0.8910 -0.1253  0.0434
   86SAPS  C312 8257   3.644   4.964   9.348  0.2319  0.1867  0.5350
   86SAPS  H12X 8258   3.729   4.899   9.318 -0.3327 -0.6907  0.8002
   86SAPS  H12Y 8259   3.678   5.067   9.326 -0.6827 -0.0103 -2.0808
   86SAPS  C313 8260   3.524   4.940   9.255 -0.0611  0.4408  0.3869
   86SAPS  H13X 8261   3.468   5.036   9.259 -1.6446 -0.4031 -1.0300
   86SAPS  H13Y 8262   3.456   4.859   9.287 -2.1872  2.9462  2.4606
   86SAPS  C314 8263   3.567   4.919   9.109 -0.2033 -0.2699  0.2034
   86SAPS  H14X 8264   3.636   4.832   9.102  1.3668  1.0328 -0.9670
   86SAPS  H14Y 8265   3.631   4.999   9.065  2.7610 -1.2743  2.5310
   86SAPS  C315 8266   3.463   4.881   9.008 -0.0690 -0.4701 -0.4236
   86SAPS  H15X 8267   3.382   4.954   9.027 -0.6944 -1.3050  0.1740
   86SAPS  H15Y 8268   3.417   4.783   9.035 -0.2849 -0.0707  0.6677
   86SAPS  C316 8269   3.511   4.897   8.858 -0.2957 -0.9721 -0.2828
   86SAPS  H16X 8270   3.607   4.844   8.844  0.5898  0.7650 -0.8969
   86SAPS  H16Y 8271   3.538   5.004   8.847  2.4549 -1.6989 -0.7943
   86SAPS  C317 8272   3.402   4.855   8.752 -0.2829 -0.2006  0.5148
   86SAPS  H17X 8273   3.312   4.906   8.792 -0.0154 -0.0573  0.9433
   86SAPS  H17Y 8274   3.404   4.744   8.763 -1.4909 -0.1992  0.7634
   86SAPS  C318 8275   3.445   4.903   8.618  0.5491  0.0785  0.0076
   86SAPS  H18X 8276   3.484   5.006   8.621 -2.1335  1.1016  1.6713
   86SAPS  H18Y 8277   3.371   4.888   8.536  0.3265 -0.7253  0.3491
   86SAPS  H18Z 8278   3.535   4.842   8.593 -0.1016 -0.6009 -0.7254
   87SAPS     N 8279   2.474   5.484  11.000  0.4629 -0.1002  0.2291
   87SAPS   HN1 8280   2.395   5.421  11.022 -0.9628  1.0378 -1.4778
   87SAPS   HN2 8281   2.445   5.583  11.013  1.0905  0.2264 -0.7590
   87SAPS   HN3 8282   2.520   5.456  10.911  0.7634 -1.3895  0.7682
   87SAPS   C12 8283   2.567   5.462  11.124  0.0602 -0.0819 -0.3927
   87SAPS  H12A 8284   2.532   5.529  11.202  0.3038  0.1266 -0.4602
   87SAPS   C13 8285   2.552   5.310  11.176 -0.4675 -0.3382 -0.1701
   87SAPS  O13A 8286   2.461   5.239  11.130  0.1225 -0.0696  0.1062
   87SAPS  O13B 8287   2.609   5.281  11.278  0.5151  0.2419  0.4273
   87SAPS   C11 8288   2.711   5.487  11.085  0.1633  0.1507  0.1138
   87SAPS  H11A 8289   2.787   5.481  11.165  1.0250 -0.9834 -0.7738
   87SAPS  H11B 8290   2.717   5.595  11.064  2.0741  0.8110  3.6102
   87SAPS     P 8291   2.885   5.335  10.941 -0.1138  0.2696 -0.0531
   87SAPS   O13 8292   2.996   5.383  11.030 -0.1629  0.3993  0.1789
   87SAPS   O14 8293   2.849   5.188  10.939  0.1658  0.0067 -0.5296
   87SAPS   O12 8294   2.747   5.412  10.970 -0.4483  0.4336 -0.3675
   87SAPS   O11 8295   2.914   5.393  10.793 -0.1480  0.2720 -0.2666
   87SAPS    C1 8296   2.852   5.518  10.758  0.2978 -0.1518 -0.1372
   87SAPS    HA 8297   2.743   5.508  10.742  0.2550  0.0376  0.0427
   87SAPS    HB 8298   2.863   5.600  10.832 -0.5739 -0.1533 -0.0046
   87SAPS    C2 8299   2.923   5.571  10.632  0.2306  0.5055 -0.1919
   87SAPS    HS 8300   2.871   5.666  10.606 -0.3878  0.3142  0.3222
   87SAPS   O21 8301   2.910   5.476  10.521  0.5958 -0.0442  0.2056
   87SAPS   C21 8302   2.787   5.459  10.476  0.4440 -0.2171  0.2324
   87SAPS   O22 8303   2.679   5.505  10.517 -0.0088  0.4073 -0.4943
   87SAPS   C22 8304   2.796   5.354  10.371 -0.3866  0.1792 -0.7274
   87SAPS   H2R 8305   2.903   5.328  10.356 -0.6237 -1.4254  0.2841
   87SAPS   H2S 8306   2.759   5.263  10.421  0.4599  0.8114  1.1013
   87SAPS    C3 8307   3.074   5.600  10.653  0.1765 -0.0818  0.0273
   87SAPS    HX 8308   3.110   5.514  10.713 -4.1863 -1.8695  0.2473
   87SAPS    HY 8309   3.080   5.682  10.728  0.2433  1.7571 -1.9386
   87SAPS   O31 8310   3.161   5.622  10.538  0.6734  0.0631  0.0853
   87SAPS   C31 8311   3.135   5.730  10.473  0.4614  0.1389  0.4532
   87SAPS   O32 8312   3.042   5.808  10.495  0.6544 -0.9435 -0.3388
   87SAPS   C32 8313   3.218   5.750  10.352  0.5585 -0.0292  0.4604
   87SAPS   H2X 8314   3.282   5.659  10.340 -2.0888 -1.5439 -3.0851
   87SAPS   H2Y 8315   3.275   5.844  10.370  4.4092 -2.1381 -0.0917
   87SAPS   C23 8316   2.733   5.388  10.234  0.2321 -0.3658  0.2581
   87SAPS   H3R 8317   2.637   5.441  10.249 -0.3147 -1.0421 -0.7691
   87SAPS   H3S 8318   2.715   5.289  10.186 -0.5085  0.5805 -1.4355
   87SAPS   C24 8319   2.821   5.482  10.148  0.2613  0.3002 -0.4081
   87SAPS   H4R 8320   2.820   5.581  10.198  2.2548  0.0823  0.0862
   87SAPS   H4S 8321   2.757   5.478  10.058 -1.4477  1.4261  0.7282
   87SAPS   C25 8322   2.964   5.437  10.124  0.2180 -0.1207 -0.9802
   87SAPS   H5R 8323   3.025   5.415  10.213  1.1420  3.4768 -0.6305
   87SAPS   C26 8324   3.012   5.400  10.004 -0.1814 -0.7514 -0.6833
   87SAPS   H6R 8325   3.119   5.379   9.993 -0.3823 -1.8997 -0.4840
   87SAPS   C27 8326   2.937   5.392   9.874  0.2856 -0.2597  0.6983
   87SAPS   H7R 8327   2.971   5.473   9.806  0.3567 -1.7844 -1.1530
   87SAPS   H7S 8328   2.829   5.409   9.890  0.6760  2.0249  1.0262
   87SAPS   C28 8329   2.957   5.257   9.808 -0.1262 -0.2571 -0.1347
   87SAPS   H8R 8330   3.007   5.179   9.867 -1.0326 -0.6165  0.1661
   87SAPS   C29 8331   2.960   5.233   9.678 -0.1261  0.2162  0.3421
   87SAPS   H9R 8332   2.977   5.130   9.643 -1.6103  0.6522 -1.7339
   87SAPS  C210 8333   2.944   5.330   9.570  0.2770  0.3741 -0.8822
   87SAPS  H10R 8334   3.036   5.348   9.511 -0.5108 -1.9509 -2.8892
   87SAPS  H10S 8335   2.915   5.432   9.605  1.7509  0.2514  0.7742
   87SAPS  C211 8336   2.843   5.266   9.484  0.9300  0.1517  0.5136
   87SAPS  H11R 8337   2.753   5.233   9.537  2.8891 -1.8404  2.7537
   87SAPS  C212 8338   2.850   5.234   9.350  0.2986 -0.0924  0.3740
   87SAPS  H12R 8339   2.764   5.190   9.297  1.0867 -1.6971  0.4111
   87SAPS  C213 8340   2.969   5.263   9.261 -0.0775  0.3141  0.0416
   87SAPS  H13R 8341   3.012   5.359   9.295  1.2614 -1.1452  2.6012
   87SAPS  H13S 8342   2.931   5.279   9.158 -1.9446  1.4676  0.8693
   87SAPS  C214 8343   3.070   5.154   9.269 -0.7691  0.7269  0.1501
   87SAPS  H14R 8344   3.132   5.155   9.360 -3.8451  0.3634  2.3170
   87SAPS  C215 8345   3.092   5.055   9.174  0.5677 -0.7684 -0.0153
   87SAPS  H15R 8346   3.191   5.008   9.168  0.2295 -1.5566  0.5215
   87SAPS  C216 8347   3.007   5.042   9.051  0.4971  0.0528 -0.1943
   87SAPS  H16R 8348   3.047   5.112   8.974 -1.5293  0.3967 -0.9562
   87SAPS  H16S 8349   2.903   5.077   9.064  0.0452 -1.1144 -0.6692
   87SAPS  C217 8350   3.007   4.900   8.994 -0.4213 -0.1377 -0.5714
   87SAPS  H17R 8351   2.997   4.828   9.078 -1.8498 -0.9772 -1.4366
   87SAPS  H17S 8352   3.108   4.889   8.949 -0.6922  1.2984 -1.5541
   87SAPS  C218 8353   2.913   4.867   8.879 -0.2767  0.0102  0.1413
   87SAPS  H18R 8354   2.918   4.945   8.801  1.0271 -0.2840 -0.0737
   87SAPS  H18S 8355   2.815   4.864   8.932 -0.1075 -0.7440  0.4109
   87SAPS  C219 8356   2.931   4.729   8.827 -0.3767  0.0799  0.1276
   87SAPS  H19R 8357   2.932   4.659   8.913  1.8882 -1.4674 -1.1044
   87SAPS  H19S 8358   3.030   4.730   8.776 -0.3624  0.7727  0.1563
   87SAPS  C220 8359   2.816   4.674   8.745  0.0283  0.8675 -0.6780
   87SAPS  H20R 8360   2.766   4.598   8.809  2.1662  1.1044  1.3675
   87SAPS  H20S 8361   2.869   4.618   8.665  2.4050  1.4913  0.3929
   87SAPS  H20T 8362   2.755   4.753   8.697 -2.6705  0.2572  1.6114
   87SAPS   C33 8363   3.138   5.757  10.222  0.7793 -0.7769  0.4948
   87SAPS   H3X 8364   3.084   5.854  10.218 -0.4284 -1.4576  0.0427
   87SAPS   H3Y 8365   3.066   5.675  10.202  0.8882 -0.7599  0.0102
   87SAPS   C34 8366   3.238   5.742  10.104 -0.1300  0.5214 -0.2653
   87SAPS   H4X 8367   3.302   5.652  10.109  0.3444  0.7678 -1.9036
   87SAPS   H4Y 8368   3.300   5.834  10.105  0.4986  0.0903  1.4169
   87SAPS   C35 8369   3.158   5.741   9.976  0.3880  0.5399  0.7091
   87SAPS   H5X 8370   3.083   5.824   9.970 -0.4249 -0.0482  2.4335
   87SAPS   H5Y 8371   3.093   5.652   9.961  1.3957  0.0893 -1.1449
   87SAPS   C36 8372   3.238   5.768   9.845  0.0692  0.0104 -0.1972
   87SAPS   H6X 8373   3.335   5.715   9.848  0.5383  0.8977  0.6870
   87SAPS   H6Y 8374   3.262   5.876   9.837 -1.1603  0.2602 -0.6729
   87SAPS   C37 8375   3.172   5.709   9.726 -0.3308  0.5699 -0.3150
   87SAPS   H7X 8376   3.064   5.734   9.727  0.0862  2.4485  1.0072
   87SAPS   H7Y 8377   3.182   5.599   9.723  2.9982  0.8051  0.0017
   87SAPS   C38 8378   3.231   5.754   9.596 -0.2554  0.1163  0.1476
   87SAPS   H8X 8379   3.334   5.715   9.582  0.6175  2.1801  0.4715
   87SAPS   H8Y 8380   3.238   5.865   9.593 -0.8630  0.1376 -0.3808
   87SAPS   C39 8381   3.156   5.715   9.479 -0.6732 -0.4081 -0.7272
   87SAPS   H9X 8382   3.054   5.758   9.490 -0.2259  0.2706  0.9927
   87SAPS   H9Y 8383   3.135   5.606   9.472 -0.1843 -0.5689  0.2169
   87SAPS  C310 8384   3.221   5.762   9.346  0.2563  0.0236  0.0580
   87SAPS  H10X 8385   3.313   5.700   9.352 -0.4538 -0.9319  1.1384
   87SAPS  H10Y 8386   3.247   5.870   9.340 -0.0244  0.0396 -1.0446
   87SAPS  C311 8387   3.136   5.735   9.219 -0.0251  0.6133 -1.3318
   87SAPS  H11X 8388   3.065   5.820   9.226  0.4615  1.0565 -1.6835
   87SAPS  H11Y 8389   3.091   5.634   9.204  2.2669 -0.5761 -0.4469
   87SAPS  C312 8390   3.215   5.763   9.086 -0.0863  0.0119  0.1089
   87SAPS  H12X 8391   3.273   5.674   9.055 -0.3615  0.3102 -1.3151
   87SAPS  H12Y 8392   3.285   5.849   9.091 -0.7919  0.5891  0.2786
   87SAPS  C313 8393   3.116   5.782   8.968 -0.5421  0.8580 -0.3888
   87SAPS  H13X 8394   3.179   5.792   8.877 -0.1480  1.4593 -0.0542
   87SAPS  H13Y 8395   3.058   5.877   8.972  2.1486  2.4963  1.3206
   87SAPS  C314 8396   3.017   5.667   8.931  0.1270  0.3711  0.4584
   87SAPS  H14X 8397   2.946   5.639   9.011  0.2179  0.0860  0.4380
   87SAPS  H14Y 8398   3.074   5.572   8.925  0.3897  0.5612 -0.1017
   87SAPS  C315 8399   2.944   5.695   8.795 -0.8069 -0.1195 -0.5047
   87SAPS  H15X 8400   3.018   5.699   8.712  1.1385 -1.8601  1.1060
   87SAPS  H15Y 8401   2.906   5.797   8.815  0.5539 -0.1101  2.1790
   87SAPS  C316 8402   2.838   5.589   8.767 -0.4516 -0.0517 -0.5868
   87SAPS  H16X 8403   2.795   5.619   8.669 -0.7431 -1.7556 -0.9901
   87SAPS  H16Y 8404   2.757   5.589   8.844 -1.3659 -3.3992 -1.4676
   87SAPS  C317 8405   2.897   5.451   8.750 -0.5400 -0.6008  0.4191
   87SAPS  H17X 8406   2.932   5.407   8.846  0.6755 -0.3635  0.0841
   87SAPS  H17Y 8407   2.978   5.448   8.675 -1.3403 -2.5387 -0.3964
   87SAPS  C318 8408   2.792   5.361   8.694 -0.2316  0.0496  0.4130
   87SAPS  H18X 8409   2.761   5.396   8.593 -0.7984  1.6703  1.1370
   87SAPS  H18Y 8410   2.702   5.375   8.756  2.3093 -0.5112  4.3788
   87SAPS  H18Z 8411   2.818   5.254   8.684  2.8337  0.8998 -1.9051
   88SAPS     N 8412   5.645   4.515  10.593  0.0407 -0.3575  0.1581
   88SAPS   HN1 8413   5.670   4.443  10.523  2.5184 -2.0810  2.7365
   88SAPS   HN2 8414   5.544   4.539  10.587  0.2373  1.0491  1.8659
   88SAPS   HN3 8415   5.697   4.605  10.589 -0.9260  0.1715 -1.0862
   88SAPS   C12 8416   5.636   4.446  10.727 -0.0770 -1.0207 -0.2243
   88SAPS  H12A 8417   5.736   4.436  10.766 -0.1480  0.4318  0.3688
   88SAPS   C13 8418   5.553   4.507  10.848 -0.1083 -0.4327 -0.2144
   88SAPS  O13A 8419   5.493   4.616  10.837 -0.2946 -0.3893 -0.5649
   88SAPS  O13B 8420   5.551   4.450  10.961 -0.1714  0.1229 -0.0167
   88SAPS   C11 8421   5.578   4.300  10.708 -0.1040 -0.2475 -0.1613
   88SAPS  H11A 8422   5.480   4.304  10.655  0.6794  2.1663 -1.5059
   88SAPS  H11B 8423   5.565   4.258  10.811  0.8564  0.0442  0.0884
   88SAPS     P 8424   5.805   4.156  10.700 -0.0880 -0.3883  0.1745
   88SAPS   O13 8425   5.836   4.218  10.831  0.3460 -0.1502  0.6316
   88SAPS   O14 8426   5.802   4.011  10.691 -0.7007 -0.1081 -0.1873
   88SAPS   O12 8427   5.666   4.207  10.639 -0.5690  0.1729 -0.3241
   88SAPS   O11 8428   5.913   4.213  10.604  0.1462 -0.3553  0.4045
   88SAPS    C1 8429   5.992   4.141  10.513  0.0243 -0.5925 -0.3309
   88SAPS    HA 8430   6.096   4.156  10.549 -0.1444 -2.0611  0.7891
   88SAPS    HB 8431   5.970   4.032  10.517  2.1145 -0.9971  0.9062
   88SAPS    C2 8432   5.988   4.193  10.368 -0.5993  0.1686  0.4675
   88SAPS    HS 8433   6.009   4.303  10.368 -1.1158  0.2714 -0.2713
   88SAPS   O21 8434   5.862   4.163  10.304  0.1910 -0.6368  0.6084
   88SAPS   C21 8435   5.754   4.242  10.326 -0.2210  0.2918  0.5775
   88SAPS   O22 8436   5.763   4.349  10.384  0.4201  0.5667 -0.1853
   88SAPS   C22 8437   5.636   4.188  10.245 -0.7964 -0.0010  0.4175
   88SAPS   H2R 8438   5.670   4.103  10.181 -1.7915  1.4632 -2.1599
   88SAPS   H2S 8439   5.548   4.154  10.304 -0.5384 -1.6085 -0.0759
   88SAPS    C3 8440   6.105   4.130  10.288  0.4318 -0.0249 -0.0683
   88SAPS    HX 8441   6.077   4.023  10.298  0.7064  0.1151  2.5273
   88SAPS    HY 8442   6.205   4.147  10.333 -0.6733  1.5366  1.8836
   88SAPS   O31 8443   6.120   4.165  10.150  0.8560  0.1230 -0.0944
   88SAPS   C31 8444   6.211   4.086  10.087  0.9292 -0.9748  0.2022
   88SAPS   O32 8445   6.288   4.004  10.133  0.6471  0.0312  0.2243
   88SAPS   C32 8446   6.208   4.135   9.946 -0.1663  0.1920  0.2813
   88SAPS   H2X 8447   6.284   4.216   9.938 -1.5389  1.6939  2.1828
   88SAPS   H2Y 8448   6.108   4.173   9.917  0.6260  1.4560 -0.9066
   88SAPS   C23 8449   5.593   4.292  10.146 -0.0694 -0.5069 -0.1142
   88SAPS   H3R 8450   5.667   4.307  10.064  0.4506 -0.5327  0.3454
   88SAPS   H3S 8451   5.567   4.388  10.195  0.1920 -0.1128 -0.7466
   88SAPS   C24 8452   5.466   4.246  10.073  0.9865 -0.3051 -0.2309
   88SAPS   H4R 8453   5.427   4.338  10.024 -0.3523  0.2087  1.7365
   88SAPS   H4S 8454   5.389   4.212  10.146 -0.4263  0.5798 -1.2798
   88SAPS   C25 8455   5.487   4.133   9.980  0.2468 -0.3564  0.1835
   88SAPS   H5R 8456   5.512   4.037  10.027 -1.3883 -1.5553 -1.3379
   88SAPS   C26 8457   5.470   4.131   9.845  0.7249 -0.0942 -0.3293
   88SAPS   H6R 8458   5.486   4.042   9.783 -0.4941  0.0520 -0.8603
   88SAPS   C27 8459   5.439   4.253   9.761  0.2008  0.0966 -0.6207
   88SAPS   H7R 8460   5.430   4.352   9.810  1.9587  1.4827 -2.9793
   88SAPS   H7S 8461   5.335   4.228   9.731 -0.3218  0.5781  0.7491
   88SAPS   C28 8462   5.543   4.268   9.653 -0.1395  0.5935 -0.2807
   88SAPS   H8R 8463   5.635   4.319   9.683 -0.8101  1.0070  1.1179
   88SAPS   C29 8464   5.518   4.248   9.521  0.4720  0.3697 -0.4303
   88SAPS   H9R 8465   5.601   4.271   9.452  0.7131  0.3582 -0.1433
   88SAPS  C210 8466   5.386   4.206   9.452 -0.0758 -0.4105 -0.3878
   88SAPS  H10R 8467   5.341   4.303   9.426  2.0488  0.7964  0.3028
   88SAPS  H10S 8468   5.325   4.154   9.529 -0.7495  0.8865 -0.0469
   88SAPS  C211 8469   5.420   4.112   9.339  0.6033  0.9949  0.4024
   88SAPS  H11R 8470   5.437   4.008   9.372 -3.2144 -0.2281 -1.2568
   88SAPS  C212 8471   5.425   4.129   9.207  0.0146  0.1002 -0.2925
   88SAPS  H12R 8472   5.448   4.039   9.148  0.5335  0.8229 -1.2137
   88SAPS  C213 8473   5.407   4.266   9.139  0.2901  0.2758  0.2101
   88SAPS  H13R 8474   5.502   4.309   9.099  0.8663 -2.0403 -1.0309
   88SAPS  H13S 8475   5.371   4.339   9.214 -1.0748 -0.3011  0.1348
   88SAPS  C214 8476   5.320   4.265   9.014 -0.4911  0.9137 -0.4882
   88SAPS  H14R 8477   5.214   4.260   9.041 -0.6447  0.4547 -1.1910
   88SAPS  C215 8478   5.355   4.248   8.888 -0.0184  0.2425 -0.3809
   88SAPS  H15R 8479   5.282   4.271   8.809  1.2212  0.5485 -1.4617
   88SAPS  C216 8480   5.498   4.230   8.832 -0.0185  0.1579  0.1114
   88SAPS  H16R 8481   5.511   4.126   8.795 -0.1021  0.5848 -1.1451
   88SAPS  H16S 8482   5.564   4.206   8.918  0.1807  0.5937  0.0796
   88SAPS  C217 8483   5.555   4.344   8.733  0.0904 -0.2051 -0.4765
   88SAPS  H17R 8484   5.662   4.317   8.720  0.3439  1.6408 -2.5120
   88SAPS  H17S 8485   5.542   4.441   8.786  0.0904 -1.8746  2.7194
   88SAPS  C218 8486   5.498   4.346   8.597 -0.1699 -0.1800  0.7903
   88SAPS  H18R 8487   5.387   4.341   8.598 -0.2502  1.0699 -0.1664
   88SAPS  H18S 8488   5.515   4.245   8.555 -0.9662  0.4911 -1.2190
   88SAPS  C219 8489   5.539   4.471   8.514  0.0472 -0.2401 -0.5397
   88SAPS  H19R 8490   5.528   4.560   8.579  1.2165  0.8417 -1.7883
   88SAPS  H19S 8491   5.470   4.491   8.429 -0.8008  2.3291  0.7226
   88SAPS  C220 8492   5.677   4.458   8.446  0.0932  0.2458  0.1969
   88SAPS  H20R 8493   5.681   4.363   8.387  0.4918 -0.8208  1.9046
   88SAPS  H20S 8494   5.752   4.452   8.527  0.0816 -1.1323  0.1292
   88SAPS  H20T 8495   5.686   4.547   8.381 -3.6983  0.5054 -0.0771
   88SAPS   C33 8496   6.237   4.016   9.847  0.0158 -0.9224 -0.3516
   88SAPS   H3X 8497   6.153   3.944   9.860 -0.6140 -0.1183  0.0731
   88SAPS   H3Y 8498   6.336   3.971   9.870 -0.7321 -1.5049  1.8383
   88SAPS   C34 8499   6.227   4.066   9.701  0.4688  0.5000 -0.7375
   88SAPS   H4X 8500   6.307   4.144   9.701  1.8095 -0.8360 -0.1426
   88SAPS   H4Y 8501   6.126   4.111   9.699  1.1319  2.0112 -1.4945
   88SAPS   C35 8502   6.263   3.957   9.603 -0.3827 -0.4243  0.3854
   88SAPS   H5X 8503   6.210   3.862   9.626  0.2413 -0.8449  0.1067
   88SAPS   H5Y 8504   6.370   3.929   9.610 -0.3932 -0.3958  0.6695
   88SAPS   C36 8505   6.223   3.997   9.461 -0.9875  0.1447 -0.1108
   88SAPS   H6X 8506   6.270   4.093   9.430  0.8786 -0.7389 -0.0998
   88SAPS   H6Y 8507   6.113   4.011   9.456 -0.8659  1.1610 -0.0790
   88SAPS   C37 8508   6.270   3.889   9.362  0.1812  0.4741  0.3635
   88SAPS   H7X 8509   6.222   3.791   9.385 -2.0072  1.3273 -0.4249
   88SAPS   H7Y 8510   6.380   3.877   9.363  0.0602 -1.0713 -1.2044
   88SAPS   C38 8511   6.217   3.928   9.227  0.0616 -0.0739  0.0286
   88SAPS   H8X 8512   6.261   4.028   9.206 -1.5557  0.6831  0.1047
   88SAPS   H8Y 8513   6.109   3.954   9.233  0.1901  0.7294 -0.9358
   88SAPS   C39 8514   6.226   3.808   9.132  0.1362  0.0871 -0.1044
   88SAPS   H9X 8515   6.137   3.742   9.145 -0.4976  0.8417 -0.5801
   88SAPS   H9Y 8516   6.320   3.753   9.153  1.0478  2.6589  2.7862
   88SAPS  C310 8517   6.213   3.861   8.992 -0.1865 -0.0400 -0.1780
   88SAPS  H10X 8518   6.110   3.893   8.963 -0.7970 -1.7172  0.0835
   88SAPS  H10Y 8519   6.214   3.767   8.935  0.1039 -1.6452  2.3892
   88SAPS  C311 8520   6.333   3.940   8.933 -0.1245 -0.2317 -0.2455
   88SAPS  H11X 8521   6.421   3.873   8.927  1.6258  1.5812  3.3304
   88SAPS  H11Y 8522   6.376   4.019   8.999 -2.2558 -0.2426  1.2138
   88SAPS  C312 8523   6.295   4.002   8.794  0.3744  0.5730  0.1838
   88SAPS  H12X 8524   6.200   4.059   8.791 -0.0858 -0.1016  1.5762
   88SAPS  H12Y 8525   6.284   3.910   8.732  0.1228  0.1319  0.8740
   88SAPS  C313 8526   6.399   4.080   8.718  0.5669  0.2127 -0.5416
   88SAPS  H13X 8527   6.488   4.016   8.700  0.7581  0.3675 -0.1629
   88SAPS  H13Y 8528   6.424   4.170   8.777  1.0253  0.4184 -1.0476
   88SAPS  C314 8529   6.342   4.127   8.586  0.0602  0.0050 -0.2211
   88SAPS  H14X 8530   6.242   4.171   8.602 -0.1186 -0.0271 -1.1803
   88SAPS  H14Y 8531   6.317   4.032   8.533  1.0014 -0.1968 -0.3230
   88SAPS  C315 8532   6.436   4.230   8.511 -0.1424 -0.1378  0.0840
   88SAPS  H15X 8533   6.477   4.300   8.587  1.8328 -0.8432 -0.3091
   88SAPS  H15Y 8534   6.367   4.282   8.441  0.6236  1.9959  0.8923
   88SAPS  C316 8535   6.551   4.152   8.441  0.0329  0.1115  0.4122
   88SAPS  H16X 8536   6.630   4.121   8.513  0.3372  0.0193  0.0398
   88SAPS  H16Y 8537   6.594   4.223   8.368 -1.9174 -0.2016 -1.0822
   88SAPS  C317 8538   6.511   4.025   8.362 -0.2328  0.6881 -0.2264
   88SAPS  H17X 8539   6.416   4.052   8.311 -1.4810 -1.2154  1.0440
   88SAPS  H17Y 8540   6.497   3.947   8.440  2.1078  1.3990  0.9627
   88SAPS  C318 8541   6.609   3.977   8.260 -0.6775 -0.3980  1.0250
   88SAPS  H18X 8542   6.622   4.047   8.175 -0.4163 -0.3398  1.1139
   88SAPS  H18Y 8543   6.574   3.878   8.222  1.0216 -1.1318  1.3276
   88SAPS  H18Z 8544   6.700   3.964   8.322 -0.3520 -1.5550  0.3236
   89SAPS     N 8545   5.432   6.589  11.087 -0.0956  0.0522  0.4486
   89SAPS   HN1 8546   5.386   6.578  11.179  0.1818  1.5066  0.7729
   89SAPS   HN2 8547   5.478   6.681  11.074 -1.2684  0.8259  1.6287
   89SAPS   HN3 8548   5.345   6.599  11.030 -1.7494 -0.2364  2.8433
   89SAPS   C12 8549   5.501   6.463  11.038  0.6575 -0.4752 -0.1252
   89SAPS  H12A 8550   5.589   6.466  11.101  0.9265  0.4944 -0.5338
   89SAPS   C13 8551   5.417   6.334  11.047  0.0889 -0.7817 -0.1044
   89SAPS  O13A 8552   5.296   6.332  11.083 -0.1231 -0.2290  0.2892
   89SAPS  O13B 8553   5.476   6.232  11.025 -0.2200 -0.1344  0.1208
   89SAPS   C11 8554   5.541   6.484  10.887  0.2212 -0.3042 -0.3784
   89SAPS  H11A 8555   5.580   6.391  10.841  0.7248 -0.2165 -0.1327
   89SAPS  H11B 8556   5.619   6.562  10.879  4.2942 -4.1216  0.0805
   89SAPS     P 8557   5.343   6.471  10.712  0.5988 -0.6138 -0.2436
   89SAPS   O13 8558   5.319   6.335  10.770 -0.1516 -0.6321  0.5584
   89SAPS   O14 8559   5.220   6.549  10.684  0.3365  0.2524  0.1342
   89SAPS   O12 8560   5.428   6.543  10.820  0.2498  0.0845 -0.0078
   89SAPS   O11 8561   5.427   6.454  10.582  0.3056  0.1195 -0.8670
   89SAPS    C1 8562   5.501   6.564  10.524 -0.0518 -0.5839 -0.0450
   89SAPS    HA 8563   5.586   6.588  10.592 -1.2895  1.4223  0.8555
   89SAPS    HB 8564   5.554   6.525  10.435  0.1688 -0.0631 -0.1411
   89SAPS    C2 8565   5.429   6.696  10.483 -0.5910 -0.8389 -0.6167
   89SAPS    HS 8566   5.363   6.720  10.569 -0.2047 -1.4153 -0.1511
   89SAPS   O21 8567   5.343   6.668  10.368  0.1507  0.0061 -0.3345
   89SAPS   C21 8568   5.251   6.755  10.341  0.1030  0.1658  0.3886
   89SAPS   O22 8569   5.247   6.870  10.385  0.3394 -0.0226  0.1899
   89SAPS   C22 8570   5.158   6.702  10.236 -0.3893  0.2306 -0.0636
   89SAPS   H2R 8571   5.166   6.591  10.229 -0.0623  0.2088  0.5981
   89SAPS   H2S 8572   5.056   6.704  10.280 -0.3409  2.4093 -0.0197
   89SAPS    C3 8573   5.532   6.803  10.447 -0.0518 -1.2030 -0.2561
   89SAPS    HX 8574   5.601   6.819  10.533 -0.2639  1.1510 -0.4872
   89SAPS    HY 8575   5.478   6.899  10.432 -0.4152 -1.3762 -0.0624
   89SAPS   O31 8576   5.622   6.769  10.344  0.4617 -0.4117  0.0988
   89SAPS   C31 8577   5.687   6.870  10.279  0.4897  0.0392 -0.5681
   89SAPS   O32 8578   5.672   6.987  10.309 -0.3592 -0.3565 -0.0160
   89SAPS   C32 8579   5.782   6.808  10.184  0.4166 -0.1820 -0.1737
   89SAPS   H2X 8580   5.778   6.697  10.191 -0.6916 -0.1398 -0.0985
   89SAPS   H2Y 8581   5.882   6.843  10.219  0.3746 -0.7416  0.4996
   89SAPS   C23 8582   5.168   6.775  10.105  0.3192  0.2128 -0.1202
   89SAPS   H3R 8583   5.155   6.883  10.126 -0.8086  0.9220 -3.9507
   89SAPS   H3S 8584   5.081   6.747  10.042  1.8909 -0.5066 -2.0567
   89SAPS   C24 8585   5.303   6.750  10.027  0.3948 -0.9590 -0.0331
   89SAPS   H4R 8586   5.381   6.783  10.098 -0.2974  0.7887 -0.0474
   89SAPS   H4S 8587   5.299   6.814   9.936  3.1898  1.2923  1.3631
   89SAPS   C25 8588   5.319   6.604  10.003 -0.8407 -0.7414 -0.3330
   89SAPS   H5R 8589   5.310   6.543  10.095 -2.6633 -2.2891 -1.5098
   89SAPS   C26 8590   5.327   6.550   9.877  0.0685 -0.3854 -0.1913
   89SAPS   H6R 8591   5.334   6.440   9.873  1.0188 -0.4277  1.8885
   89SAPS   C27 8592   5.316   6.615   9.736  0.3941 -0.3167 -0.1766
   89SAPS   H7R 8593   5.364   6.715   9.736 -0.4959  0.1177 -0.2190
   89SAPS   H7S 8594   5.209   6.641   9.723 -0.4662 -2.5622  2.0208
   89SAPS   C28 8595   5.371   6.532   9.626 -0.3748 -0.4603 -0.7375
   89SAPS   H8R 8596   5.453   6.468   9.661 -0.1023  0.4329  0.2975
   89SAPS   C29 8597   5.340   6.519   9.496  0.8540 -0.1844  0.6927
   89SAPS   H9R 8598   5.396   6.449   9.432  0.8312  0.6697 -0.2776
   89SAPS  C210 8599   5.232   6.594   9.418 -0.9613  0.1958  0.2677
   89SAPS  H10R 8600   5.214   6.696   9.459  1.1364  1.5485 -2.0100
   89SAPS  H10S 8601   5.134   6.544   9.433 -0.7715 -0.0935  0.5569
   89SAPS  C211 8602   5.271   6.595   9.271  0.5482 -0.4163 -0.1808
   89SAPS  H11R 8603   5.269   6.498   9.220  2.4140 -0.9235  0.6471
   89SAPS  C212 8604   5.295   6.692   9.188  0.7264  0.0398 -0.0950
   89SAPS  H12R 8605   5.344   6.655   9.097 -0.7178 -1.2797 -0.3516
   89SAPS  C213 8606   5.319   6.838   9.216  0.0475 -0.1697 -0.0967
   89SAPS  H13R 8607   5.422   6.856   9.179 -0.5299 -2.3582 -2.8971
   89SAPS  H13S 8608   5.317   6.871   9.322  2.1518  0.0668 -0.1116
   89SAPS  C214 8609   5.207   6.904   9.142 -0.2485 -0.3091 -0.3021
   89SAPS  H14R 8610   5.110   6.852   9.143 -1.2366  1.5261  1.6965
   89SAPS  C215 8611   5.210   7.009   9.065 -0.6110 -0.0619 -0.1687
   89SAPS  H15R 8612   5.116   7.055   9.031  0.0789  3.0674  1.8983
   89SAPS  C216 8613   5.338   7.083   9.046  0.1176  0.3757  0.1494
   89SAPS  H16R 8614   5.427   7.017   9.052  0.8391  1.4501  1.4685
   89SAPS  H16S 8615   5.350   7.154   9.130 -2.0075 -0.6218  1.3464
   89SAPS  C217 8616   5.356   7.156   8.912 -0.5258 -0.1816 -0.0950
   89SAPS  H17R 8617   5.283   7.238   8.896  0.5283  0.6800 -0.5473
   89SAPS  H17S 8618   5.351   7.087   8.825  1.3357  1.1987 -1.3409
   89SAPS  C218 8619   5.493   7.230   8.895 -0.2070 -0.3459 -0.6335
   89SAPS  H18R 8620   5.524   7.279   8.990 -1.3706 -0.1522 -0.3414
   89SAPS  H18S 8621   5.484   7.314   8.823  1.0164  2.6155  2.5326
   89SAPS  C219 8622   5.611   7.146   8.858  0.6643 -0.3162 -0.3981
   89SAPS  H19R 8623   5.586   7.070   8.781 -0.6421 -1.1329  0.8258
   89SAPS  H19S 8624   5.628   7.076   8.942  1.4692 -0.6675 -0.8402
   89SAPS  C220 8625   5.735   7.219   8.810  0.4918 -0.2508 -0.8176
   89SAPS  H20R 8626   5.709   7.263   8.712 -1.3026 -1.4315 -0.8922
   89SAPS  H20S 8627   5.818   7.148   8.794 -1.2757 -2.2275 -1.3600
   89SAPS  H20T 8628   5.752   7.310   8.873 -1.8577 -0.6317  0.4477
   89SAPS   C33 8629   5.750   6.859  10.041  0.5973  1.0659  0.3066
   89SAPS   H3X 8630   5.734   6.969  10.034 -0.6834  0.7701 -1.5551
   89SAPS   H3Y 8631   5.651   6.812  10.027 -0.1031  1.9984  1.8689
   89SAPS   C34 8632   5.838   6.818   9.925 -0.1048  0.2435  0.4541
   89SAPS   H4X 8633   5.853   6.708   9.915 -2.9089 -0.0391 -1.0656
   89SAPS   H4Y 8634   5.941   6.853   9.950  0.3750  0.9396 -2.2984
   89SAPS   C35 8635   5.801   6.888   9.789 -0.5559 -0.0988 -0.5567
   89SAPS   H5X 8636   5.842   6.991   9.788  0.0006 -0.3271 -3.0433
   89SAPS   H5Y 8637   5.690   6.885   9.791 -0.5961  1.1595  1.4270
   89SAPS   C36 8638   5.838   6.809   9.670  1.1767  0.9060 -0.9877
   89SAPS   H6X 8639   5.818   6.701   9.683 -0.8547  1.1482 -1.8946
   89SAPS   H6Y 8640   5.948   6.824   9.658  1.0545  3.2066  0.4256
   89SAPS   C37 8641   5.784   6.865   9.536  0.7799 -0.7405 -0.3026
   89SAPS   H7X 8642   5.773   6.975   9.536  2.5900 -0.5592  0.3916
   89SAPS   H7Y 8643   5.682   6.821   9.528  0.0833  0.4287  2.0087
   89SAPS   C38 8644   5.870   6.816   9.423 -0.2884 -0.1927 -0.4129
   89SAPS   H8X 8645   5.892   6.708   9.435  0.0165 -0.2857 -1.7598
   89SAPS   H8Y 8646   5.971   6.861   9.434 -0.9514  1.3777 -0.5644
   89SAPS   C39 8647   5.803   6.836   9.284  0.0172 -0.1169 -0.2317
   89SAPS   H9X 8648   5.765   6.940   9.275  2.4380  0.6073 -2.7912
   89SAPS   H9Y 8649   5.718   6.764   9.281  1.2008 -1.7443  2.7971
   89SAPS  C310 8650   5.903   6.831   9.177 -0.6605  0.7145  0.2835
   89SAPS  H10X 8651   5.951   6.731   9.176 -0.3311  0.8696  0.4060
   89SAPS  H10Y 8652   5.985   6.906   9.187  0.8031 -0.8501  0.2428
   89SAPS  C311 8653   5.840   6.828   9.024 -0.4444  0.1658 -0.9949
   89SAPS  H11X 8654   5.800   6.930   9.007  0.0056  0.4035 -0.6510
   89SAPS  H11Y 8655   5.758   6.756   9.007 -0.2947  0.0853 -1.3729
   89SAPS  C312 8656   5.962   6.808   8.925  0.8017 -0.7431 -0.8748
   89SAPS  H12X 8657   6.009   6.710   8.946 -0.5856 -1.0411  0.9930
   89SAPS  H12Y 8658   6.033   6.891   8.941 -1.5996  1.1450  0.3043
   89SAPS  C313 8659   5.918   6.799   8.780 -0.1118 -0.3034  0.1193
   89SAPS  H13X 8660   5.853   6.888   8.763  0.4606  0.2351  0.7375
   89SAPS  H13Y 8661   5.861   6.706   8.761  1.4905 -1.1451 -0.6844
   89SAPS  C314 8662   6.035   6.816   8.690  0.4284 -0.5446 -0.2053
   89SAPS  H14X 8663   6.109   6.735   8.705  1.2691  0.0522 -1.0474
   89SAPS  H14Y 8664   6.083   6.915   8.705  0.6933 -0.6758 -0.1810
   89SAPS  C315 8665   5.992   6.805   8.538  0.2488  0.0558  0.0238
   89SAPS  H15X 8666   5.938   6.897   8.508  2.6256  0.9083 -1.8529
   89SAPS  H15Y 8667   5.921   6.720   8.530  0.1751  0.1316 -0.1489
   89SAPS  C316 8668   6.111   6.786   8.444  0.3570  0.6754 -0.2732
   89SAPS  H16X 8669   6.146   6.683   8.467  2.6686  1.4104 -0.3063
   89SAPS  H16Y 8670   6.184   6.866   8.471 -0.1737  1.2068 -0.4082
   89SAPS  C317 8671   6.082   6.787   8.292 -0.6133  0.3195  0.1610
   89SAPS  H17X 8672   6.028   6.693   8.268  0.8910 -0.3459 -0.6761
   89SAPS  H17Y 8673   6.177   6.782   8.234 -0.5123 -1.8222  0.4725
   89SAPS  C318 8674   5.993   6.895   8.233  0.5336 -0.0844  0.0400
   89SAPS  H18X 8675   5.894   6.897   8.283  0.2298 -3.6740 -0.2808
   89SAPS  H18Y 8676   5.977   6.885   8.123 -1.3277  1.1093  0.1842
   89SAPS  H18Z 8677   6.033   6.998   8.241  2.3149 -0.6517 -1.2113
   90SAPS     N 8678   0.832   0.481  10.634 -0.1678 -0.4522  0.2960
   90SAPS   HN1 8679   0.817   0.484  10.531  2.6410  1.0934 -0.1407
   90SAPS   HN2 8680   0.746   0.521  10.675 -0.1908  0.8182 -0.9422
   90SAPS   HN3 8681   0.906   0.549  10.662 -0.9024  1.4837 -2.2120
   90SAPS   C12 8682   0.873   0.346  10.675  1.1244 -0.0677  0.1602
   90SAPS  H12A 8683   0.980   0.344  10.658  1.4831  2.8752  1.7509
   90SAPS   C13 8684   0.858   0.321  10.830  0.2146 -0.4347 -0.2211
   90SAPS  O13A 8685   0.815   0.411  10.902 -0.0553  0.7495 -0.0524
   90SAPS  O13B 8686   0.925   0.228  10.881  0.1657  0.1210 -0.1491
   90SAPS   C11 8687   0.796   0.233  10.599 -0.1514 -1.1843  0.5006
   90SAPS  H11A 8688   0.831   0.133  10.633  0.2137 -0.6666  1.6502
   90SAPS  H11B 8689   0.816   0.241  10.490  1.7819 -1.1177  0.8430
   90SAPS     P 8690   0.548   0.134  10.597 -0.3224 -0.0891 -0.1591
   90SAPS   O13 8691   0.549   0.053  10.721  0.2805 -0.4778  0.4496
   90SAPS   O14 8692   0.426   0.213  10.558 -0.0912  0.0524 -0.7199
   90SAPS   O12 8693   0.660   0.247  10.615 -0.1533  0.8619 -0.0202
   90SAPS   O11 8694   0.610   0.053  10.480 -0.2724 -0.0729  0.6142
   90SAPS    C1 8695   0.605   0.081  10.336  0.3574 -0.2529  0.0827
   90SAPS    HA 8696   0.553   0.176  10.313 -0.2390 -0.8848 -1.2316
   90SAPS    HB 8697   0.709   0.104  10.307  0.7189 -2.2681 -0.3087
   90SAPS    C2 8698   0.544  -0.040  10.261 -0.3027 -0.1447  0.6799
   90SAPS    HS 8699   0.434  -0.036  10.279 -0.1288  3.1573  1.3170
   90SAPS   O21 8700   0.602  -0.167  10.299 -0.2067  0.2721  0.0131
   90SAPS   C21 8701   0.525  -0.268  10.256 -0.1798 -0.6941  0.2573
   90SAPS   O22 8702   0.410  -0.265  10.215  0.0672  0.7057  0.0818
   90SAPS   C22 8703   0.602  -0.399  10.274  0.4240  0.1402  1.0369
   90SAPS   H2R 8704   0.601  -0.423  10.382 -1.3452 -0.4358  0.9095
   90SAPS   H2S 8705   0.542  -0.474  10.218 -0.9690  1.5555  0.5813
   90SAPS    C3 8706   0.557  -0.016  10.107  0.3091  0.2424 -0.6011
   90SAPS    HX 8707   0.506  -0.090  10.041  2.0159 -1.7859  0.2752
   90SAPS    HY 8708   0.663  -0.048  10.093  0.2209 -1.6044  2.4441
   90SAPS   O31 8709   0.526   0.118  10.066  0.0069  0.4122 -0.1526
   90SAPS   C31 8710   0.404   0.130  10.025  0.1378 -0.4199 -0.2750
   90SAPS   O32 8711   0.321   0.044  10.025 -0.3971 -0.6828 -0.1897
   90SAPS   C32 8712   0.381   0.266   9.977 -0.6472 -0.3590 -0.0247
   90SAPS   H2X 8713   0.431   0.341  10.042 -0.8668  0.1262 -0.4151
   90SAPS   H2Y 8714   0.275   0.293   9.995 -0.6984 -0.7306  0.2357
   90SAPS   C23 8715   0.748  -0.392  10.215 -0.1442 -0.2588  0.5617
   90SAPS   H3R 8716   0.785  -0.496  10.224  1.0433  0.0633 -0.4641
   90SAPS   H3S 8717   0.814  -0.334  10.284  0.4398 -1.9424  1.4397
   90SAPS   C24 8718   0.758  -0.343  10.077 -0.3058 -0.4970  0.5383
   90SAPS   H4R 8719   0.859  -0.303  10.053 -0.2798 -1.4268 -0.9682
   90SAPS   H4S 8720   0.688  -0.257  10.066  1.0592  0.5122 -0.2814
   90SAPS   C25 8721   0.708  -0.443   9.968 -0.3427  0.0918 -0.0815
   90SAPS   H5R 8722   0.735  -0.549   9.979 -0.7344 -0.0942 -0.8787
   90SAPS   C26 8723   0.644  -0.418   9.853  0.7214  0.0327  0.0584
   90SAPS   H6R 8724   0.618  -0.508   9.795  0.9891  1.2525 -2.0128
   90SAPS   C27 8725   0.591  -0.287   9.794 -0.9728 -0.1053 -0.1673
   90SAPS   H7R 8726   0.622  -0.289   9.687  0.0252 -0.1662  0.1137
   90SAPS   H7S 8727   0.640  -0.197   9.837 -2.7558  1.2278 -0.8587
   90SAPS   C28 8728   0.436  -0.292   9.811  0.1119 -0.1654 -0.0326
   90SAPS   H8R 8729   0.398  -0.304   9.913 -0.9799 -2.0605 -0.6454
   90SAPS   C29 8730   0.333  -0.283   9.721 -0.6387  0.1216  0.3618
   90SAPS   H9R 8731   0.230  -0.304   9.754 -0.3244 -2.2028  0.0022
   90SAPS  C210 8732   0.344  -0.272   9.575  0.3709 -0.0744  0.4154
   90SAPS  H10R 8733   0.397  -0.176   9.559 -2.2244  1.2972 -0.1240
   90SAPS  H10S 8734   0.243  -0.254   9.531 -0.8185  1.1226  3.5298
   90SAPS  C211 8735   0.422  -0.375   9.490  0.2579 -0.3953 -0.4945
   90SAPS  H11R 8736   0.516  -0.407   9.537  1.6055  1.6076 -1.7580
   90SAPS  C212 8737   0.387  -0.427   9.372 -0.0376 -0.1451  0.6074
   90SAPS  H12R 8738   0.453  -0.506   9.333 -1.7865 -1.3910  0.1075
   90SAPS  C213 8739   0.261  -0.402   9.290  0.1759 -0.5053  0.3979
   90SAPS  H13R 8740   0.232  -0.297   9.309 -0.6092  0.1558 -4.0228
   90SAPS  H13S 8741   0.177  -0.464   9.330  0.9916 -1.3940  0.7429
   90SAPS  C214 8742   0.269  -0.427   9.145 -0.3745  0.1844  0.5434
   90SAPS  H14R 8743   0.232  -0.344   9.083 -1.3467 -0.6026  0.0581
   90SAPS  C215 8744   0.287  -0.543   9.081 -0.1195 -0.9193 -0.0794
   90SAPS  H15R 8745   0.305  -0.534   8.973 -0.1355 -1.7617 -0.1552
   90SAPS  C216 8746   0.312  -0.684   9.147 -0.7312 -0.3815  0.2611
   90SAPS  H16R 8747   0.218  -0.743   9.136 -0.7951 -0.1206 -0.6424
   90SAPS  H16S 8748   0.323  -0.672   9.256 -0.9707 -1.7063  0.4459
   90SAPS  C217 8749   0.433  -0.768   9.102  0.7433  0.3449  0.0144
   90SAPS  H17R 8750   0.454  -0.867   9.147  0.7601  0.3779  0.0786
   90SAPS  H17S 8751   0.522  -0.704   9.120 -1.1224  2.3294  2.5095
   90SAPS  C218 8752   0.461  -0.778   8.953 -0.2663 -0.2939  0.7026
   90SAPS  H18R 8753   0.570  -0.799   8.949  0.0138  1.4320 -1.2986
   90SAPS  H18S 8754   0.454  -0.686   8.891  0.6210 -0.2559  0.6595
   90SAPS  C219 8755   0.381  -0.893   8.886 -0.2413 -0.3047  0.2672
   90SAPS  H19R 8756   0.279  -0.850   8.881  1.4573  3.9707  0.5885
   90SAPS  H19S 8757   0.380  -0.982   8.953  0.2518 -1.4066 -1.1583
   90SAPS  C220 8758   0.437  -0.918   8.743  0.2154  0.2246 -0.2776
   90SAPS  H20R 8759   0.372  -0.996   8.698  1.7602 -0.6769 -0.9746
   90SAPS  H20S 8760   0.539  -0.961   8.743 -0.3140 -1.0882  2.6703
   90SAPS  H20T 8761   0.428  -0.825   8.682  0.0458  0.4823  0.1417
   90SAPS   C33 8762   0.412   0.285   9.835 -0.1731 -0.6397 -0.2953
   90SAPS   H3X 8763   0.511   0.243   9.809 -0.5764 -1.0698 -1.1754
   90SAPS   H3Y 8764   0.423   0.394   9.819 -1.2781 -0.6846 -1.4645
   90SAPS   C34 8765   0.297   0.251   9.732 -0.5089 -0.1936 -0.2431
   90SAPS   H4X 8766   0.323   0.319   9.648  0.6757 -2.1937 -1.5222
   90SAPS   H4Y 8767   0.201   0.276   9.783  1.2533 -0.5191  3.3762
   90SAPS   C35 8768   0.303   0.103   9.678 -0.1661  0.3009  0.1003
   90SAPS   H5X 8769   0.312   0.046   9.774  0.9724  0.0479 -0.1395
   90SAPS   H5Y 8770   0.406   0.082   9.641 -1.0938  0.3151 -2.6009
   90SAPS   C36 8771   0.197   0.060   9.581  0.0611 -0.1494  0.1780
   90SAPS   H6X 8772   0.095   0.086   9.617  0.2119 -0.2054  0.6485
   90SAPS   H6Y 8773   0.208  -0.050   9.568 -0.9001 -0.2760  0.4071
   90SAPS   C37 8774   0.210   0.131   9.445  1.1781 -0.9711  0.0070
   90SAPS   H7X 8775   0.309   0.115   9.398  1.6131  0.4698  0.4179
   90SAPS   H7Y 8776   0.212   0.241   9.460 -1.8515 -0.9650  0.7387
   90SAPS   C38 8777   0.103   0.076   9.346 -1.0413 -0.1275  0.0126
   90SAPS   H8X 8778   0.001   0.090   9.389 -0.5127  2.1672  0.5779
   90SAPS   H8Y 8779   0.122  -0.032   9.328  1.5459  0.3177 -0.1630
   90SAPS   C39 8780   0.120   0.139   9.207 -0.4740 -0.5164  0.5951
   90SAPS   H9X 8781   0.230   0.132   9.190 -0.4714 -0.7934  0.7256
   90SAPS   H9Y 8782   0.103   0.249   9.211  0.1534 -0.2866 -2.0991
   90SAPS  C310 8783   0.039   0.078   9.094  0.6912 -0.1068 -0.1851
   90SAPS  H10X 8784  -0.012   0.165   9.047 -0.0582 -0.5278 -0.1589
   90SAPS  H10Y 8785  -0.037   0.011   9.141  2.7367 -0.6415  2.4116
   90SAPS  C311 8786   0.118  -0.002   8.986  0.1317  0.2682  0.4831
   90SAPS  H11X 8787   0.168  -0.089   9.033 -2.8284 -1.3667  0.7021
   90SAPS  H11Y 8788   0.198   0.063   8.946 -0.6966 -0.4387 -2.4194
   90SAPS  C312 8789   0.034  -0.050   8.869 -0.3103 -1.0067 -0.2241
   90SAPS  H12X 8790  -0.021   0.034   8.823  1.4095  0.3576  0.1486
   90SAPS  H12Y 8791  -0.048  -0.120   8.896  0.4250 -1.9580 -0.4167
   90SAPS  C313 8792   0.114  -0.125   8.757  0.2009  1.1694 -0.4568
   90SAPS  H13X 8793   0.174  -0.060   8.690  3.2573 -2.0146 -0.9368
   90SAPS  H13Y 8794   0.036  -0.167   8.690  0.0674  0.4979  0.1220
   90SAPS  C314 8795   0.199  -0.245   8.798 -0.0443 -0.2345  0.6855
   90SAPS  H14X 8796   0.137  -0.316   8.857 -0.9618  0.3884  0.4898
   90SAPS  H14Y 8797   0.282  -0.192   8.850  0.3548  0.7812 -0.9619
   90SAPS  C315 8798   0.256  -0.320   8.674  0.0387  0.3785 -0.0428
   90SAPS  H15X 8799   0.359  -0.360   8.686 -0.1837 -0.2107 -0.0421
   90SAPS  H15Y 8800   0.271  -0.249   8.590 -0.8902  1.1818  0.4636
   90SAPS  C316 8801   0.168  -0.428   8.605  0.4257 -0.0887  0.0847
   90SAPS  H16X 8802   0.131  -0.507   8.675 -0.4300 -1.3121 -1.7149
   90SAPS  H16Y 8803   0.231  -0.481   8.531  2.5416  1.3518  0.7997
   90SAPS  C317 8804   0.033  -0.382   8.540 -0.0526  0.4536  1.0194
   90SAPS  H17X 8805   0.051  -0.297   8.471 -2.7459  0.5276  0.3492
   90SAPS  H17Y 8806  -0.040  -0.345   8.614  0.1400  0.6981  1.0877
   90SAPS  C318 8807  -0.025  -0.489   8.448  1.1244  0.1245 -0.4749
   90SAPS  H18X 8808   0.056  -0.535   8.388  0.1888 -1.4043 -0.6072
   90SAPS  H18Y 8809  -0.094  -0.451   8.370 -2.2429  0.3375  2.4659
   90SAPS  H18Z 8810  -0.083  -0.559   8.512  1.4286 -1.4998 -1.9463
   91SAPS     N 8811   4.919   4.657   5.986  0.6777 -0.0572 -0.1449
   91SAPS   HN1 8812   4.891   4.693   5.893  0.9343 -1.5501 -0.8152
   91SAPS   HN2 8813   4.960   4.562   5.995  0.9303  0.2761  2.8523
   91SAPS   HN3 8814   4.834   4.655   6.045  0.0511 -0.3955 -1.0631
   91SAPS   C12 8815   5.017   4.746   6.061  0.3291  1.1832 -0.3092
   91SAPS  H12A 8816   5.113   4.696   6.064 -0.0305  0.4359 -0.8709
   91SAPS   C13 8817   5.040   4.883   6.000  0.5101  0.1128  0.4956
   91SAPS  O13A 8818   5.013   4.885   5.874 -0.9352  0.5989 -0.5650
   91SAPS  O13B 8819   5.121   4.965   6.050 -0.5516  0.6643  0.2542
   91SAPS   C11 8820   4.960   4.753   6.207 -1.0050  0.0914 -0.9151
   91SAPS  H11A 8821   4.872   4.820   6.212 -1.4187 -0.5702  1.2448
   91SAPS  H11B 8822   5.050   4.805   6.246 -1.3259 -0.4664  0.6233
   91SAPS     P 8823   5.049   4.513   6.309  0.3645  0.0804 -0.0102
   91SAPS   O13 8824   4.981   4.385   6.295  0.1196 -0.1945 -0.6404
   91SAPS   O14 8825   5.168   4.535   6.223  0.4632  0.6302  0.2685
   91SAPS   O12 8826   4.935   4.629   6.279  0.1084 -0.3453  0.3866
   91SAPS   O11 8827   5.090   4.522   6.462 -0.6921 -0.3154 -0.0381
   91SAPS    C1 8828   5.178   4.623   6.513 -0.1091 -0.0860 -0.2485
   91SAPS    HA 8829   5.166   4.718   6.458  0.9754 -0.0105 -0.3580
   91SAPS    HB 8830   5.151   4.640   6.620  1.3282 -3.7080  0.7689
   91SAPS    C2 8831   5.333   4.591   6.518 -0.4628 -0.4114 -0.7041
   91SAPS    HS 8832   5.363   4.538   6.425  0.0732 -1.5279  0.0832
   91SAPS   O21 8833   5.357   4.510   6.631  0.1848 -0.4521 -0.1364
   91SAPS   C21 8834   5.467   4.434   6.622 -0.1676 -0.0137 -0.1888
   91SAPS   O22 8835   5.516   4.397   6.518  0.3173 -0.0077 -0.0347
   91SAPS   C22 8836   5.510   4.393   6.765  0.5097 -0.5299  0.6543
   91SAPS   H2R 8837   5.620   4.404   6.775  0.4678 -0.1808  0.7269
   91SAPS   H2S 8838   5.470   4.471   6.833  0.5478  0.0757 -0.0086
   91SAPS    C3 8839   5.415   4.728   6.534  0.4450 -0.0688 -0.7097
   91SAPS    HX 8840   5.374   4.796   6.456 -0.3842 -0.4684 -0.6183
   91SAPS    HY 8841   5.525   4.717   6.518  0.7294  2.2084 -0.5373
   91SAPS   O31 8842   5.385   4.805   6.659  0.6725  0.5540 -0.0476
   91SAPS   C31 8843   5.472   4.796   6.753 -0.1901 -0.9605  0.2376
   91SAPS   O32 8844   5.553   4.707   6.768 -0.0387 -0.1180  0.2810
   91SAPS   C32 8845   5.449   4.901   6.860  0.4049  0.4943  0.1878
   91SAPS   H2X 8846   5.354   4.895   6.918  1.0289  2.1990  1.4512
   91SAPS   H2Y 8847   5.458   4.999   6.807 -1.7196  0.9437  0.5766
   91SAPS   C23 8848   5.463   4.259   6.804  0.3151 -0.0205  0.3937
   91SAPS   H3R 8849   5.503   4.186   6.730 -1.0510 -0.9713  0.5678
   91SAPS   H3S 8850   5.353   4.245   6.795  0.4350 -1.3479  0.8360
   91SAPS   C24 8851   5.509   4.210   6.942  0.4048 -0.0159  0.0456
   91SAPS   H4R 8852   5.616   4.182   6.942 -0.3618 -3.1755 -2.0204
   91SAPS   H4S 8853   5.462   4.111   6.959  1.8401 -0.7392 -0.1439
   91SAPS   C25 8854   5.468   4.312   7.046 -0.0141 -0.2171 -0.0567
   91SAPS   H5R 8855   5.473   4.417   7.015 -0.3602 -0.5010 -1.0814
   91SAPS   C26 8856   5.478   4.287   7.178 -0.2425 -0.5600 -0.1744
   91SAPS   H6R 8857   5.453   4.368   7.248 -0.6166 -0.1625 -0.7693
   91SAPS   C27 8858   5.511   4.158   7.247 -0.5739  0.4763  0.5067
   91SAPS   H7R 8859   5.612   4.170   7.292 -1.4959  2.6951  2.1070
   91SAPS   H7S 8860   5.528   4.066   7.187  2.9142  1.7172 -0.5386
   91SAPS   C28 8861   5.407   4.126   7.352 -1.0857  0.2112 -0.2111
   91SAPS   H8R 8862   5.304   4.138   7.317 -1.0872 -1.5562 -0.8410
   91SAPS   C29 8863   5.436   4.110   7.481  0.1915 -0.5181  0.1784
   91SAPS   H9R 8864   5.356   4.071   7.546 -0.3900 -1.7722 -1.2572
   91SAPS  C210 8865   5.576   4.129   7.536 -0.7216  0.2676  0.5756
   91SAPS  H10R 8866   5.582   4.240   7.543 -2.2279  0.4491 -0.6506
   91SAPS  H10S 8867   5.663   4.103   7.472 -1.2259  1.9152 -0.8149
   91SAPS  C211 8868   5.592   4.057   7.665 -0.8779 -0.1166  0.4379
   91SAPS  H11R 8869   5.652   3.965   7.654 -0.7855 -0.1043  0.8619
   91SAPS  C212 8870   5.556   4.094   7.790 -0.3917 -0.2521 -0.4454
   91SAPS  H12R 8871   5.576   4.030   7.876 -1.0348  0.7906  0.5021
   91SAPS  C213 8872   5.494   4.227   7.834 -0.0059 -0.8183  0.1600
   91SAPS  H13R 8873   5.419   4.185   7.905  0.1359 -0.9530  0.2303
   91SAPS  H13S 8874   5.445   4.277   7.748  0.1226  1.3377  1.3145
   91SAPS  C214 8875   5.599   4.319   7.891  0.6341  0.2936  0.1068
   91SAPS  H14R 8876   5.678   4.359   7.826  1.3737  1.5122  1.7208
   91SAPS  C215 8877   5.596   4.365   8.014 -0.1194 -0.0097 -0.6823
   91SAPS  H15R 8878   5.682   4.424   8.048  0.3827  0.6524 -3.0258
   91SAPS  C216 8879   5.489   4.332   8.115  0.2397  0.6503  0.1831
   91SAPS  H16R 8880   5.398   4.312   8.056  0.4744 -0.2154  0.1143
   91SAPS  H16S 8881   5.465   4.416   8.185  0.6367  2.0820 -1.3680
   91SAPS  C217 8882   5.516   4.204   8.198  0.0469  0.3246 -0.1430
   91SAPS  H17R 8883   5.610   4.203   8.257 -0.2047 -2.9957  0.2859
   91SAPS  H17S 8884   5.535   4.127   8.121  1.2217  2.2986 -1.8848
   91SAPS  C218 8885   5.399   4.172   8.290  0.2207 -0.2884  0.1970
   91SAPS  H18R 8886   5.301   4.162   8.239  0.7074  2.1710 -1.2867
   91SAPS  H18S 8887   5.376   4.247   8.368 -0.2200  0.1298 -0.3314
   91SAPS  C219 8888   5.426   4.048   8.376 -0.3791 -0.2065  0.0697
   91SAPS  H19R 8889   5.527   4.060   8.421 -0.1923 -1.2190 -0.0543
   91SAPS  H19S 8890   5.421   3.949   8.325  2.1660 -1.4890  2.1754
   91SAPS  C220 8891   5.330   4.024   8.489  0.3966  0.3754  0.5714
   91SAPS  H20R 8892   5.231   3.993   8.450  0.5160 -0.5515  1.0039
   91SAPS  H20S 8893   5.321   4.125   8.535  0.1055  0.4716  0.3010
   91SAPS  H20T 8894   5.365   3.947   8.561  0.5959  1.1656  1.3212
   91SAPS   C33 8895   5.556   4.894   6.977  0.3752 -1.1509 -0.4474
   91SAPS   H3X 8896   5.541   4.992   7.026 -1.5657 -0.9190 -1.4329
   91SAPS   H3Y 8897   5.661   4.875   6.945  0.2007  0.0711 -1.7908
   91SAPS   C34 8898   5.518   4.782   7.073  0.3599  0.6436 -0.0527
   91SAPS   H4X 8899   5.495   4.685   7.023  0.1335 -0.2791  1.7970
   91SAPS   H4Y 8900   5.425   4.793   7.132  0.6437  1.1048  0.3026
   91SAPS   C35 8901   5.623   4.747   7.180 -0.3130  0.2517 -0.4887
   91SAPS   H5X 8902   5.726   4.756   7.138  0.2461  0.5294  0.8995
   91SAPS   H5Y 8903   5.611   4.643   7.217 -0.5855  0.6331  0.5163
   91SAPS   C36 8904   5.630   4.831   7.307  0.4149 -0.3194  0.2041
   91SAPS   H6X 8905   5.576   4.927   7.289  0.4348 -0.1493  1.0367
   91SAPS   H6Y 8906   5.736   4.851   7.336  0.0612  1.9643  0.0681
   91SAPS   C37 8907   5.560   4.772   7.428 -0.7028 -0.5966 -1.1982
   91SAPS   H7X 8908   5.591   4.666   7.432  1.0553 -0.1380 -2.1150
   91SAPS   H7Y 8909   5.449   4.765   7.421 -0.6963 -0.6904 -1.1979
   91SAPS   C38 8910   5.594   4.828   7.564  0.5570 -0.5721 -0.1066
   91SAPS   H8X 8911   5.541   4.926   7.573 -1.2793 -1.3221 -2.2094
   91SAPS   H8Y 8912   5.704   4.842   7.566  0.6749 -1.4701 -0.1941
   91SAPS   C39 8913   5.554   4.737   7.685 -0.4150  0.9514  0.2129
   91SAPS   H9X 8914   5.591   4.635   7.666 -1.9320  0.4530 -0.1489
   91SAPS   H9Y 8915   5.444   4.722   7.685 -0.3502  0.4264  1.1441
   91SAPS  C310 8916   5.605   4.792   7.823 -0.2753  0.4340 -0.3127
   91SAPS  H10X 8917   5.606   4.903   7.825 -0.6075  0.5134 -2.9451
   91SAPS  H10Y 8918   5.714   4.769   7.832 -0.9156 -1.7068  2.7151
   91SAPS  C311 8919   5.522   4.750   7.938  0.4939 -0.2296  0.8806
   91SAPS  H11X 8920   5.516   4.640   7.927 -0.4464 -0.3256  2.2576
   91SAPS  H11Y 8921   5.419   4.791   7.932  1.1262  1.1987 -0.6039
   91SAPS  C312 8922   5.582   4.775   8.081  0.3781  0.1545 -0.4995
   91SAPS  H12X 8923   5.614   4.881   8.087  0.1419  0.1053  2.2463
   91SAPS  H12Y 8924   5.672   4.710   8.075  2.7093  3.3504 -1.2956
   91SAPS  C313 8925   5.483   4.737   8.188 -0.0149  0.1581  0.6449
   91SAPS  H13X 8926   5.534   4.662   8.253 -0.1884 -0.6948 -0.1941
   91SAPS  H13Y 8927   5.389   4.695   8.148  0.1287  0.8189 -0.4090
   91SAPS  C314 8928   5.443   4.847   8.285  0.2294  0.2083 -0.2826
   91SAPS  H14X 8929   5.415   4.933   8.221 -1.7132  0.2930  0.6492
   91SAPS  H14Y 8930   5.535   4.872   8.342  0.5645 -1.9941  0.2091
   91SAPS  C315 8931   5.341   4.818   8.393 -0.7136  0.8281 -0.0030
   91SAPS  H15X 8932   5.374   4.730   8.453 -0.3464  1.4034  0.6409
   91SAPS  H15Y 8933   5.242   4.796   8.348 -1.3022 -1.1735  2.1755
   91SAPS  C316 8934   5.321   4.942   8.475 -0.0902  0.2446 -0.1551
   91SAPS  H16X 8935   5.300   5.022   8.400 -0.5333 -0.5902 -0.9354
   91SAPS  H16Y 8936   5.406   4.974   8.539 -0.3263  2.9933 -1.1294
   91SAPS  C317 8937   5.197   4.932   8.566 -0.6627  0.4703  0.0321
   91SAPS  H17X 8938   5.107   4.941   8.501 -2.1930 -0.4545  1.9684
   91SAPS  H17Y 8939   5.201   5.026   8.624  0.8704  0.4695 -0.0594
   91SAPS  C318 8940   5.196   4.817   8.661  0.7990  0.0423 -0.1723
   91SAPS  H18X 8941   5.199   4.723   8.601  1.3833  1.4911 -2.4569
   91SAPS  H18Y 8942   5.105   4.825   8.724  1.9028 -0.5904  1.5254
   91SAPS  H18Z 8943   5.289   4.819   8.722  1.0317  1.9053 -0.5694
   92SAPS     N 8944   4.214   2.482   6.378  0.1693  0.0084  0.5745
   92SAPS   HN1 8945   4.195   2.521   6.472 -0.6463  1.8058 -0.3190
   92SAPS   HN2 8946   4.128   2.477   6.319  1.4953  0.0984 -1.4502
   92SAPS   HN3 8947   4.251   2.385   6.388  0.0643  0.0292  1.1244
   92SAPS   C12 8948   4.310   2.569   6.303 -0.2459 -0.7312 -0.1366
   92SAPS  H12A 8949   4.365   2.513   6.229  3.9599  0.4510  1.9358
   92SAPS   C13 8950   4.250   2.691   6.230  0.4953 -0.9562 -1.2249
   92SAPS  O13A 8951   4.126   2.702   6.226  0.1128 -0.0543 -0.1145
   92SAPS  O13B 8952   4.321   2.756   6.145 -0.3784 -0.9782  0.4004
   92SAPS   C11 8953   4.409   2.624   6.403 -0.3184  0.1230  0.4902
   92SAPS  H11A 8954   4.360   2.684   6.483 -2.5340 -0.6673 -0.2481
   92SAPS  H11B 8955   4.477   2.699   6.356  0.3207 -2.0787 -2.2132
   92SAPS     P 8956   4.612   2.545   6.559  0.0846  0.3175  0.2139
   92SAPS   O13 8957   4.658   2.425   6.620  0.7173 -0.3329 -0.0060
   92SAPS   O14 8958   4.709   2.614   6.481  0.3185 -0.5769 -0.1695
   92SAPS   O12 8959   4.485   2.519   6.460 -0.5410 -0.0033  0.4493
   92SAPS   O11 8960   4.555   2.637   6.669  0.4374  0.5164 -0.0569
   92SAPS    C1 8961   4.477   2.586   6.772  0.3078  0.0116  0.6268
   92SAPS    HA 8962   4.369   2.606   6.756 -0.0121 -2.1388 -0.0379
   92SAPS    HB 8963   4.497   2.482   6.804 -0.5914 -0.3074  0.1700
   92SAPS    C2 8964   4.512   2.662   6.909 -0.3182  0.4770  0.5462
   92SAPS    HS 8965   4.481   2.604   6.998  0.6206 -2.6973 -1.1174
   92SAPS   O21 8966   4.425   2.780   6.910  0.4493  0.0762  0.9123
   92SAPS   C21 8967   4.300   2.757   6.947  0.7681  0.1957 -0.1360
   92SAPS   O22 8968   4.246   2.645   6.961 -0.5851 -0.0206 -0.2770
   92SAPS   C22 8969   4.221   2.888   6.961  0.2885 -0.2996 -0.3287
   92SAPS   H2R 8970   4.288   2.975   6.943 -0.1184  0.5454  2.0753
   92SAPS   H2S 8971   4.144   2.884   6.881 -0.3013  0.2556  0.2135
   92SAPS    C3 8972   4.660   2.691   6.932  0.7993  0.2449 -0.7005
   92SAPS    HX 8973   4.667   2.761   7.018 -1.7323 -0.4258  0.1182
   92SAPS    HY 8974   4.698   2.733   6.836 -0.6042  2.3010 -0.4103
   92SAPS   O31 8975   4.727   2.571   6.976  0.3754  0.0122  0.4055
   92SAPS   C31 8976   4.835   2.549   6.921 -0.0636 -0.4935  0.0287
   92SAPS   O32 8977   4.880   2.616   6.825 -0.2192 -0.1954  0.4885
   92SAPS   C32 8978   4.908   2.441   7.003  1.1103  0.8030 -1.3373
   92SAPS   H2X 8979   4.886   2.345   6.951 -0.7956  0.8155 -0.5844
   92SAPS   H2Y 8980   4.871   2.435   7.107 -1.6211  2.5256 -2.1502
   92SAPS   C23 8981   4.180   2.911   7.111 -0.7516  0.2106 -0.0636
   92SAPS   H3R 8982   4.131   2.821   7.156  0.9803 -0.7687 -0.0998
   92SAPS   H3S 8983   4.111   2.995   7.134  1.7043  2.0751  0.5707
   92SAPS   C24 8984   4.300   2.937   7.205  0.1654  0.4912  0.6117
   92SAPS   H4R 8985   4.376   2.859   7.188  1.6042  2.0070 -0.1012
   92SAPS   H4S 8986   4.271   2.907   7.308 -0.1421 -0.1672  0.3349
   92SAPS   C25 8987   4.366   3.072   7.202 -0.0207  0.2575 -0.3035
   92SAPS   H5R 8988   4.384   3.105   7.099  0.6396  0.2479 -0.1901
   92SAPS   C26 8989   4.385   3.146   7.309  0.0921  0.1927 -0.1810
   92SAPS   H6R 8990   4.436   3.243   7.304  0.6107 -0.1310 -1.2824
   92SAPS   C27 8991   4.341   3.105   7.447 -0.1832  0.0298 -0.0465
   92SAPS   H7R 8992   4.383   3.176   7.523  1.1530 -1.7249  0.9070
   92SAPS   H7S 8993   4.388   3.012   7.486  2.3348  2.6894  3.7092
   92SAPS   C28 8994   4.190   3.101   7.460  0.1739  0.5196 -0.3429
   92SAPS   H8R 8995   4.137   3.161   7.385  0.4790  2.1135  0.6903
   92SAPS   C29 8996   4.115   3.052   7.564 -0.0812 -0.0334  0.3670
   92SAPS   H9R 8997   4.006   3.069   7.560  0.2206  1.8074 -0.7699
   92SAPS  C210 8998   4.163   2.991   7.689 -0.1673  0.2701 -0.5391
   92SAPS  H10R 8999   4.269   3.020   7.703  0.4255 -2.2248  0.3529
   92SAPS  H10S 9000   4.157   2.881   7.677 -0.1171  0.3502 -1.3311
   92SAPS  C211 9001   4.089   3.031   7.810 -0.3788 -0.3757 -0.4987
   92SAPS  H11R 9002   3.996   3.087   7.790  1.4155  3.2246  0.8514
   92SAPS  C212 9003   4.136   3.033   7.932  0.0345  0.8223 -0.2776
   92SAPS  H12R 9004   4.066   3.054   8.014 -1.3490  2.4773 -1.8526
   92SAPS  C213 9005   4.268   2.988   7.977  0.2963 -0.2311  0.0740
   92SAPS  H13R 9006   4.300   2.913   7.901  2.5369  0.7197  0.0333
   92SAPS  H13S 9007   4.265   2.918   8.063 -1.3380 -0.8007 -0.4252
   92SAPS  C214 9008   4.374   3.093   7.986  1.3013 -0.0396  0.3916
   92SAPS  H14R 9009   4.373   3.172   7.910  1.8560  0.8396  1.2931
   92SAPS  C215 9010   4.475   3.095   8.068  0.2973 -0.3198  0.4616
   92SAPS  H15R 9011   4.544   3.180   8.066 -0.5551  0.3589 -1.1004
   92SAPS  C216 9012   4.516   2.994   8.176 -0.3922 -1.3309 -1.3481
   92SAPS  H16R 9013   4.627   3.001   8.181 -0.5830  0.4489  1.4276
   92SAPS  H16S 9014   4.475   2.897   8.141 -0.1479 -1.9339  0.0075
   92SAPS  C217 9015   4.452   3.027   8.312 -0.2282 -0.0305  0.4044
   92SAPS  H17R 9016   4.342   3.019   8.305 -0.2454  0.2398  0.3601
   92SAPS  H17S 9017   4.482   3.133   8.326  0.3752 -0.3277  1.4186
   92SAPS  C218 9018   4.513   2.944   8.424  0.1994 -0.9243  0.3549
   92SAPS  H18R 9019   4.617   2.972   8.451  0.0656 -1.1479  1.1206
   92SAPS  H18S 9020   4.525   2.839   8.390 -0.4856 -1.1950  0.9361
   92SAPS  C219 9021   4.427   2.955   8.550 -0.8969 -0.7429  0.1855
   92SAPS  H19R 9022   4.339   2.887   8.541 -2.2610  0.9269  0.4871
   92SAPS  H19S 9023   4.400   3.063   8.546  2.5924  0.2433  1.4356
   92SAPS  C220 9024   4.502   2.936   8.685 -0.1835  0.1154  0.3462
   92SAPS  H20R 9025   4.518   2.829   8.709 -1.4704  0.1409  1.3640
   92SAPS  H20S 9026   4.445   2.976   8.771  0.3924 -2.0495  1.7684
   92SAPS  H20T 9027   4.600   2.987   8.699  0.2500 -0.7324  0.4434
   92SAPS   C33 9028   5.065   2.457   7.001 -0.3034 -0.1205  1.2755
   92SAPS   H3X 9029   5.096   2.465   6.895  2.7115 -1.7330  1.9815
   92SAPS   H3Y 9030   5.104   2.363   7.046 -1.6936 -1.3429 -0.0272
   92SAPS   C34 9031   5.113   2.569   7.083  0.7091  0.4383 -0.6643
   92SAPS   H4X 9032   5.071   2.666   7.046 -0.0265  0.1761 -0.5271
   92SAPS   H4Y 9033   5.222   2.571   7.065  0.4414  1.4290 -2.3141
   92SAPS   C35 9034   5.090   2.562   7.235  0.3745 -0.8482 -0.4428
   92SAPS   H5X 9035   5.149   2.487   7.292  0.0671 -0.3242  0.5741
   92SAPS   H5Y 9036   4.983   2.546   7.263  0.0099  1.8675 -0.1415
   92SAPS   C36 9037   5.120   2.698   7.308  0.6741  0.0642 -0.1800
   92SAPS   H6X 9038   5.077   2.787   7.257  0.7841  0.7730  0.9533
   92SAPS   H6Y 9039   5.230   2.711   7.303  0.7020 -0.4303 -1.0533
   92SAPS   C37 9040   5.086   2.695   7.461  0.5169  0.1181 -0.3185
   92SAPS   H7X 9041   4.979   2.670   7.482  0.2069  3.1168  2.0264
   92SAPS   H7Y 9042   5.091   2.797   7.504  3.7909 -0.0883 -0.0859
   92SAPS   C38 9043   5.193   2.605   7.532  0.0788  0.0183 -0.1096
   92SAPS   H8X 9044   5.290   2.592   7.481  0.6077  1.7630  0.4154
   92SAPS   H8Y 9045   5.153   2.502   7.539 -0.7827  0.2158 -1.7461
   92SAPS   C39 9046   5.226   2.666   7.669 -0.2857 -0.0785 -0.1488
   92SAPS   H9X 9047   5.127   2.667   7.719  0.2201 -0.3154  0.8659
   92SAPS   H9Y 9048   5.282   2.762   7.667 -0.7747  0.2582  1.5887
   92SAPS  C310 9049   5.314   2.581   7.760  0.8019  0.0530  0.4580
   92SAPS  H10X 9050   5.417   2.592   7.721  0.3604  0.6546 -0.5728
   92SAPS  H10Y 9051   5.286   2.474   7.759  1.2083 -0.0621 -1.9989
   92SAPS  C311 9052   5.298   2.636   7.909  0.0116 -0.0769  0.2769
   92SAPS  H11X 9053   5.217   2.580   7.961  2.5123 -2.1459  2.0742
   92SAPS  H11Y 9054   5.281   2.746   7.901  2.2723  0.3870  1.4356
   92SAPS  C312 9055   5.425   2.613   7.993 -0.4059 -0.1073  0.9693
   92SAPS  H12X 9056   5.424   2.687   8.076 -0.1806  1.7670 -0.6733
   92SAPS  H12Y 9057   5.511   2.634   7.927 -0.7022  1.4610  1.0650
   92SAPS  C313 9058   5.437   2.465   8.040 -0.0596 -0.3205  0.4363
   92SAPS  H13X 9059   5.423   2.398   7.952 -2.7463  1.3575 -0.4665
   92SAPS  H13Y 9060   5.357   2.434   8.110  0.1469  1.3824  1.4575
   92SAPS  C314 9061   5.567   2.419   8.098 -0.2528 -0.0498 -0.2809
   92SAPS  H14X 9062   5.652   2.463   8.041 -2.0729  0.9809 -2.2712
   92SAPS  H14Y 9063   5.577   2.309   8.086  1.0493  0.0352 -0.1009
   92SAPS  C315 9064   5.579   2.426   8.250 -0.3845 -0.4772 -0.0892
   92SAPS  H15X 9065   5.488   2.400   8.309  1.2281  0.5454  2.9694
   92SAPS  H15Y 9066   5.592   2.534   8.273  2.0658 -0.8274  0.3574
   92SAPS  C316 9067   5.706   2.341   8.301  0.2260 -0.0380 -0.0780
   92SAPS  H16X 9068   5.786   2.418   8.301  0.3546 -0.1528  1.4140
   92SAPS  H16Y 9069   5.735   2.263   8.227 -1.7050 -0.1670 -0.7474
   92SAPS  C317 9070   5.687   2.296   8.445 -0.5653  0.0449 -0.6988
   92SAPS  H17X 9071   5.620   2.208   8.447  2.0549 -1.9846  2.8323
   92SAPS  H17Y 9072   5.634   2.370   8.509  0.1519 -0.4857  0.5231
   92SAPS  C318 9073   5.818   2.270   8.526  0.6736  0.6664 -0.0777
   92SAPS  H18X 9074   5.800   2.262   8.635 -0.3975  1.1797 -0.2104
   92SAPS  H18Y 9075   5.892   2.346   8.492 -0.0400  1.9045  1.0701
   92SAPS  H18Z 9076   5.858   2.170   8.499 -0.3782  0.5167 -1.1366
   93SAPS     N 9077   5.383   3.459   6.548  0.6363  0.1852 -0.4463
   93SAPS   HN1 9078   5.335   3.549   6.527 -0.3870  0.7133  3.7475
   93SAPS   HN2 9079   5.319   3.378   6.536  1.0053  0.1353 -2.2539
   93SAPS   HN3 9080   5.427   3.460   6.642  0.3655 -0.6622 -0.3084
   93SAPS   C12 9081   5.503   3.432   6.455  0.6200 -0.3421  0.0161
   93SAPS  H12A 9082   5.467   3.429   6.353  1.7426 -0.2330 -0.3941
   93SAPS   C13 9083   5.628   3.528   6.455 -0.4434  0.0316  0.5959
   93SAPS  O13A 9084   5.614   3.638   6.516 -0.0566  0.2473 -0.1425
   93SAPS  O13B 9085   5.716   3.512   6.369 -0.1996  0.2113  0.0111
   93SAPS   C11 9086   5.548   3.285   6.489 -0.3350 -0.1476  0.3383
   93SAPS  H11A 9087   5.591   3.283   6.591  1.4859 -0.9732 -0.4161
   93SAPS  H11B 9088   5.633   3.259   6.421  0.2464  1.3437  0.4548
   93SAPS     P 9089   5.447   3.056   6.425 -0.7390 -0.1108  0.1196
   93SAPS   O13 9090   5.329   2.983   6.469 -0.4575 -0.3213  0.5257
   93SAPS   O14 9091   5.455   3.071   6.280 -0.1014 -0.0402  0.0074
   93SAPS   O12 9092   5.434   3.198   6.482 -0.1873 -0.5952 -0.0414
   93SAPS   O11 9093   5.589   2.992   6.480  0.3113 -0.0551  0.0016
   93SAPS    C1 9094   5.594   2.916   6.602 -0.9403 -0.5787 -0.3701
   93SAPS    HA 9095   5.494   2.872   6.620  0.0617 -2.3781  0.9666
   93SAPS    HB 9096   5.658   2.826   6.586  0.2336  0.4110 -1.4044
   93SAPS    C2 9097   5.642   2.988   6.724 -0.7213  0.5693  0.0610
   93SAPS    HS 9098   5.568   3.069   6.741 -1.5413 -0.7967  3.6705
   93SAPS   O21 9099   5.771   3.043   6.693 -0.2675 -0.3931 -0.0553
   93SAPS   C21 9100   5.799   3.155   6.767 -0.2967 -0.0465  0.5154
   93SAPS   O22 9101   5.713   3.209   6.838  0.3999  0.2098  0.1598
   93SAPS   C22 9102   5.947   3.202   6.765  0.2354 -0.2502  0.2212
   93SAPS   H2R 9103   6.008   3.111   6.786 -1.1697 -0.6581  2.8717
   93SAPS   H2S 9104   5.968   3.239   6.663 -2.2863  0.8076  0.0572
   93SAPS    C3 9105   5.625   2.896   6.851 -0.5474 -0.6116  0.7074
   93SAPS    HX 9106   5.712   2.828   6.866  0.1581  0.2198  0.4722
   93SAPS    HY 9107   5.538   2.835   6.820  1.0751 -3.0534  0.7902
   93SAPS   O31 9108   5.599   2.966   6.975  0.0982 -0.9846  0.5307
   93SAPS   C31 9109   5.699   2.961   7.065  0.3256 -0.3872 -0.3463
   93SAPS   O32 9110   5.809   2.919   7.043 -0.5066  0.8398 -0.4748
   93SAPS   C32 9111   5.659   3.033   7.193 -0.2049  0.6263  0.7551
   93SAPS   H2X 9112   5.579   2.972   7.238  0.3489 -0.1799  0.6687
   93SAPS   H2Y 9113   5.632   3.137   7.164 -0.4751  0.2551 -0.3835
   93SAPS   C23 9114   5.973   3.326   6.858  0.6027 -0.3529 -0.0115
   93SAPS   H3R 9115   5.901   3.410   6.848 -1.3992 -1.6049  3.1577
   93SAPS   H3S 9116   6.076   3.363   6.836  0.2549 -1.0173 -3.0138
   93SAPS   C24 9117   5.973   3.294   7.013  0.1829  0.4221  0.5162
   93SAPS   H4R 9118   6.046   3.214   7.037  0.3047  0.1806 -0.6031
   93SAPS   H4S 9119   5.877   3.243   7.033  1.3294 -2.6944 -1.5900
   93SAPS   C25 9120   6.003   3.412   7.100  0.1060 -0.9334  0.3272
   93SAPS   H5R 9121   5.990   3.510   7.052  0.7750  0.0376  2.1039
   93SAPS   C26 9122   6.056   3.408   7.222 -0.2518  0.6456  0.1736
   93SAPS   H6R 9123   6.089   3.502   7.268 -1.6646  1.1225  0.2403
   93SAPS   C27 9124   6.085   3.285   7.304  0.2953  0.1349 -0.0436
   93SAPS   H7R 9125   6.087   3.192   7.244  2.3874  0.9257 -1.2387
   93SAPS   H7S 9126   6.000   3.273   7.374 -0.8295  1.3362 -1.1619
   93SAPS   C28 9127   6.215   3.298   7.374 -0.3837 -0.2279 -0.2914
   93SAPS   H8R 9128   6.304   3.300   7.310  0.4614  2.8611  0.8998
   93SAPS   C29 9129   6.238   3.324   7.506  0.2084 -0.8735 -0.0750
   93SAPS   H9R 9130   6.343   3.327   7.538 -0.2601 -2.5271  1.6678
   93SAPS  C210 9131   6.134   3.345   7.616  0.0179 -0.2344 -1.2733
   93SAPS  H10R 9132   6.035   3.318   7.575 -0.3848 -0.3144 -0.2746
   93SAPS  H10S 9133   6.121   3.454   7.634  2.3543 -0.0340 -0.5699
   93SAPS  C211 9134   6.153   3.259   7.745  0.4170  0.7718 -0.0290
   93SAPS  H11R 9135   6.172   3.152   7.735 -1.6211  0.5530 -1.7959
   93SAPS  C212 9136   6.120   3.297   7.870  0.2498 -0.3131  0.1926
   93SAPS  H12R 9137   6.123   3.222   7.950 -3.1050  0.6084  1.2572
   93SAPS  C213 9138   6.073   3.430   7.914 -0.3790  0.1935 -0.0461
   93SAPS  H13R 9139   6.048   3.497   7.829 -1.0546  0.5391  0.4222
   93SAPS  H13S 9140   6.164   3.477   7.956  0.6186 -3.0710  1.6523
   93SAPS  C214 9141   5.959   3.420   8.009  0.6675  0.7417  0.0907
   93SAPS  H14R 9142   5.856   3.427   7.970 -0.2188  1.2958  2.4259
   93SAPS  C215 9143   5.967   3.403   8.143  1.1024  0.2318  0.6446
   93SAPS  H15R 9144   5.874   3.372   8.191  0.8341  0.1753  0.0920
   93SAPS  C216 9145   6.092   3.389   8.222  0.0990  0.4481  0.2033
   93SAPS  H16R 9146   6.077   3.430   8.324 -0.2180 -0.3245  0.4722
   93SAPS  H16S 9147   6.173   3.454   8.183  2.0984 -0.9004  1.9573
   93SAPS  C217 9148   6.145   3.242   8.231  0.5490  0.1724  0.5026
   93SAPS  H17R 9149   6.211   3.218   8.145 -2.2738 -1.1004 -1.4011
   93SAPS  H17S 9150   6.062   3.171   8.212 -0.4922  1.0796  1.5819
   93SAPS  C218 9151   6.218   3.211   8.361  0.1856  0.2639  0.3695
   93SAPS  H18R 9152   6.225   3.101   8.353 -0.1229  0.3059 -0.6249
   93SAPS  H18S 9153   6.153   3.230   8.449  0.0206  0.5567  0.1867
   93SAPS  C219 9154   6.350   3.292   8.367 -0.3512  0.0235 -0.1793
   93SAPS  H19R 9155   6.330   3.387   8.314  1.6292  1.0021  0.7729
   93SAPS  H19S 9156   6.422   3.245   8.296 -0.6014  0.6494 -0.8588
   93SAPS  C220 9157   6.418   3.292   8.503  0.4847  0.5349  0.0173
   93SAPS  H20R 9158   6.408   3.190   8.545 -1.5703  0.8291  0.2906
   93SAPS  H20S 9159   6.367   3.371   8.561  1.3644  2.0375 -1.2172
   93SAPS  H20T 9160   6.523   3.325   8.486  0.3411  0.5357 -0.9175
   93SAPS   C33 9161   5.770   3.009   7.301  1.3274  0.5571  0.0311
   93SAPS   H3X 9162   5.859   3.066   7.267  2.4975  0.6797  3.1382
   93SAPS   H3Y 9163   5.799   2.902   7.300  1.3705  0.5442  1.6232
   93SAPS   C34 9164   5.729   3.042   7.442  0.4399  0.0465  0.1641
   93SAPS   H4X 9165   5.622   3.018   7.460  0.6195 -1.7186 -1.1105
   93SAPS   H4Y 9166   5.738   3.153   7.443 -0.3501  0.1155  0.7519
   93SAPS   C35 9167   5.816   2.971   7.542  0.1106 -0.0744 -0.1307
   93SAPS   H5X 9168   5.920   2.999   7.514 -0.5528  1.7810 -0.8000
   93SAPS   H5Y 9169   5.809   2.861   7.527 -0.5038  0.0502 -0.7725
   93SAPS   C36 9170   5.782   3.014   7.677  0.1142  0.5211 -0.2633
   93SAPS   H6X 9171   5.685   2.969   7.708 -1.0022  2.5188 -0.8168
   93SAPS   H6Y 9172   5.763   3.123   7.686  0.5587  0.6305 -0.6171
   93SAPS   C37 9173   5.884   2.967   7.790 -0.0620  0.9788 -0.3853
   93SAPS   H7X 9174   5.986   3.010   7.787  0.3322  0.1699  0.7235
   93SAPS   H7Y 9175   5.898   2.858   7.778 -1.1613  0.8289 -0.3746
   93SAPS   C38 9176   5.833   3.004   7.926  0.0448  0.9101 -0.5372
   93SAPS   H8X 9177   5.724   2.982   7.924  0.5842 -1.8178 -0.7269
   93SAPS   H8Y 9178   5.851   3.114   7.936  0.2654  0.6810  1.6863
   93SAPS   C39 9179   5.908   2.934   8.038  0.4526 -0.1824 -0.6043
   93SAPS   H9X 9180   6.018   2.952   8.043  0.4153 -0.1236  0.0589
   93SAPS   H9Y 9181   5.880   2.827   8.024  0.0725 -0.0328 -0.9822
   93SAPS  C310 9182   5.861   2.982   8.183 -0.7727  0.9602  0.4197
   93SAPS  H10X 9183   5.754   2.955   8.189 -0.9100  1.1937 -0.8127
   93SAPS  H10Y 9184   5.887   3.090   8.187 -1.1372  0.9871  2.0945
   93SAPS  C311 9185   5.935   2.910   8.298 -1.0974 -0.8571 -0.5157
   93SAPS  H11X 9186   6.045   2.927   8.289 -1.4867  0.8985 -2.1681
   93SAPS  H11Y 9187   5.931   2.799   8.285  1.4873 -1.3420  2.1831
   93SAPS  C312 9188   5.875   2.934   8.432 -0.2238  0.2244 -0.2353
   93SAPS  H12X 9189   5.765   2.922   8.422  0.3422 -3.2331 -3.0979
   93SAPS  H12Y 9190   5.882   3.040   8.465  0.9134  0.2557 -0.5595
   93SAPS  C313 9191   5.929   2.833   8.533 -0.4022  0.1109 -0.1017
   93SAPS  H13X 9192   6.040   2.832   8.540 -0.3345  1.2407 -0.8361
   93SAPS  H13Y 9193   5.894   2.734   8.495  0.6860  0.0950 -1.0810
   93SAPS  C314 9194   5.863   2.848   8.677 -0.0212 -0.8018 -0.5010
   93SAPS  H14X 9195   5.757   2.816   8.665 -0.1163 -1.6035  2.0967
   93SAPS  H14Y 9196   5.882   2.956   8.696  0.1317 -0.8447 -0.4098
   93SAPS  C315 9197   5.931   2.766   8.787  0.0974 -0.0496  0.0301
   93SAPS  H15X 9198   5.906   2.810   8.886  1.1045  0.5867  0.0049
   93SAPS  H15Y 9199   6.040   2.786   8.779  0.5617 -2.0531  1.0037
   93SAPS  C316 9200   5.904   2.616   8.769  0.3505 -0.1454 -0.7362
   93SAPS  H16X 9201   5.944   2.582   8.671 -0.0744 -0.4478 -0.8080
   93SAPS  H16Y 9202   5.795   2.596   8.777  0.5708 -0.5816  1.7968
   93SAPS  C317 9203   5.956   2.539   8.893 -0.2673  0.3899  0.1200
   93SAPS  H17X 9204   5.917   2.562   8.995 -0.0232  3.7952 -0.4996
   93SAPS  H17Y 9205   6.064   2.566   8.898  0.6257 -2.5455 -1.9676
   93SAPS  C318 9206   5.949   2.388   8.869 -1.1693  0.0630 -0.5242
   93SAPS  H18X 9207   5.847   2.346   8.886 -1.8557  2.3813  1.3470
   93SAPS  H18Y 9208   6.014   2.346   8.948  0.4834  1.4443 -1.1102
   93SAPS  H18Z 9209   5.970   2.361   8.763  0.8476 -0.8495  0.1006
   94SAPS     N 9210   5.498   4.766   5.783  0.7391 -0.2098  0.5678
   94SAPS   HN1 9211   5.523   4.675   5.827  2.0900  1.2116  2.8563
   94SAPS   HN2 9212   5.516   4.843   5.850 -2.3091  0.7846  0.3469
   94SAPS   HN3 9213   5.394   4.760   5.774  0.8689 -0.9858 -0.5708
   94SAPS   C12 9214   5.555   4.776   5.642  0.2422  0.0704  0.0105
   94SAPS  H12A 9215   5.532   4.682   5.592 -1.9305  0.7252 -0.2699
   94SAPS   C13 9216   5.496   4.898   5.571 -0.3083  0.2601 -0.3849
   94SAPS  O13A 9217   5.423   4.981   5.635  1.1286 -0.2342 -0.5700
   94SAPS  O13B 9218   5.529   4.909   5.449  0.0608 -0.8071 -0.2654
   94SAPS   C11 9219   5.703   4.788   5.651 -1.0327 -0.1879  0.0049
   94SAPS  H11A 9220   5.732   4.878   5.710  1.6630 -0.3242 -1.0097
   94SAPS  H11B 9221   5.749   4.795   5.550 -0.7204 -3.3246 -0.1144
   94SAPS     P 9222   5.929   4.666   5.732 -0.2588  0.3902  0.0683
   94SAPS   O13 9223   5.956   4.523   5.757  0.1828  0.0194 -0.0829
   94SAPS   O14 9224   5.991   4.725   5.613  0.5559  0.0571  0.5010
   94SAPS   O12 9225   5.765   4.676   5.724 -0.5496 -0.3351 -0.0336
   94SAPS   O11 9226   5.980   4.754   5.857  0.3014  0.2487  0.4336
   94SAPS    C1 9227   5.876   4.766   5.964  0.3273  0.1123 -0.4676
   94SAPS    HA 9228   5.804   4.846   5.937  0.1317  0.4901  1.1684
   94SAPS    HB 9229   5.817   4.674   5.984 -0.0871  0.5404  0.2910
   94SAPS    C2 9230   5.935   4.818   6.099  0.4106 -0.1246 -0.3484
   94SAPS    HS 9231   5.849   4.850   6.162  2.1276  3.3071  0.3666
   94SAPS   O21 9232   6.013   4.935   6.081  0.2836  0.1360 -0.6408
   94SAPS   C21 9233   6.026   5.021   6.185 -0.0101  0.5679 -0.2094
   94SAPS   O22 9234   5.954   5.028   6.280 -0.6388 -0.4875 -0.5793
   94SAPS   C22 9235   6.137   5.129   6.154  0.2969 -0.0609  0.4339
   94SAPS   H2R 9236   6.214   5.075   6.095  0.3956 -0.8311  1.2616
   94SAPS   H2S 9237   6.097   5.215   6.096  0.8604  0.1748  0.3883
   94SAPS    C3 9238   6.011   4.703   6.166 -0.1821 -0.3249  0.3283
   94SAPS    HX 9239   6.102   4.692   6.102  0.0873 -1.4081  0.8783
   94SAPS    HY 9240   5.944   4.614   6.159 -3.3474  1.9023  1.3448
   94SAPS   O31 9241   6.045   4.734   6.303 -0.3899  0.2003 -0.0725
   94SAPS   C31 9242   5.966   4.681   6.399 -0.4628 -0.1890  0.4689
   94SAPS   O32 9243   5.873   4.608   6.365 -0.0845 -0.3111  0.2852
   94SAPS   C32 9244   6.005   4.714   6.542  0.3937 -0.4600  0.3065
   94SAPS   H2X 9245   6.087   4.789   6.545 -0.1415  0.1949 -1.1914
   94SAPS   H2Y 9246   6.059   4.624   6.578 -0.2373 -0.0537  2.3632
   94SAPS   C23 9247   6.177   5.193   6.292  0.5670  0.4760 -0.2417
   94SAPS   H3R 9248   6.086   5.240   6.337  2.1135  1.8126  1.5840
   94SAPS   H3S 9249   6.252   5.274   6.277  0.7529  0.2980 -0.2635
   94SAPS   C24 9250   6.250   5.099   6.391  0.5748  0.4718  0.0850
   94SAPS   H4R 9251   6.189   5.006   6.381  2.0547 -0.6962  1.5791
   94SAPS   H4S 9252   6.243   5.144   6.492 -1.0701  1.2949 -0.3817
   94SAPS   C25 9253   6.395   5.064   6.371 -1.0743  0.3354  0.6248
   94SAPS   H5R 9254   6.430   5.094   6.271 -0.9793  0.8560  0.8113
   94SAPS   C26 9255   6.477   4.998   6.452  0.5520 -0.4158 -0.0121
   94SAPS   H6R 9256   6.573   4.957   6.418  0.9234 -1.4456  2.2396
   94SAPS   C27 9257   6.437   4.957   6.591 -0.5811 -0.1677  0.2997
   94SAPS   H7R 9258   6.354   5.024   6.620 -0.6058  0.3207 -0.8783
   94SAPS   H7S 9259   6.515   4.976   6.667 -0.8224 -1.8614  0.9904
   94SAPS   C28 9260   6.377   4.817   6.592  0.1666  0.6013  0.0468
   94SAPS   H8R 9261   6.343   4.772   6.498  1.5819 -0.8044  0.1978
   94SAPS   C29 9262   6.368   4.732   6.698  0.3863 -0.0417  0.0323
   94SAPS   H9R 9263   6.329   4.630   6.689  2.6507 -0.8579 -1.0746
   94SAPS  C210 9264   6.424   4.753   6.835 -0.5691 -1.0212  0.4981
   94SAPS  H10R 9265   6.369   4.838   6.879  1.0469  0.0748  0.4611
   94SAPS  H10S 9266   6.533   4.775   6.842 -0.5560 -0.9219 -0.0216
   94SAPS  C211 9267   6.412   4.633   6.930 -0.4660 -0.3054  0.2408
   94SAPS  H11R 9268   6.398   4.535   6.883 -0.3338 -1.3865  2.3824
   94SAPS  C212 9269   6.426   4.636   7.062 -0.1693  0.1443 -0.2887
   94SAPS  H12R 9270   6.392   4.547   7.116 -0.0670  0.0969 -0.3034
   94SAPS  C213 9271   6.441   4.766   7.137  0.1359  1.0980 -0.1515
   94SAPS  H13R 9272   6.355   4.777   7.206  0.4851  0.7307  0.3462
   94SAPS  H13S 9273   6.440   4.856   7.072 -0.0988  0.9251 -0.3878
   94SAPS  C214 9274   6.570   4.769   7.224 -0.0636 -0.7646 -0.2715
   94SAPS  H14R 9275   6.662   4.743   7.170  0.0217  0.3978 -0.6954
   94SAPS  C215 9276   6.579   4.804   7.356  0.0966  0.2721 -0.2888
   94SAPS  H15R 9277   6.674   4.801   7.410 -0.2985 -2.5475  0.3190
   94SAPS  C216 9278   6.472   4.843   7.448  0.3042  0.2915 -0.0639
   94SAPS  H16R 9279   6.493   4.792   7.544  2.6619 -1.6496 -1.5482
   94SAPS  H16S 9280   6.369   4.809   7.421 -0.2039  1.2475  0.6515
   94SAPS  C217 9281   6.476   4.996   7.468  0.6453  0.0239 -0.1251
   94SAPS  H17R 9282   6.469   5.048   7.370 -0.3319 -0.7560 -0.4741
   94SAPS  H17S 9283   6.577   5.026   7.505  0.3200 -1.0407  1.7013
   94SAPS  C218 9284   6.375   5.051   7.571 -0.3022  0.6289  0.7569
   94SAPS  H18R 9285   6.389   4.986   7.660  0.8562 -2.3531 -1.4916
   94SAPS  H18S 9286   6.274   5.046   7.526 -0.1933  0.9762  0.4671
   94SAPS  C219 9287   6.391   5.204   7.607  0.2863  0.4578 -0.0432
   94SAPS  H19R 9288   6.360   5.260   7.516  1.1807  0.7764 -0.1522
   94SAPS  H19S 9289   6.497   5.221   7.636  0.5200 -1.6114  0.4119
   94SAPS  C220 9290   6.299   5.246   7.723 -0.0137 -0.9201  0.4790
   94SAPS  H20R 9291   6.193   5.224   7.697  0.3387 -1.5734 -0.4399
   94SAPS  H20S 9292   6.303   5.356   7.742  0.0034 -1.1958  2.0964
   94SAPS  H20T 9293   6.324   5.189   7.815  2.1164 -1.6387 -0.5043
   94SAPS   C33 9294   5.891   4.764   6.629  0.3585 -0.3126 -0.9475
   94SAPS   H3X 9295   5.820   4.678   6.634 -1.1161  0.9044 -0.5812
   94SAPS   H3Y 9296   5.840   4.847   6.576 -1.3996 -0.4389  0.4985
   94SAPS   C34 9297   5.929   4.807   6.775 -0.1263 -0.0712 -0.9908
   94SAPS   H4X 9298   5.953   4.710   6.822 -0.7112 -0.0578 -0.6534
   94SAPS   H4Y 9299   5.835   4.850   6.817  0.2424  0.1980 -0.4313
   94SAPS   C35 9300   6.044   4.908   6.795 -0.2196  0.3686  0.0427
   94SAPS   H5X 9301   6.007   5.008   6.763 -1.1755  0.3820  1.1568
   94SAPS   H5Y 9302   6.136   4.879   6.742  0.3849  0.2437  1.1453
   94SAPS   C36 9303   6.087   4.915   6.943 -0.3040 -0.2442 -0.0649
   94SAPS   H6X 9304   6.171   4.988   6.948 -0.3362 -0.0910 -1.5713
   94SAPS   H6Y 9305   6.129   4.821   6.985  0.5453 -0.5069 -1.4740
   94SAPS   C37 9306   5.972   4.962   7.030  0.0201  0.0527 -0.4411
   94SAPS   H7X 9307   5.877   4.904   7.025  1.4134 -2.0464 -3.6503
   94SAPS   H7Y 9308   5.948   5.070   7.020 -1.2436 -0.1726  0.0017
   94SAPS   C38 9309   6.015   4.955   7.177  0.2068  0.0842 -0.5580
   94SAPS   H8X 9310   6.121   4.988   7.167 -0.4617  2.1913 -1.0048
   94SAPS   H8Y 9311   6.009   4.848   7.206  0.5756 -0.2349 -1.6364
   94SAPS   C39 9312   5.938   5.048   7.260  0.2875  0.3881 -0.0962
   94SAPS   H9X 9313   5.829   5.038   7.245 -0.1365 -0.1120  2.9276
   94SAPS   H9Y 9314   5.960   5.152   7.227  2.0312 -0.2355 -0.9659
   94SAPS  C310 9315   5.962   5.011   7.409  0.5670  0.1971 -1.0087
   94SAPS  H10X 9316   6.063   5.050   7.435  0.7350 -1.7767  1.4731
   94SAPS  H10Y 9317   5.967   4.904   7.435 -0.5063  0.3513 -0.1525
   94SAPS  C311 9318   5.863   5.075   7.504  0.0323  0.4053 -0.2513
   94SAPS  H11X 9319   5.759   5.036   7.495  0.0296  0.2560  0.3538
   94SAPS  H11Y 9320   5.862   5.185   7.484  4.7058  0.1417 -2.3639
   94SAPS  C312 9321   5.880   5.052   7.656  0.4520  0.4333  0.2310
   94SAPS  H12X 9322   5.983   5.087   7.680  0.8819  0.3652 -1.4404
   94SAPS  H12Y 9323   5.881   4.945   7.684  2.6081  0.4854  0.4121
   94SAPS  C313 9324   5.779   5.125   7.748 -0.1366 -0.3628  0.2697
   94SAPS  H13X 9325   5.674   5.088   7.743 -0.4210  0.2774  1.2041
   94SAPS  H13Y 9326   5.779   5.231   7.716 -0.3969 -0.0148  1.3995
   94SAPS  C314 9327   5.811   5.106   7.896 -0.3944 -0.3355  0.9307
   94SAPS  H14X 9328   5.842   5.000   7.913  2.5758  0.9288  3.9422
   94SAPS  H14Y 9329   5.722   5.125   7.960 -1.1072 -0.2272 -0.0794
   94SAPS  C315 9330   5.939   5.184   7.947  0.3873  0.0086 -0.3824
   94SAPS  H15X 9331   6.030   5.150   7.893  2.5121 -0.0122  3.0879
   94SAPS  H15Y 9332   5.961   5.160   8.053 -0.9625  0.2017 -0.0439
   94SAPS  C316 9333   5.910   5.337   7.954 -0.2416  0.7900  0.8393
   94SAPS  H16X 9334   5.826   5.366   8.021 -2.1777  0.1147 -1.2271
   94SAPS  H16Y 9335   5.886   5.354   7.847 -3.4347 -0.5586  1.3027
   94SAPS  C317 9336   6.031   5.422   7.997 -0.6870 -0.1093  0.4078
   94SAPS  H17X 9337   6.119   5.402   7.932  0.4487 -0.2539  1.9443
   94SAPS  H17Y 9338   6.063   5.410   8.103 -1.0382  0.4212  0.5814
   94SAPS  C318 9339   6.010   5.574   7.979  0.1888  0.1210  0.1624
   94SAPS  H18X 9340   6.096   5.632   8.019  0.2943 -0.6613  1.0653
   94SAPS  H18Y 9341   5.912   5.599   8.024 -0.9770  1.2067 -2.8331
   94SAPS  H18Z 9342   6.007   5.589   7.869 -0.6968 -0.2930  0.1270
   95SAPS     N 9343   1.845   3.232   5.820 -0.0516 -0.2659  0.2019
   95SAPS   HN1 9344   1.843   3.129   5.829  0.6491 -0.3440 -0.4917
   95SAPS   HN2 9345   1.822   3.265   5.725 -0.7357  1.5831  0.9859
   95SAPS   HN3 9346   1.948   3.245   5.831 -0.5322  4.0852  0.3800
   95SAPS   C12 9347   1.774   3.300   5.925  0.1112 -0.3006 -0.5501
   95SAPS  H12A 9348   1.768   3.403   5.896 -1.2512 -0.1752  0.1480
   95SAPS   C13 9349   1.628   3.248   5.951  0.5524 -0.2181 -0.0082
   95SAPS  O13A 9350   1.583   3.147   5.889  0.1510 -0.2030 -1.0157
   95SAPS  O13B 9351   1.554   3.307   6.028 -0.3014 -0.0974 -0.3127
   95SAPS   C11 9352   1.848   3.293   6.055  0.4314  0.6701  0.0592
   95SAPS  H11A 9353   1.856   3.188   6.090  1.3925  0.9501  0.7166
   95SAPS  H11B 9354   1.789   3.338   6.138  0.9186  1.7907 -0.1883
   95SAPS     P 9355   2.008   3.490   6.112  0.5984  0.0924 -0.0942
   95SAPS   O13 9356   2.073   3.578   6.010  0.1393  0.0464  0.5988
   95SAPS   O14 9357   1.889   3.540   6.179 -0.0248  0.2918 -0.1885
   95SAPS   O12 9358   1.977   3.357   6.039 -0.4915  0.7079 -0.1095
   95SAPS   O11 9359   2.115   3.444   6.219 -0.3035 -1.2721  0.2759
   95SAPS    C1 9360   2.087   3.345   6.313  0.3192 -0.4266 -0.7790
   95SAPS    HA 9361   1.986   3.299   6.306 -0.2217  0.7451 -0.8084
   95SAPS    HB 9362   2.149   3.254   6.300 -0.7075 -1.3563  0.6861
   95SAPS    C2 9363   2.099   3.405   6.449  0.4561  0.1055 -0.2280
   95SAPS    HS 9364   2.013   3.475   6.451  0.3388 -0.0630  0.9397
   95SAPS   O21 9365   2.228   3.461   6.463 -0.6806 -0.4994 -0.0923
   95SAPS   C21 9366   2.227   3.579   6.533  0.2274  0.2499  0.0254
   95SAPS   O22 9367   2.126   3.634   6.564  0.2756 -0.2554 -0.0607
   95SAPS   C22 9368   2.362   3.614   6.579 -0.7971 -0.4430  0.7935
   95SAPS   H2R 9369   2.440   3.536   6.568 -0.7864 -0.2744 -0.3978
   95SAPS   H2S 9370   2.400   3.702   6.522 -1.9312 -1.3193 -1.3498
   95SAPS    C3 9371   2.077   3.298   6.557  0.2812  0.2706  0.1889
   95SAPS    HX 9372   2.093   3.342   6.658 -0.9380  0.2576  0.4030
   95SAPS    HY 9373   2.161   3.227   6.545 -0.3243 -0.2475 -1.0520
   95SAPS   O31 9374   1.938   3.235   6.545 -0.2766 -0.1074 -0.1552
   95SAPS   C31 9375   1.834   3.297   6.604  0.9517  0.5963  0.5939
   95SAPS   O32 9376   1.847   3.388   6.680  0.6229 -0.0561 -0.0965
   95SAPS   C32 9377   1.706   3.242   6.556  0.6164 -0.2280  0.4778
   95SAPS   H2X 9378   1.712   3.198   6.455  0.3280  1.5413 -0.3234
   95SAPS   H2Y 9379   1.639   3.331   6.555  1.2033  0.2090  0.0953
   95SAPS   C23 9380   2.363   3.648   6.735  0.0417  0.8603  0.5394
   95SAPS   H3R 9381   2.282   3.720   6.762 -0.1857  0.6021  0.5469
   95SAPS   H3S 9382   2.463   3.694   6.751  0.5843 -0.3212  0.5937
   95SAPS   C24 9383   2.342   3.522   6.818  0.2924 -0.2790  0.4716
   95SAPS   H4R 9384   2.250   3.466   6.791  0.8351 -0.7221 -0.4707
   95SAPS   H4S 9385   2.320   3.575   6.913  1.1178  2.2066 -0.6887
   95SAPS   C25 9386   2.467   3.446   6.828 -1.2244  0.2901  0.2141
   95SAPS   H5R 9387   2.498   3.397   6.735 -2.2193  1.6892 -0.8815
   95SAPS   C26 9388   2.548   3.438   6.934  0.1359  0.1179 -0.0247
   95SAPS   H6R 9389   2.633   3.370   6.926  0.0150 -0.3825  2.5238
   95SAPS   C27 9390   2.526   3.512   7.067 -0.0783  1.1128 -0.2783
   95SAPS   H7R 9391   2.443   3.472   7.129 -0.3608 -1.9137 -2.4886
   95SAPS   H7S 9392   2.504   3.619   7.046 -2.0544  0.7600 -0.1709
   95SAPS   C28 9393   2.660   3.522   7.143 -0.4145 -0.7266 -0.1630
   95SAPS   H8R 9394   2.749   3.549   7.084  1.3571 -0.8566  2.3777
   95SAPS   C29 9395   2.688   3.506   7.279  0.4832 -0.4033 -0.8369
   95SAPS   H9R 9396   2.793   3.525   7.307 -0.2404  2.2657  0.2060
   95SAPS  C210 9397   2.590   3.481   7.391  0.3006  0.1843  0.1551
   95SAPS  H10R 9398   2.639   3.407   7.457  0.0760 -0.5959 -0.5471
   95SAPS  H10S 9399   2.504   3.424   7.350  1.4974 -0.7217 -1.1659
   95SAPS  C211 9400   2.540   3.608   7.456  1.4675  0.5272 -0.0530
   95SAPS  H11R 9401   2.477   3.667   7.388  0.4968  0.5485  0.8591
   95SAPS  C212 9402   2.575   3.667   7.572  0.8135 -0.4917  0.0963
   95SAPS  H12R 9403   2.522   3.759   7.601  2.5195  0.6332 -0.2708
   95SAPS  C213 9404   2.668   3.607   7.673 -0.7722 -0.3719  0.1226
   95SAPS  H13R 9405   2.728   3.692   7.712 -0.3681 -0.9380  0.7506
   95SAPS  H13S 9406   2.735   3.546   7.608 -1.0047  1.0650 -1.5004
   95SAPS  C214 9407   2.603   3.519   7.778 -0.1789  0.3743  0.6364
   95SAPS  H14R 9408   2.503   3.478   7.759  1.0472 -0.8965 -3.5976
   95SAPS  C215 9409   2.657   3.457   7.880 -0.4799  0.0427  0.2918
   95SAPS  H15R 9410   2.585   3.407   7.947 -1.5526  0.5376 -0.4739
   95SAPS  C216 9411   2.798   3.476   7.923  0.7539  0.0664  0.1966
   95SAPS  H16R 9412   2.851   3.566   7.883  0.5673  0.2469  0.3547
   95SAPS  H16S 9413   2.867   3.391   7.904  0.2657  0.0300 -1.4431
   95SAPS  C217 9414   2.810   3.493   8.076  0.1282  0.2507  0.7915
   95SAPS  H17R 9415   2.775   3.402   8.130  0.1098 -1.0643 -1.3975
   95SAPS  H17S 9416   2.748   3.580   8.107 -1.4312 -0.9549  1.1710
   95SAPS  C218 9417   2.952   3.516   8.122  0.8195  0.4320  1.1341
   95SAPS  H18R 9418   3.008   3.570   8.042 -0.4240 -0.2482 -0.2057
   95SAPS  H18S 9419   2.984   3.410   8.124 -0.1259  0.1308  0.5982
   95SAPS  C219 9420   2.977   3.573   8.263  0.5732 -0.7390  0.1331
   95SAPS  H19R 9421   2.953   3.681   8.265  0.7930 -0.6861 -0.1659
   95SAPS  H19S 9422   3.083   3.562   8.293  0.6669 -0.5202 -0.1270
   95SAPS  C220 9423   2.890   3.505   8.370  0.9573  0.4487  0.3454
   95SAPS  H20R 9424   2.928   3.542   8.467 -2.2957  0.1525  1.8185
   95SAPS  H20S 9425   2.896   3.394   8.367  1.5390  0.5042 -1.1606
   95SAPS  H20T 9426   2.786   3.540   8.351  0.7402 -0.6050 -0.5048
   95SAPS   C33 9427   1.658   3.145   6.665 -0.2677  1.2988 -0.4957
   95SAPS   H3X 9428   1.644   3.207   6.756 -1.3410 -1.6354  1.4213
   95SAPS   H3Y 9429   1.723   3.058   6.692 -2.4989 -0.2087  0.2257
   95SAPS   C34 9430   1.512   3.106   6.649  0.3907  0.0976  0.0057
   95SAPS   H4X 9431   1.507   3.047   6.555 -3.0533  1.3205 -0.6552
   95SAPS   H4Y 9432   1.452   3.192   6.612 -2.2331 -2.5868 -2.2297
   95SAPS   C35 9433   1.446   3.042   6.777  0.7422  0.3651  0.2842
   95SAPS   H5X 9434   1.450   2.932   6.764 -3.2090  0.0297  1.2076
   95SAPS   H5Y 9435   1.337   3.061   6.765  0.3477 -1.7553  0.3310
   95SAPS   C36 9436   1.480   3.096   6.917  0.1415 -0.4037 -0.1681
   95SAPS   H6X 9437   1.465   3.206   6.908  1.7972 -0.0893  0.6692
   95SAPS   H6Y 9438   1.589   3.080   6.935 -0.3056 -2.4776  0.8782
   95SAPS   C37 9439   1.397   3.032   7.034  0.2423  0.0917  0.0591
   95SAPS   H7X 9440   1.378   2.925   7.012  0.1417  0.1851 -0.3070
   95SAPS   H7Y 9441   1.300   3.085   7.023  0.2489 -0.2248 -1.6092
   95SAPS   C38 9442   1.448   3.068   7.178 -0.1305 -0.0017  0.3850
   95SAPS   H8X 9443   1.486   3.172   7.182  2.0933 -0.7767  0.0316
   95SAPS   H8Y 9444   1.542   3.013   7.198  1.1980  1.4584 -1.6909
   95SAPS   C39 9445   1.340   3.045   7.282 -0.7568 -0.0651 -1.0916
   95SAPS   H9X 9446   1.313   2.937   7.289  0.0896 -0.1597  0.9771
   95SAPS   H9Y 9447   1.250   3.106   7.259 -0.5072  0.0285 -1.8558
   95SAPS  C310 9448   1.376   3.065   7.431  0.2203 -0.3119 -0.1954
   95SAPS  H10X 9449   1.408   3.170   7.448  1.6942 -0.6767 -0.6499
   95SAPS  H10Y 9450   1.467   3.007   7.457  0.4878  0.7155  1.2338
   95SAPS  C311 9451   1.268   3.025   7.534  1.0683  0.9204  0.4082
   95SAPS  H11X 9452   1.254   2.915   7.537  1.2447  0.9097  0.8909
   95SAPS  H11Y 9453   1.169   3.069   7.510  0.5741 -0.1239  0.4874
   95SAPS  C312 9454   1.296   3.064   7.682 -0.5312 -0.6640 -0.2034
   95SAPS  H12X 9455   1.204   3.045   7.741 -1.3055 -1.8044 -1.7532
   95SAPS  H12Y 9456   1.310   3.174   7.682 -2.4904 -0.3915  1.0732
   95SAPS  C313 9457   1.425   3.001   7.740 -0.0563  0.2324 -0.2591
   95SAPS  H13X 9458   1.512   3.044   7.686  0.5786 -0.9399 -0.1941
   95SAPS  H13Y 9459   1.412   2.892   7.723  0.2176  0.1670 -0.0580
   95SAPS  C314 9460   1.446   3.019   7.896  0.0814  0.3032  0.3331
   95SAPS  H14X 9461   1.515   2.939   7.931 -0.2838 -0.5643 -0.8801
   95SAPS  H14Y 9462   1.342   3.011   7.934 -0.0557 -1.7540 -0.4165
   95SAPS  C315 9463   1.490   3.161   7.940  0.5616 -0.2705  0.0070
   95SAPS  H15X 9464   1.424   3.243   7.906  2.5735  1.4530  0.0955
   95SAPS  H15Y 9465   1.582   3.167   7.877 -0.2398 -1.1283 -1.2644
   95SAPS  C316 9466   1.525   3.178   8.090 -0.1427  0.0977 -0.1049
   95SAPS  H16X 9467   1.597   3.097   8.118 -2.1195 -1.5914  0.1847
   95SAPS  H16Y 9468   1.436   3.162   8.155  0.4980  1.1730  1.0751
   95SAPS  C317 9469   1.593   3.318   8.117  0.4325 -0.2596 -0.2778
   95SAPS  H17X 9470   1.514   3.391   8.090  0.4161 -0.2135 -0.1013
   95SAPS  H17Y 9471   1.679   3.327   8.047  1.4282  2.5973  1.2624
   95SAPS  C318 9472   1.629   3.337   8.266 -0.1451  0.0832  0.0252
   95SAPS  H18X 9473   1.713   3.275   8.302 -0.0608  1.1513  1.7229
   95SAPS  H18Y 9474   1.542   3.312   8.331  1.0102  2.5719  2.6535
   95SAPS  H18Z 9475   1.664   3.441   8.280 -1.2711  0.3409  1.0045
   96SAPS     N 9476   2.655   5.161   6.304 -0.8551  0.3386 -0.4929
   96SAPS   HN1 9477   2.745   5.137   6.257 -0.0032  0.6544  0.9283
   96SAPS   HN2 9478   2.644   5.262   6.326 -1.8397  0.1089  0.1185
   96SAPS   HN3 9479   2.649   5.112   6.395  1.8755  0.2444 -0.3190
   96SAPS   C12 9480   2.547   5.115   6.214  0.5099  0.5903  0.1548
   96SAPS  H12A 9481   2.454   5.166   6.235  1.3497  1.2891  2.4080
   96SAPS   C13 9482   2.569   5.157   6.066 -0.5597  0.4643  0.0910
   96SAPS  O13A 9483   2.686   5.155   6.021 -0.0931 -0.3162  0.1156
   96SAPS  O13B 9484   2.477   5.141   5.978  0.3886  0.1107  0.2134
   96SAPS   C11 9485   2.540   4.962   6.223 -0.3357  0.4671 -0.3922
   96SAPS  H11A 9486   2.643   4.926   6.204 -0.4347  0.2802 -0.5781
   96SAPS  H11B 9487   2.476   4.912   6.147 -1.4527 -0.5761  1.1743
   96SAPS     P 9488   2.365   4.846   6.391  0.1377 -0.0535  0.0724
   96SAPS   O13 9489   2.261   4.944   6.392  0.4946 -0.5994 -0.2837
   96SAPS   O14 9490   2.343   4.729   6.314  0.4496 -0.1087 -0.4599
   96SAPS   O12 9491   2.503   4.915   6.352  0.8464  0.8046 -0.2082
   96SAPS   O11 9492   2.392   4.806   6.544 -0.0792 -0.3156  0.0150
   96SAPS    C1 9493   2.499   4.717   6.565 -0.2029 -0.4302 -0.0080
   96SAPS    HA 9494   2.467   4.612   6.545 -0.9375  0.0052 -1.1092
   96SAPS    HB 9495   2.590   4.721   6.502 -1.3368  1.5761 -1.5580
   96SAPS    C2 9496   2.544   4.722   6.715 -0.2925 -0.5387  0.0212
   96SAPS    HS 9497   2.613   4.636   6.725 -0.5792 -0.7782 -0.0552
   96SAPS   O21 9498   2.426   4.710   6.797 -0.2386  0.4294  0.1707
   96SAPS   C21 9499   2.448   4.651   6.910  0.1690  0.1188  0.7158
   96SAPS   O22 9500   2.547   4.583   6.940  0.3111 -0.0742  0.2112
   96SAPS   C22 9501   2.337   4.689   7.009  0.0328 -0.6767 -0.0692
   96SAPS   H2R 9502   2.353   4.795   7.035  0.0403 -0.0037 -2.6649
   96SAPS   H2S 9503   2.235   4.678   6.965 -0.8988  0.6861  1.6972
   96SAPS    C3 9504   2.620   4.846   6.740 -0.3401  0.0597 -0.2260
   96SAPS    HX 9505   2.553   4.935   6.748  0.2897  0.3949  1.7839
   96SAPS    HY 9506   2.694   4.867   6.660 -0.7471  1.0871 -0.3517
   96SAPS   O31 9507   2.690   4.836   6.867  0.3360 -0.1934 -0.2071
   96SAPS   C31 9508   2.797   4.763   6.864  0.0273  0.1505 -1.0949
   96SAPS   O32 9509   2.839   4.694   6.772 -0.4636 -0.6338  0.5124
   96SAPS   C32 9510   2.870   4.767   7.002 -0.3593  0.5206 -0.0718
   96SAPS   H2X 9511   2.962   4.829   6.994 -1.7375  2.4717 -1.2203
   96SAPS   H2Y 9512   2.899   4.662   7.024 -1.6344  0.6728  2.4446
   96SAPS   C23 9513   2.339   4.596   7.131 -0.0829  0.1260  0.0841
   96SAPS   H3R 9514   2.428   4.619   7.193  1.4527 -0.0723 -2.0070
   96SAPS   H3S 9515   2.339   4.489   7.102  1.7766  0.8843 -2.9159
   96SAPS   C24 9516   2.220   4.618   7.228  0.5175 -0.1570  0.2370
   96SAPS   H4R 9517   2.229   4.530   7.295  2.2934  1.1708  1.7734
   96SAPS   H4S 9518   2.129   4.599   7.166  0.4178  1.0612  0.0075
   96SAPS   C25 9519   2.201   4.748   7.296  0.2245 -0.1666  0.3200
   96SAPS   H5R 9520   2.121   4.808   7.251  0.3475 -0.3015 -0.0821
   96SAPS   C26 9521   2.254   4.796   7.409 -0.3115  0.3672 -0.1550
   96SAPS   H6R 9522   2.234   4.898   7.444  4.6957  1.6306 -0.6001
   96SAPS   C27 9523   2.353   4.713   7.492  0.6812 -0.0269 -0.0414
   96SAPS   H7R 9524   2.446   4.768   7.516 -0.3017  2.2467 -1.2410
   96SAPS   H7S 9525   2.382   4.623   7.434 -1.4588  0.3412 -1.7512
   96SAPS   C28 9526   2.288   4.662   7.615  0.1167 -0.5688 -0.2303
   96SAPS   H8R 9527   2.233   4.570   7.594  0.2579 -0.5119 -0.8683
   96SAPS   C29 9528   2.297   4.707   7.738 -0.0497  0.4068 -0.2432
   96SAPS   H9R 9529   2.249   4.650   7.819  0.6997  1.2361  0.7985
   96SAPS  C210 9530   2.379   4.826   7.794  0.3672  0.0249 -0.2866
   96SAPS  H10R 9531   2.471   4.851   7.737  0.0580 -2.9505 -2.1946
   96SAPS  H10S 9532   2.431   4.793   7.887 -0.6313  0.1987  0.3338
   96SAPS  C211 9533   2.291   4.943   7.829 -0.2376  0.0472  0.0436
   96SAPS  H11R 9534   2.268   5.007   7.742  2.8473 -1.4876 -2.0075
   96SAPS  C212 9535   2.237   4.971   7.956 -0.3595 -0.4430  0.4241
   96SAPS  H12R 9536   2.196   5.071   7.977  1.1222 -0.1586  2.1386
   96SAPS  C213 9537   2.272   4.889   8.075  0.0099 -0.2182  0.7553
   96SAPS  H13R 9538   2.238   4.955   8.158  0.7542 -0.2090  1.0559
   96SAPS  H13S 9539   2.381   4.872   8.086 -0.0670 -0.9741  0.3074
   96SAPS  C214 9540   2.190   4.767   8.076  0.2909 -0.6061 -0.7345
   96SAPS  H14R 9541   2.106   4.742   8.009 -0.6040 -1.4432  0.6695
   96SAPS  C215 9542   2.208   4.672   8.167 -0.2494  0.1704  0.7925
   96SAPS  H15R 9543   2.150   4.578   8.166 -0.5203  0.3394  0.7688
   96SAPS  C216 9544   2.309   4.666   8.274  0.0500  0.5505 -0.6165
   96SAPS  H16R 9545   2.404   4.706   8.232 -0.7562  0.1718 -2.8580
   96SAPS  H16S 9546   2.325   4.558   8.299  2.5405  0.5868 -1.8713
   96SAPS  C217 9547   2.274   4.747   8.399  0.5457  0.1109 -0.5986
   96SAPS  H17R 9548   2.172   4.723   8.436  0.7887 -1.5961 -1.0072
   96SAPS  H17S 9549   2.279   4.854   8.371 -1.9783  0.4184 -0.0086
   96SAPS  C218 9550   2.364   4.736   8.519  0.1194  0.0301  0.1685
   96SAPS  H18R 9551   2.467   4.772   8.499  0.1112  0.4148  0.8271
   96SAPS  H18S 9552   2.375   4.631   8.554  2.3488  0.2864  0.2818
   96SAPS  C219 9553   2.318   4.816   8.647 -0.2848  0.1445 -0.1144
   96SAPS  H19R 9554   2.213   4.782   8.663 -0.5181  0.5165 -0.8263
   96SAPS  H19S 9555   2.331   4.921   8.613  0.7421  0.4988  1.3199
   96SAPS  C220 9556   2.420   4.781   8.754 -0.3755  0.3244  0.0969
   96SAPS  H20R 9557   2.403   4.825   8.855  2.7096 -2.0198  1.7520
   96SAPS  H20S 9558   2.526   4.806   8.733 -0.1892  0.7464  1.4975
   96SAPS  H20T 9559   2.429   4.671   8.771 -1.0690  0.0065 -1.5638
   96SAPS   C33 9560   2.775   4.814   7.110 -0.2090  0.1738 -0.6114
   96SAPS   H3X 9561   2.676   4.769   7.089  1.6060 -2.8523 -3.0328
   96SAPS   H3Y 9562   2.764   4.923   7.090  5.2397  1.3547  1.8319
   96SAPS   C34 9563   2.843   4.781   7.242 -0.4761 -0.0295 -0.8145
   96SAPS   H4X 9564   2.949   4.813   7.236 -0.2973 -0.6872 -1.2497
   96SAPS   H4Y 9565   2.854   4.670   7.245 -0.0005 -0.0268 -2.1437
   96SAPS   C35 9566   2.772   4.835   7.368  0.3927  0.1393  0.5012
   96SAPS   H5X 9567   2.663   4.816   7.359  0.6379 -1.7290  1.2085
   96SAPS   H5Y 9568   2.780   4.946   7.364 -4.0505  0.5477  1.1179
   96SAPS   C36 9569   2.829   4.775   7.493  0.5562 -0.3085  0.0700
   96SAPS   H6X 9570   2.941   4.776   7.494  0.5790  2.4906 -1.4618
   96SAPS   H6Y 9571   2.786   4.672   7.492  1.1006 -0.6345  3.1811
   96SAPS   C37 9572   2.775   4.858   7.618  0.0604  0.0665 -0.2364
   96SAPS   H7X 9573   2.666   4.876   7.612 -0.0190  0.0034  0.9487
   96SAPS   H7Y 9574   2.829   4.955   7.623  1.7011 -0.8796  1.3344
   96SAPS   C38 9575   2.815   4.795   7.752  0.3307  0.4252  0.4956
   96SAPS   H8X 9576   2.925   4.780   7.754 -0.1130 -2.9939  1.0221
   96SAPS   H8Y 9577   2.776   4.692   7.762 -1.3885  0.9544 -0.4627
   96SAPS   C39 9578   2.761   4.884   7.863 -0.5141  0.2681  0.2190
   96SAPS   H9X 9579   2.654   4.904   7.844 -0.8357 -1.0060  0.6727
   96SAPS   H9Y 9580   2.814   4.981   7.849 -0.4314  0.2911  0.6797
   96SAPS  C310 9581   2.786   4.859   8.012  0.5428  0.5510  0.6129
   96SAPS  H10X 9582   2.746   4.944   8.072  0.0939  1.9187 -1.5427
   96SAPS  H10Y 9583   2.894   4.880   8.026  1.1792 -2.3339  0.3034
   96SAPS  C311 9584   2.741   4.728   8.053 -0.0552  0.2416 -0.4499
   96SAPS  H11X 9585   2.783   4.645   7.992  0.0975  0.1295 -0.1903
   96SAPS  H11Y 9586   2.630   4.725   8.048 -0.1617  1.6100  0.6615
   96SAPS  C312 9587   2.785   4.705   8.197  0.3030  0.3765  0.0273
   96SAPS  H12X 9588   2.757   4.791   8.261 -4.3292  0.6306 -2.1308
   96SAPS  H12Y 9589   2.895   4.698   8.189  0.1198 -4.1461  0.1707
   96SAPS  C313 9590   2.709   4.575   8.241  0.4173  0.5138 -0.4561
   96SAPS  H13X 9591   2.728   4.487   8.176 -0.6701  0.6882 -1.0214
   96SAPS  H13Y 9592   2.600   4.595   8.245  0.0443  0.0376 -5.1843
   96SAPS  C314 9593   2.746   4.526   8.382  0.7156 -0.3377  0.2530
   96SAPS  H14X 9594   2.704   4.425   8.401  0.7852 -0.5876 -0.9185
   96SAPS  H14Y 9595   2.709   4.597   8.459 -2.3487 -0.1206 -1.3646
   96SAPS  C315 9596   2.891   4.469   8.394  0.1483 -0.3780  1.2793
   96SAPS  H15X 9597   2.967   4.548   8.414 -0.3852  0.3570  0.4238
   96SAPS  H15Y 9598   2.917   4.426   8.295 -0.2472  1.7207  0.2121
   96SAPS  C316 9599   2.908   4.363   8.499  0.1855 -0.3657 -0.6761
   96SAPS  H16X 9600   2.859   4.269   8.466  1.9638 -1.2303 -0.9367
   96SAPS  H16Y 9601   2.858   4.401   8.591  0.2578  1.4993 -1.3994
   96SAPS  C317 9602   3.059   4.337   8.534 -0.3157 -0.1235  0.3340
   96SAPS  H17X 9603   3.064   4.301   8.639 -2.3047 -1.3793  0.0360
   96SAPS  H17Y 9604   3.117   4.432   8.541  1.2480 -0.9522 -0.9339
   96SAPS  C318 9605   3.116   4.245   8.426 -0.5159  0.3590  0.0389
   96SAPS  H18X 9606   3.224   4.229   8.447 -0.6735 -1.0892 -0.2042
   96SAPS  H18Y 9607   3.102   4.296   8.328  0.5982  3.7036  1.5588
   96SAPS  H18Z 9608   3.061   4.149   8.417  2.1405 -1.3033  1.0218
   97SAPS     N 9609   3.971   2.584   6.018  0.9626  0.3129 -0.0671
   97SAPS   HN1 9610   3.992   2.485   6.042 -1.4290  0.7866  4.5934
   97SAPS   HN2 9611   3.986   2.615   5.920  0.3495  0.5202 -0.0928
   97SAPS   HN3 9612   4.026   2.631   6.093 -0.0680  1.9393 -0.3286
   97SAPS   C12 9613   3.824   2.617   6.031  0.4966 -0.0244 -0.4254
   97SAPS  H12A 9614   3.821   2.725   6.031  0.7696 -0.0058 -2.1077
   97SAPS   C13 9615   3.718   2.582   5.911  0.5163  0.0978 -0.3482
   97SAPS  O13A 9616   3.766   2.514   5.816  0.4351  0.2841 -0.4612
   97SAPS  O13B 9617   3.598   2.577   5.944  0.2475 -0.2473  0.2164
   97SAPS   C11 9618   3.775   2.544   6.157  0.7592 -0.0334 -0.9303
   97SAPS  H11A 9619   3.791   2.434   6.149 -0.9808 -0.4267  0.7353
   97SAPS  H11B 9620   3.665   2.555   6.169  0.9457 -1.4152  2.5643
   97SAPS     P 9621   3.809   2.544   6.422 -0.1721 -0.3775  0.4633
   97SAPS   O13 9622   3.904   2.437   6.455 -0.1644 -0.1487  0.5714
   97SAPS   O14 9623   3.804   2.661   6.515 -0.1777  0.0524  0.0039
   97SAPS   O12 9624   3.838   2.600   6.272  0.3724 -0.3289 -0.2528
   97SAPS   O11 9625   3.660   2.483   6.413 -0.3469  0.0899 -0.1141
   97SAPS    C1 9626   3.626   2.353   6.450 -0.2397  0.6337 -1.1197
   97SAPS    HA 9627   3.535   2.326   6.393 -0.8950  1.0142 -0.2783
   97SAPS    HB 9628   3.696   2.275   6.414 -0.8269 -0.4853  0.1178
   97SAPS    C2 9629   3.610   2.322   6.600 -0.0173  0.3482  0.3623
   97SAPS    HS 9630   3.551   2.409   6.636 -0.6140 -0.3927  1.1837
   97SAPS   O21 9631   3.735   2.302   6.664 -0.2139 -0.0199 -0.2716
   97SAPS   C21 9632   3.751   2.367   6.783 -0.5841  0.5129  0.3497
   97SAPS   O22 9633   3.667   2.437   6.836 -0.3417  0.1543 -0.3221
   97SAPS   C22 9634   3.879   2.319   6.844  0.0590  0.4506 -0.0677
   97SAPS   H2R 9635   3.888   2.209   6.830 -2.0458  0.0360  1.4792
   97SAPS   H2S 9636   3.964   2.368   6.793 -0.4809  1.5648  0.0800
   97SAPS    C3 9637   3.522   2.196   6.626  0.6048  0.6768  0.0477
   97SAPS    HX 9638   3.583   2.105   6.604 -0.1292  0.0963  0.3886
   97SAPS    HY 9639   3.432   2.184   6.563  2.2714 -2.2938 -1.8887
   97SAPS   O31 9640   3.490   2.194   6.768 -0.7645  0.7064  0.3259
   97SAPS   C31 9641   3.391   2.272   6.794  0.3255 -0.0289 -0.3128
   97SAPS   O32 9642   3.323   2.331   6.715  0.2839 -0.5515 -0.0316
   97SAPS   C32 9643   3.366   2.265   6.948  0.0929  0.2883  0.2736
   97SAPS   H2X 9644   3.377   2.157   6.971  2.2993  0.1966 -1.0486
   97SAPS   H2Y 9645   3.262   2.297   6.966  0.1310  0.5188  0.0891
   97SAPS   C23 9646   3.876   2.358   6.993  0.1686 -0.0222  0.3377
   97SAPS   H3R 9647   3.778   2.334   7.040  1.5115  0.4585  3.5057
   97SAPS   H3S 9648   3.891   2.468   7.004  1.1974 -0.2113  0.8270
   97SAPS   C24 9649   3.974   2.293   7.089  1.0954  0.1465 -0.0002
   97SAPS   H4R 9650   4.073   2.340   7.069  2.5260 -2.3528  0.9354
   97SAPS   H4S 9651   3.985   2.184   7.069  2.0860 -0.1732  2.0751
   97SAPS   C25 9652   3.946   2.303   7.237 -0.1511  0.1569 -0.0697
   97SAPS   H5R 9653   3.862   2.247   7.281 -2.2467  4.1025  1.1775
   97SAPS   C26 9654   4.030   2.364   7.322  0.1182 -0.1650  0.5106
   97SAPS   H6R 9655   3.998   2.378   7.427 -1.0293  2.4037 -0.1489
   97SAPS   C27 9656   4.166   2.430   7.289  0.9317 -0.5278  0.4980
   97SAPS   H7R 9657   4.207   2.421   7.186  0.7746  0.7901  0.3105
   97SAPS   H7S 9658   4.241   2.384   7.356  1.9578 -2.5832 -1.9889
   97SAPS   C28 9659   4.152   2.577   7.326  0.2090  0.2223  0.0272
   97SAPS   H8R 9660   4.081   2.628   7.259  0.2450  0.2797  0.0327
   97SAPS   C29 9661   4.204   2.652   7.421 -0.0729  0.1762  1.0229
   97SAPS   H9R 9662   4.163   2.751   7.443  1.0149  0.7080  0.6887
   97SAPS  C210 9663   4.314   2.599   7.516  0.8110 -0.5650  0.5155
   97SAPS  H10R 9664   4.394   2.555   7.452 -0.3867 -0.0853 -1.3647
   97SAPS  H10S 9665   4.278   2.520   7.586  0.3173 -0.2189  0.6499
   97SAPS  C211 9666   4.378   2.707   7.596 -0.3030  0.1025 -0.2013
   97SAPS  H11R 9667   4.430   2.786   7.539  2.5912 -3.0849 -2.2093
   97SAPS  C212 9668   4.378   2.715   7.733  0.1633 -0.3317 -0.1632
   97SAPS  H12R 9669   4.409   2.812   7.774 -0.5211  0.0817 -0.6340
   97SAPS  C213 9670   4.320   2.632   7.843  0.2096  0.5853 -0.2813
   97SAPS  H13R 9671   4.278   2.534   7.811  0.1872  0.6828 -0.5480
   97SAPS  H13S 9672   4.248   2.699   7.895 -0.1367 -0.7210  0.9511
   97SAPS  C214 9673   4.428   2.579   7.935  0.5042  0.1625 -0.0514
   97SAPS  H14R 9674   4.511   2.522   7.890  0.6008 -1.7275  2.3895
   97SAPS  C215 9675   4.432   2.579   8.071  0.4989  0.3471 -0.0286
   97SAPS  H15R 9676   4.516   2.531   8.125  1.0535 -0.0240 -1.1945
   97SAPS  C216 9677   4.320   2.639   8.157 -0.7468  0.1146  0.2993
   97SAPS  H16R 9678   4.219   2.644   8.111 -0.1464  0.7812 -0.9859
   97SAPS  H16S 9679   4.338   2.746   8.181 -2.0260  0.6468 -0.9967
   97SAPS  C217 9680   4.308   2.559   8.288  1.1833  0.1005  0.9783
   97SAPS  H17R 9681   4.301   2.449   8.273  0.6965  0.1849  0.5895
   97SAPS  H17S 9682   4.208   2.583   8.331  0.1578 -3.3663  0.7310
   97SAPS  C218 9683   4.410   2.576   8.401 -0.1167  0.1753 -0.7276
   97SAPS  H18R 9684   4.390   2.672   8.452 -1.4869 -0.1895 -0.5609
   97SAPS  H18S 9685   4.514   2.569   8.361  0.2930  4.0923 -0.4720
   97SAPS  C219 9686   4.410   2.486   8.519  1.0560 -0.5807 -0.5825
   97SAPS  H19R 9687   4.510   2.488   8.567  1.0674  0.9100 -0.6397
   97SAPS  H19S 9688   4.402   2.381   8.483  1.2737 -0.7732 -0.0734
   97SAPS  C220 9689   4.296   2.513   8.617  0.1207 -0.2154 -0.0032
   97SAPS  H20R 9690   4.210   2.549   8.558 -1.1126 -0.8294  1.3726
   97SAPS  H20S 9691   4.326   2.592   8.690  2.1084 -1.3667  0.4771
   97SAPS  H20T 9692   4.256   2.423   8.668 -1.5793 -0.0891 -1.0995
   97SAPS   C33 9693   3.448   2.354   7.044 -0.2910  0.6735 -0.3202
   97SAPS   H3X 9694   3.436   2.459   7.009  2.5188  1.2419  0.2902
   97SAPS   H3Y 9695   3.553   2.318   7.039 -0.0678  1.2888 -0.1323
   97SAPS   C34 9696   3.386   2.333   7.189  0.5192  0.4961 -0.4393
   97SAPS   H4X 9697   3.432   2.238   7.223  0.5174  0.3615 -0.8152
   97SAPS   H4Y 9698   3.277   2.316   7.178  0.4209  1.3000 -0.7854
   97SAPS   C35 9699   3.398   2.458   7.278 -0.0026  0.3501  0.7270
   97SAPS   H5X 9700   3.374   2.551   7.223 -1.1942 -0.8993 -0.9094
   97SAPS   H5Y 9701   3.506   2.468   7.300  0.1641  1.2208 -0.4927
   97SAPS   C36 9702   3.296   2.460   7.399  0.0735  0.1841 -0.0589
   97SAPS   H6X 9703   3.193   2.426   7.375 -0.6046  0.1615  2.6803
   97SAPS   H6Y 9704   3.274   2.568   7.416 -4.5810 -0.8511  1.0408
   97SAPS   C37 9705   3.351   2.395   7.527 -0.2012  0.5494  0.2335
   97SAPS   H7X 9706   3.443   2.454   7.547  0.3309 -0.3911  0.5913
   97SAPS   H7Y 9707   3.374   2.286   7.523  1.1855  0.8177  0.7173
   97SAPS   C38 9708   3.259   2.434   7.642 -1.1883  0.5244  0.3209
   97SAPS   H8X 9709   3.156   2.395   7.627 -1.1737 -0.2291  2.0022
   97SAPS   H8Y 9710   3.263   2.539   7.678 -0.3185  0.8182 -0.6035
   97SAPS   C39 9711   3.301   2.348   7.762 -0.8310 -0.6076  0.1401
   97SAPS   H9X 9712   3.408   2.370   7.785 -0.8514 -1.9042  1.6050
   97SAPS   H9Y 9713   3.307   2.242   7.730  0.1437 -0.3221 -0.6285
   97SAPS  C310 9714   3.219   2.363   7.893 -0.1653  0.3072  0.0873
   97SAPS  H10X 9715   3.238   2.278   7.962 -2.3399 -0.2364  0.0445
   97SAPS  H10Y 9716   3.113   2.344   7.868 -1.1059  0.2839  3.7240
   97SAPS  C311 9717   3.238   2.503   7.949 -0.2659 -0.7849 -0.1021
   97SAPS  H11X 9718   3.223   2.592   7.884 -1.4873 -0.7930  0.1476
   97SAPS  H11Y 9719   3.340   2.514   7.991 -1.4543  2.2203  2.1706
   97SAPS  C312 9720   3.157   2.517   8.077 -0.0690  0.2374  0.6802
   97SAPS  H12X 9721   3.178   2.427   8.137  1.4032 -1.2572 -1.9802
   97SAPS  H12Y 9722   3.050   2.516   8.048  0.3496 -0.9275 -0.9052
   97SAPS  C313 9723   3.168   2.652   8.152  0.2943 -0.3994 -0.0931
   97SAPS  H13X 9724   3.072   2.674   8.204  0.0750  0.1102 -0.7096
   97SAPS  H13Y 9725   3.192   2.736   8.083  0.4254  1.4012  2.0865
   97SAPS  C314 9726   3.274   2.647   8.260 -0.5683 -0.6837 -0.3104
   97SAPS  H14X 9727   3.372   2.605   8.228 -1.1470 -2.7573  0.5278
   97SAPS  H14Y 9728   3.236   2.573   8.334 -1.2202 -0.8015 -0.7547
   97SAPS  C315 9729   3.300   2.776   8.336  0.3117  0.5171  0.2867
   97SAPS  H15X 9730   3.211   2.806   8.397  0.5116  0.1896  0.7447
   97SAPS  H15Y 9731   3.311   2.854   8.259  1.8014 -0.2793 -0.3250
   97SAPS  C316 9732   3.417   2.748   8.426  0.3121  0.2715 -0.1059
   97SAPS  H16X 9733   3.439   2.847   8.471 -0.8306  2.2945 -3.7599
   97SAPS  H16Y 9734   3.502   2.699   8.373  0.2768  0.6668 -0.5417
   97SAPS  C317 9735   3.373   2.663   8.548  0.5739  0.0843 -0.0760
   97SAPS  H17X 9736   3.351   2.562   8.508  0.1930  0.2730 -0.3531
   97SAPS  H17Y 9737   3.275   2.701   8.585  0.6987  2.2268 -1.8090
   97SAPS  C318 9738   3.471   2.661   8.661  0.1065 -0.4101 -0.4328
   97SAPS  H18X 9739   3.491   2.766   8.689 -0.7745 -0.7269  1.4340
   97SAPS  H18Y 9740   3.567   2.616   8.629  0.0861 -1.0203  0.3382
   97SAPS  H18Z 9741   3.443   2.600   8.750  0.5379  1.3287  0.9129
   98SAPS     N 9742   1.552   2.704   5.680 -0.2682 -0.1038  0.1766
   98SAPS   HN1 9743   1.533   2.614   5.729  1.6814 -0.5673  0.1050
   98SAPS   HN2 9744   1.505   2.700   5.587 -0.5923 -0.7851  0.3642
   98SAPS   HN3 9745   1.654   2.713   5.664 -0.1629 -0.9128  0.3558
   98SAPS   C12 9746   1.497   2.799   5.782  0.1012  0.0788 -0.0812
   98SAPS  H12A 9747   1.528   2.899   5.753 -0.6681  0.6848  1.1851
   98SAPS   C13 9748   1.338   2.805   5.796 -0.4432  0.3684  0.1257
   98SAPS  O13A 9749   1.269   2.715   5.742  0.5645 -0.2345  0.7960
   98SAPS  O13B 9750   1.288   2.877   5.885 -0.1476 -0.0266 -0.1067
   98SAPS   C11 9751   1.552   2.775   5.925 -0.0548  0.1623  0.3898
   98SAPS  H11A 9752   1.491   2.704   5.985  1.4351 -1.9605 -0.5500
   98SAPS  H11B 9753   1.540   2.878   5.966  0.3567  1.2933 -2.2468
   98SAPS     P 9754   1.759   2.677   6.063 -0.3087  0.4056 -0.0782
   98SAPS   O13 9755   1.693   2.550   6.081 -0.0771 -1.2259  0.5660
   98SAPS   O14 9756   1.904   2.674   6.043  0.5372 -0.2343 -1.1992
   98SAPS   O12 9757   1.692   2.743   5.932 -0.4346 -0.0194  0.6076
   98SAPS   O11 9758   1.720   2.779   6.175  0.0885  0.1310  0.0384
   98SAPS    C1 9759   1.795   2.887   6.229 -0.2007 -0.3196  0.5303
   98SAPS    HA 9760   1.856   2.938   6.152 -2.8680  1.5412 -0.4201
   98SAPS    HB 9761   1.743   2.955   6.299  0.8871  1.6154 -0.4984
   98SAPS    C2 9762   1.908   2.838   6.330 -0.4982  0.0865 -0.5238
   98SAPS    HS 9763   1.991   2.793   6.272  0.3752  0.7699  0.1732
   98SAPS   O21 9764   1.841   2.741   6.414  0.1295  0.0425 -0.0111
   98SAPS   C21 9765   1.933   2.651   6.472 -0.5894  0.0722 -0.1238
   98SAPS   O22 9766   2.047   2.653   6.443  0.5700  0.2764  0.2692
   98SAPS   C22 9767   1.860   2.554   6.564 -1.0419  0.3574 -0.3321
   98SAPS   H2R 9768   1.753   2.549   6.535 -0.6162  0.5545 -1.9974
   98SAPS   H2S 9769   1.911   2.456   6.546 -1.5754 -0.2562  1.4032
   98SAPS    C3 9770   1.959   2.969   6.414  0.4216 -0.6295  0.5408
   98SAPS    HX 9771   1.868   3.013   6.459 -0.8085 -0.9719 -1.5267
   98SAPS    HY 9772   2.002   3.039   6.338 -1.3653  0.6234  0.6409
   98SAPS   O31 9773   2.049   2.937   6.523  0.0383  0.3239  0.6325
   98SAPS   C31 9774   2.176   2.937   6.488 -0.2992  0.6261 -0.1830
   98SAPS   O32 9775   2.220   2.932   6.375  0.3554  0.4883  0.1259
   98SAPS   C32 9776   2.261   2.940   6.617 -0.1254  0.4205  0.2298
   98SAPS   H2X 9777   2.249   3.047   6.647 -4.0190 -0.4260  2.0454
   98SAPS   H2Y 9778   2.366   2.937   6.581  0.0294 -1.9889  0.8045
   98SAPS   C23 9779   1.878   2.588   6.711  0.3777 -0.3467 -0.3097
   98SAPS   H3R 9780   1.981   2.627   6.722  1.1534 -1.8622 -1.8720
   98SAPS   H3S 9781   1.860   2.496   6.771  1.1897 -0.1077  0.3116
   98SAPS   C24 9782   1.782   2.699   6.759  1.4953 -0.3202 -0.1243
   98SAPS   H4R 9783   1.684   2.664   6.721  2.1702 -2.0188 -0.3662
   98SAPS   H4S 9784   1.803   2.797   6.711 -1.0444  1.0854  1.5828
   98SAPS   C25 9785   1.786   2.721   6.904 -0.1901 -0.1062 -0.0047
   98SAPS   H5R 9786   1.851   2.802   6.940 -1.2032  1.0164 -0.6709
   98SAPS   C26 9787   1.717   2.654   6.999 -0.7864  0.0585 -0.6619
   98SAPS   H6R 9788   1.735   2.684   7.103  1.2796  2.6936 -1.7006
   98SAPS   C27 9789   1.616   2.546   6.969 -0.5209 -0.1193 -0.4596
   98SAPS   H7R 9790   1.613   2.476   7.055  2.7076  2.0225  1.4857
   98SAPS   H7S 9791   1.656   2.480   6.889 -0.6523  0.0988 -0.7045
   98SAPS   C28 9792   1.478   2.595   6.932 -0.5257 -0.1654  0.6441
   98SAPS   H8R 9793   1.458   2.700   6.958  2.0103  0.3340  0.7582
   98SAPS   C29 9794   1.380   2.523   6.885  0.4809 -0.2837 -0.7128
   98SAPS   H9R 9795   1.288   2.580   6.868  0.5037 -0.6143 -2.0878
   98SAPS  C210 9796   1.371   2.373   6.860 -1.1753 -0.3621  0.2909
   98SAPS  H10R 9797   1.317   2.330   6.947 -1.3047 -0.5616  0.1139
   98SAPS  H10S 9798   1.472   2.326   6.857 -0.6970  0.7037 -1.2352
   98SAPS  C211 9799   1.315   2.334   6.729 -0.3144  0.5364 -0.2980
   98SAPS  H11R 9800   1.383   2.326   6.643 -0.6145  0.3392 -0.5161
   98SAPS  C212 9801   1.189   2.303   6.703  0.1543 -0.2525 -0.5284
   98SAPS  H12R 9802   1.165   2.271   6.600 -3.5243  1.6941 -0.3635
   98SAPS  C213 9803   1.067   2.298   6.796  0.8976 -0.8176  0.2546
   98SAPS  H13R 9804   0.998   2.380   6.766 -1.3255 -3.9687 -3.7057
   98SAPS  H13S 9805   1.092   2.323   6.902 -0.6114  2.3503 -0.0770
   98SAPS  C214 9806   1.006   2.167   6.782  0.3358  0.4181  0.6726
   98SAPS  H14R 9807   0.981   2.136   6.680 -0.7897  0.8330  0.8164
   98SAPS  C215 9808   0.974   2.089   6.886  0.2008 -0.3617  0.3709
   98SAPS  H15R 9809   0.942   1.988   6.856  0.6608 -0.6197  0.7433
   98SAPS  C216 9810   0.987   2.109   7.037 -0.8712 -0.0506  0.6398
   98SAPS  H16R 9811   0.903   2.059   7.089  0.6320 -2.8637  0.4987
   98SAPS  H16S 9812   0.980   2.220   7.042  2.6776  0.2970 -0.7353
   98SAPS  C217 9813   1.132   2.081   7.098 -0.7351  0.9601  0.5368
   98SAPS  H17R 9814   1.196   2.157   7.049 -2.8945  1.2006 -2.0799
   98SAPS  H17S 9815   1.151   1.975   7.070 -1.2172  1.1873 -0.6971
   98SAPS  C218 9816   1.133   2.089   7.248  0.5635 -0.2467 -0.8538
   98SAPS  H18R 9817   1.239   2.075   7.276  0.5021  0.6600 -0.1250
   98SAPS  H18S 9818   1.071   2.006   7.289 -0.5550 -0.0504 -2.0921
   98SAPS  C219 9819   1.088   2.217   7.321  0.6370  1.0891  1.1051
   98SAPS  H19R 9820   0.979   2.230   7.305  0.5949  0.0215  0.4534
   98SAPS  H19S 9821   1.155   2.299   7.288 -0.0857  1.0556 -0.4792
   98SAPS  C220 9822   1.097   2.199   7.470  0.3977 -0.0092 -0.2690
   98SAPS  H20R 9823   1.037   2.112   7.506  0.1301  1.1444  2.1831
   98SAPS  H20S 9824   1.054   2.287   7.522  1.9717 -0.1280  1.2673
   98SAPS  H20T 9825   1.205   2.187   7.492  0.6712  2.2556 -0.3163
   98SAPS   C33 9826   2.246   2.828   6.723 -0.2487 -0.5225 -0.3233
   98SAPS   H3X 9827   2.348   2.825   6.768 -0.1172 -1.8452 -0.6902
   98SAPS   H3Y 9828   2.231   2.729   6.675  0.0923  0.1180 -1.7816
   98SAPS   C34 9829   2.138   2.840   6.834  0.3900  0.3122  0.6548
   98SAPS   H4X 9830   2.150   2.753   6.902 -0.2243 -0.4344 -0.1769
   98SAPS   H4Y 9831   2.034   2.847   6.795  1.1552 -0.0427 -1.4989
   98SAPS   C35 9832   2.157   2.963   6.933  0.8011  0.2463 -0.0193
   98SAPS   H5X 9833   2.200   3.041   6.866  0.6891  1.2128  1.0134
   98SAPS   H5Y 9834   2.230   2.947   7.015  0.1588 -0.6842  0.3833
   98SAPS   C36 9835   2.016   3.012   6.995 -0.1638  0.1653  0.6874
   98SAPS   H6X 9836   1.996   2.948   7.084 -0.7668  0.6681  0.9143
   98SAPS   H6Y 9837   1.932   2.989   6.926 -0.6563  1.4694  0.8352
   98SAPS   C37 9838   2.022   3.157   7.051 -0.4687 -0.6692  0.1849
   98SAPS   H7X 9839   2.029   3.225   6.963  2.1679  0.7946  1.4570
   98SAPS   H7Y 9840   2.104   3.170   7.125  0.3105  0.3309 -0.8380
   98SAPS   C38 9841   1.895   3.179   7.127  0.8086 -0.2317  0.0487
   98SAPS   H8X 9842   1.802   3.161   7.070  1.0550  2.8776 -1.4608
   98SAPS   H8Y 9843   1.894   3.290   7.141 -0.6908 -0.2565  0.2201
   98SAPS   C39 9844   1.883   3.099   7.259  0.7321  0.3703  0.0219
   98SAPS   H9X 9845   1.879   2.992   7.228  1.8621  0.2730  0.1887
   98SAPS   H9Y 9846   1.785   3.123   7.305  0.7830  0.0356  0.3024
   98SAPS  C310 9847   1.982   3.125   7.367 -0.4877  0.3568 -0.6881
   98SAPS  H10X 9848   2.007   3.233   7.364 -0.2178  0.3156  0.0827
   98SAPS  H10Y 9849   2.071   3.059   7.363  0.6926  1.9001 -0.3125
   98SAPS  C311 9850   1.921   3.116   7.513 -0.3807  0.2266 -1.1420
   98SAPS  H11X 9851   1.913   3.008   7.540 -2.3712  0.3255 -1.2946
   98SAPS  H11Y 9852   1.813   3.142   7.518 -1.1841 -3.0241  0.1793
   98SAPS  C312 9853   2.003   3.197   7.617  0.1741 -0.4858 -0.3765
   98SAPS  H12X 9854   1.957   3.296   7.634 -0.4364 -0.7177 -0.6546
   98SAPS  H12Y 9855   2.103   3.216   7.572  0.6147 -1.5858  0.1028
   98SAPS  C313 9856   2.015   3.132   7.754  0.4584  0.3178 -0.7673
   98SAPS  H13X 9857   2.071   3.196   7.826  0.1117  1.5264 -1.5525
   98SAPS  H13Y 9858   2.073   3.039   7.734  1.1716 -0.0390  2.6668
   98SAPS  C314 9859   1.874   3.105   7.823 -0.0993 -0.7444 -0.3260
   98SAPS  H14X 9860   1.799   3.097   7.741  0.0717  2.6281 -0.8764
   98SAPS  H14Y 9861   1.847   3.195   7.882  1.5997 -1.5869  1.8072
   98SAPS  C315 9862   1.881   2.982   7.916  0.8061  0.1001  0.1678
   98SAPS  H15X 9863   1.796   2.973   7.986 -0.2126 -1.1027 -1.1970
   98SAPS  H15Y 9864   1.969   2.994   7.983  1.3730 -0.7794 -0.4157
   98SAPS  C316 9865   1.893   2.848   7.835 -0.7694 -0.7663  0.2914
   98SAPS  H16X 9866   1.939   2.768   7.897 -1.0327 -0.3572  1.0190
   98SAPS  H16Y 9867   1.956   2.868   7.747  0.9803 -0.4422  1.5975
   98SAPS  C317 9868   1.755   2.808   7.792  0.4996 -0.0230 -0.1028
   98SAPS  H17X 9869   1.716   2.890   7.729  0.6289 -0.5573 -0.8905
   98SAPS  H17Y 9870   1.684   2.798   7.876  0.2554 -1.4798 -0.4617
   98SAPS  C318 9871   1.753   2.687   7.699  0.4423  0.3672  0.4319
   98SAPS  H18X 9872   1.651   2.647   7.679  0.6343  0.4616 -0.8152
   98SAPS  H18Y 9873   1.816   2.603   7.734 -1.5306 -0.8702  1.0951
   98SAPS  H18Z 9874   1.782   2.719   7.596  0.0189 -0.3935  0.0634
   99SAPS     N 9875   0.757   6.705   6.088 -0.2766 -0.5818  0.1552
   99SAPS   HN1 9876   0.825   6.628   6.077  2.7412  1.7038  2.2410
   99SAPS   HN2 9877   0.701   6.681   6.172 -0.1587  0.8019  0.6422
   99SAPS   HN3 9878   0.698   6.720   6.003  1.3306 -1.8601 -1.2210
   99SAPS   C12 9879   0.831   6.839   6.103 -0.0984 -0.8775 -0.0516
   99SAPS  H12A 9880   0.875   6.856   6.200 -1.6051  0.2018  0.4591
   99SAPS   C13 9881   0.952   6.854   6.003 -0.1672  0.1937 -0.0391
   99SAPS  O13A 9882   0.951   6.787   5.898  0.0390 -0.3229  0.4464
   99SAPS  O13B 9883   1.014   6.961   6.021 -0.1895 -0.4891 -0.1673
   99SAPS   C11 9884   0.731   6.956   6.077 -0.9488  0.2899  0.0119
   99SAPS  H11A 9885   0.689   6.947   5.975 -1.3748 -0.4019  0.2460
   99SAPS  H11B 9886   0.789   7.051   6.087 -2.3643  1.3681 -1.7832
   99SAPS     P 9887   0.563   7.091   6.230  0.0232 -0.2575 -0.2006
   99SAPS   O13 9888   0.606   7.206   6.149  0.0550 -0.1589  0.3696
   99SAPS   O14 9889   0.414   7.067   6.231 -0.6341  0.2972 -0.0806
   99SAPS   O12 9890   0.627   6.954   6.169  0.1132 -0.0481  0.2159
   99SAPS   O11 9891   0.635   7.100   6.374  0.7915 -0.1206  0.1121
   99SAPS    C1 9892   0.670   6.977   6.438 -0.7377 -0.6624  0.4745
   99SAPS    HA 9893   0.601   6.891   6.421 -2.1591  0.2618  1.4221
   99SAPS    HB 9894   0.763   6.945   6.387 -1.5274  1.1860 -2.2344
   99SAPS    C2 9895   0.681   6.978   6.598 -0.4409 -0.4947  0.0975
   99SAPS    HS 9896   0.745   6.894   6.634  1.5489  0.7008 -0.5736
   99SAPS   O21 9897   0.548   6.980   6.645  0.8102  1.1270 -0.1647
   99SAPS   C21 9898   0.508   6.867   6.710 -0.6845  0.1308 -0.6956
   99SAPS   O22 9899   0.579   6.765   6.706 -0.2850 -0.3056 -0.8452
   99SAPS   C22 9900   0.392   6.894   6.803 -1.0460  0.0215 -0.3674
   99SAPS   H2R 9901   0.336   6.982   6.767 -1.8715  0.3180  1.5504
   99SAPS   H2S 9902   0.326   6.805   6.803 -0.3891 -0.4670 -0.3762
   99SAPS    C3 9903   0.748   7.107   6.646 -0.1336  0.3081 -0.1971
   99SAPS    HX 9904   0.677   7.188   6.620 -0.9472 -0.3518 -0.0300
   99SAPS    HY 9905   0.846   7.115   6.594 -0.6645  2.2997 -0.9609
   99SAPS   O31 9906   0.768   7.103   6.794 -0.0590 -0.0970 -0.4341
   99SAPS   C31 9907   0.886   7.064   6.839 -0.1789  0.4627  0.7397
   99SAPS   O32 9908   0.990   7.058   6.774  0.1588 -0.0833  0.1945
   99SAPS   C32 9909   0.867   7.035   6.990 -0.0833  0.0398  0.1533
   99SAPS   H2X 9910   0.795   6.952   7.003  0.9010 -0.8044  0.2702
   99SAPS   H2Y 9911   0.814   7.126   7.024 -1.8929 -0.2730 -1.7111
   99SAPS   C23 9912   0.432   6.913   6.956 -0.0228  0.0560 -0.7072
   99SAPS   H3R 9913   0.506   6.836   6.987 -0.1745  0.1796 -0.0418
   99SAPS   H3S 9914   0.346   6.897   7.024  0.7063  0.3193  0.2839
   99SAPS   C24 9915   0.499   7.054   6.984  0.2568  0.2331 -0.0541
   99SAPS   H4R 9916   0.422   7.130   6.956 -1.6013 -1.0804  1.3497
   99SAPS   H4S 9917   0.582   7.059   6.910 -1.0767 -0.8108 -1.6709
   99SAPS   C25 9918   0.553   7.081   7.120 -0.1255 -0.8767  0.9109
   99SAPS   H5R 9919   0.659   7.056   7.132  0.2165  0.2179  0.2244
   99SAPS   C26 9920   0.489   7.132   7.229 -0.0199 -0.6168  0.5687
   99SAPS   H6R 9921   0.547   7.132   7.322  0.4143  1.0629  0.3207
   99SAPS   C27 9922   0.350   7.181   7.244 -0.2924 -0.4778  0.0852
   99SAPS   H7R 9923   0.295   7.108   7.308 -1.7657 -0.6129 -1.3025
   99SAPS   H7S 9924   0.292   7.180   7.149 -1.6259 -0.5085  0.8730
   99SAPS   C28 9925   0.352   7.317   7.308 -0.6678 -0.0933  0.4374
   99SAPS   H8R 9926   0.417   7.387   7.255 -1.6990 -0.0889 -0.8455
   99SAPS   C29 9927   0.283   7.352   7.416  0.5692 -0.4858  0.5925
   99SAPS   H9R 9928   0.298   7.456   7.448 -0.2686  0.4815 -2.0012
   99SAPS  C210 9929   0.184   7.280   7.501 -0.2329 -0.3606 -0.5530
   99SAPS  H10R 9930   0.155   7.177   7.472 -2.2305  0.4089 -1.3435
   99SAPS  H10S 9931   0.099   7.350   7.509 -0.6926 -0.8202 -1.3919
   99SAPS  C211 9932   0.250   7.274   7.638  0.0904  0.2440  0.3392
   99SAPS  H11R 9933   0.329   7.200   7.660  0.8323  0.7030 -0.7339
   99SAPS  C212 9934   0.219   7.354   7.740  0.2998 -0.3578 -0.1062
   99SAPS  H12R 9935   0.263   7.334   7.839 -0.1788 -0.8694  0.0083
   99SAPS  C213 9936   0.117   7.467   7.734 -0.2357  0.3311 -0.2592
   99SAPS  H13R 9937   0.065   7.481   7.637  0.3672  2.1932 -0.3370
   99SAPS  H13S 9938   0.185   7.555   7.742  1.2067 -0.5852 -1.9519
   99SAPS  C214 9939   0.005   7.481   7.833 -0.3517  0.6332  0.3680
   99SAPS  H14R 9940  -0.098   7.483   7.796 -0.7399 -1.7075  1.2458
   99SAPS  C215 9941   0.021   7.487   7.969 -0.8013 -0.5033  0.2118
   99SAPS  H15R 9942  -0.067   7.472   8.034  0.0498 -2.1731  1.0076
   99SAPS  C216 9943   0.154   7.477   8.046 -0.1865 -0.6229  0.0285
   99SAPS  H16R 9944   0.152   7.565   8.114 -1.1363 -0.1204 -0.6460
   99SAPS  H16S 9945   0.246   7.488   7.986 -0.5754  2.1934 -0.1041
   99SAPS  C217 9946   0.150   7.351   8.137 -0.1627  0.2247  0.1508
   99SAPS  H17R 9947   0.150   7.271   8.061  3.3220  2.9315 -2.9301
   99SAPS  H17S 9948   0.060   7.349   8.202 -1.0447  0.2274 -1.0569
   99SAPS  C218 9949   0.269   7.344   8.231 -0.1679  0.5042 -0.6562
   99SAPS  H18R 9950   0.358   7.396   8.189 -0.5151  1.6926  0.0610
   99SAPS  H18S 9951   0.286   7.236   8.248 -1.2595  0.2986 -0.8545
   99SAPS  C219 9952   0.246   7.397   8.372 -0.2211 -0.7311  0.1147
   99SAPS  H19R 9953   0.202   7.331   8.450 -2.0725 -0.3726 -0.5856
   99SAPS  H19S 9954   0.181   7.485   8.351 -0.7394 -0.9520  0.7886
   99SAPS  C220 9955   0.380   7.446   8.431  0.5096 -0.0780  0.4121
   99SAPS  H20R 9956   0.365   7.477   8.536 -1.9476 -0.1054  0.0994
   99SAPS  H20S 9957   0.416   7.535   8.374  0.1978  1.6072  2.7950
   99SAPS  H20T 9958   0.451   7.360   8.428  1.9996  1.1113  0.7545
   99SAPS   C33 9959   0.994   6.999   7.065 -0.4381  0.3160 -0.4711
   99SAPS   H3X 9960   1.059   6.930   7.006 -0.3162 -0.6464  0.7638
   99SAPS   H3Y 9961   0.969   6.946   7.160  1.2895 -1.0147 -0.7123
   99SAPS   C34 9962   1.073   7.120   7.106  0.8299 -0.2174 -0.1200
   99SAPS   H4X 9963   1.015   7.179   7.181  1.3544  0.6482 -0.3864
   99SAPS   H4Y 9964   1.098   7.182   7.018 -0.2013  2.6797  1.5516
   99SAPS   C35 9965   1.200   7.072   7.183 -0.6337  0.3051 -1.0987
   99SAPS   H5X 9966   1.248   6.995   7.119 -0.1686 -0.3862  0.0758
   99SAPS   H5Y 9967   1.160   7.018   7.271  0.0785 -0.8686 -1.4915
   99SAPS   C36 9968   1.297   7.181   7.219 -0.3994 -0.3583 -0.4383
   99SAPS   H6X 9969   1.238   7.266   7.259 -0.1733  0.1844 -1.2356
   99SAPS   H6Y 9970   1.352   7.207   7.125 -2.4731 -0.1649 -1.6225
   99SAPS   C37 9971   1.422   7.131   7.304  0.0619  0.0204 -0.3158
   99SAPS   H7X 9972   1.489   7.217   7.325  2.7686 -2.5165  1.8007
   99SAPS   H7Y 9973   1.479   7.068   7.231 -1.0029 -2.3617  0.8541
   99SAPS   C38 9974   1.386   7.070   7.442  0.5202 -0.8318  0.1838
   99SAPS   H8X 9975   1.322   6.980   7.430 -2.2225  0.9477  0.8658
   99SAPS   H8Y 9976   1.326   7.154   7.483 -0.5971 -0.7208 -1.6285
   99SAPS   C39 9977   1.510   7.049   7.534 -0.4031 -0.4562 -0.9219
   99SAPS   H9X 9978   1.565   7.145   7.547 -0.8300 -0.2156 -0.8808
   99SAPS   H9Y 9979   1.578   6.970   7.496 -0.6805 -1.5022  0.7094
   99SAPS  C310 9980   1.458   7.003   7.673 -0.2263  0.0418 -0.1799
   99SAPS  H10X 9981   1.403   6.909   7.651 -2.0562  0.8842  0.6966
   99SAPS  H10Y 9982   1.383   7.068   7.722 -1.8097 -2.2165  0.5036
   99SAPS  C311 9983   1.574   6.988   7.776  0.5447  0.1728  0.8296
   99SAPS  H11X 9984   1.631   7.084   7.776 -0.2337  0.7452 -3.2294
   99SAPS  H11Y 9985   1.635   6.902   7.742 -0.4452  0.1345 -0.8814
   99SAPS  C312 9986   1.519   6.979   7.912  0.4563 -0.1196 -0.5818
   99SAPS  H12X 9987   1.442   6.900   7.929  0.3564 -0.0156 -0.5569
   99SAPS  H12Y 9988   1.472   7.074   7.945  0.8796 -0.6686  1.6700
   99SAPS  C313 9989   1.634   6.961   8.015  0.4360 -0.0261 -0.3557
   99SAPS  H13X 9990   1.688   7.058   8.009  0.4072  0.0669  0.8371
   99SAPS  H13Y 9991   1.695   6.875   7.979  0.4594  0.0755 -0.5596
   99SAPS  C314 9992   1.582   6.945   8.164  0.2154 -0.2942 -0.0584
   99SAPS  H14X 9993   1.641   6.871   8.221  0.1778 -1.2129 -1.1936
   99SAPS  H14Y 9994   1.480   6.903   8.171 -0.0620  0.6922  2.2841
   99SAPS  C315 9995   1.598   7.076   8.241 -0.0409  0.0650  0.2437
   99SAPS  H15X 9996   1.522   7.146   8.199 -0.3758 -0.1986  0.4102
   99SAPS  H15Y 9997   1.692   7.129   8.215 -0.1256  0.6070  1.0215
   99SAPS  C316 9998   1.607   7.061   8.393 -1.0218  0.4867  0.2106
   99SAPS  H16X 9999   1.686   6.984   8.404 -1.4926 -0.4160 -2.4372
   99SAPS  H16Y10000   1.508   7.030   8.432 -1.9205  1.2146 -1.4622
   99SAPS  C31710001   1.653   7.188   8.466  0.3461  0.9263  0.1386
   99SAPS  H17X10002   1.734   7.228   8.401 -1.5652  2.4910 -1.3536
   99SAPS  H17Y10003   1.686   7.158   8.567  1.0415 -2.5374 -1.0544
   99SAPS  C31810004   1.540   7.292   8.471  0.2431  0.1617  0.2018
   99SAPS  H18X10005   1.511   7.321   8.368  0.1893 -0.3975  0.0543
   99SAPS  H18Y10006   1.561   7.382   8.533  1.2983 -0.0571  0.1737
   99SAPS  H18Z10007   1.460   7.243   8.531  0.4487  1.9285  1.9682
  100SAPS     N10008   3.995   2.191   6.374 -0.3320 -0.1712  0.0840
  100SAPS   HN110009   4.099   2.191   6.379 -0.2015 -0.0704 -2.1690
  100SAPS   HN210010   3.965   2.289   6.392  0.2427  0.0436 -0.1305
  100SAPS   HN310011   3.954   2.121   6.439  0.8910 -0.0728  0.9900
  100SAPS   C1210012   3.970   2.164   6.229  0.4575 -1.2383 -0.0698
  100SAPS  H12A10013   3.864   2.160   6.206  0.6652  1.3002 -1.7382
  100SAPS   C1310014   4.020   2.280   6.135  0.0478 -0.2017 -0.0180
  100SAPS  O13A10015   4.096   2.372   6.183  0.3446 -0.4211  0.6292
  100SAPS  O13B10016   3.999   2.269   6.011 -0.2998 -0.3771 -0.1015
  100SAPS   C1110017   4.028   2.028   6.193 -0.2877  0.5775  0.0540
  100SAPS  H11A10018   4.135   2.027   6.223 -0.4764 -1.1519  0.7489
  100SAPS  H11B10019   4.024   2.025   6.082  0.0183  0.8534  0.0361
  100SAPS     P10020   3.972   1.778   6.205 -0.5821 -0.0238  0.1428
  100SAPS   O1310021   3.924   1.771   6.064  0.0496  0.2457  0.6008
  100SAPS   O1410022   4.114   1.733   6.219  0.2606 -0.6160  0.1864
  100SAPS   O1210023   3.958   1.924   6.265  0.1812 -0.2468  0.3909
  100SAPS   O1110024   3.885   1.685   6.295  0.3084 -0.2588  0.0290
  100SAPS    C110025   3.932   1.657   6.431 -0.0490 -0.4358  0.2599
  100SAPS    HA10026   4.013   1.581   6.420  0.9285  0.9225 -2.3139
  100SAPS    HB10027   3.985   1.744   6.475 -0.9287  0.2953 -0.1245
  100SAPS    C210028   3.827   1.622   6.540  0.4207 -0.0285  0.3129
  100SAPS    HS10029   3.788   1.525   6.505  0.5990 -0.8739  2.4004
  100SAPS   O2110030   3.724   1.721   6.534  0.4358 -0.6091  0.6187
  100SAPS   C2110031   3.615   1.682   6.598 -0.0730  0.9612  0.6991
  100SAPS   O2210032   3.582   1.566   6.619 -0.3906 -0.1664 -0.5048
  100SAPS   C2210033   3.537   1.810   6.630 -0.2202 -0.1728 -0.0006
  100SAPS   H2R10034   3.598   1.901   6.613  0.3619 -0.8734 -1.7871
  100SAPS   H2S10035   3.452   1.811   6.558 -0.2553 -0.5237  0.0375
  100SAPS    C310036   3.892   1.605   6.679  0.4898 -0.0863 -0.3257
  100SAPS    HX10037   3.965   1.523   6.664 -1.0999 -1.3756 -1.2594
  100SAPS    HY10038   3.814   1.574   6.752 -0.8553  1.4989 -1.0510
  100SAPS   O3110039   3.944   1.731   6.721 -0.0226 -0.0708 -0.0883
  100SAPS   C3110040   4.050   1.719   6.798  0.5157 -0.2213  0.1159
  100SAPS   O3210041   4.092   1.614   6.845  0.2590  0.6336  0.2908
  100SAPS   C3210042   4.100   1.862   6.824 -0.0364 -0.3772 -0.0352
  100SAPS   H2X10043   4.010   1.926   6.827  0.7034  0.7403 -1.2096
  100SAPS   H2Y10044   4.144   1.904   6.731 -1.7414 -0.0701 -0.7135
  100SAPS   C2310045   3.479   1.808   6.767 -0.3600  0.3066 -0.0164
  100SAPS   H3R10046   3.422   1.713   6.772  0.1707  0.0532  1.4397
  100SAPS   H3S10047   3.404   1.884   6.799  1.3391  1.2683  1.7443
  100SAPS   C2410048   3.587   1.804   6.884 -0.0994  0.0745  0.0949
  100SAPS   H4R10049   3.669   1.738   6.849 -0.8620  0.2686 -2.1133
  100SAPS   H4S10050   3.545   1.766   6.980 -0.9656 -0.0656 -0.3373
  100SAPS   C2510051   3.647   1.939   6.900  0.5019 -0.1168  0.4014
  100SAPS   H5R10052   3.695   1.983   6.811  0.7727  1.4606  1.3199
  100SAPS   C2610053   3.658   1.998   7.023 -0.0134 -0.1864  0.0593
  100SAPS   H6R10054   3.695   2.102   7.022  1.1086 -0.5758  1.1552
  100SAPS   C2710055   3.617   1.960   7.166  0.0111 -0.0421 -0.2754
  100SAPS   H7R10056   3.574   1.858   7.168 -0.5457  0.1964 -0.0048
  100SAPS   H7S10057   3.540   2.034   7.196 -1.3747 -1.4871 -0.2224
  100SAPS   C2810058   3.733   1.961   7.262 -0.0289 -0.5829  0.0033
  100SAPS   H8R10059   3.825   1.910   7.230  0.5914 -0.6399  1.8342
  100SAPS   C2910060   3.737   2.005   7.388  0.3838 -0.3177 -0.0700
  100SAPS   H9R10061   3.830   1.988   7.444 -0.1235  0.8124  1.1477
  100SAPS  C21010062   3.618   2.063   7.467 -0.2783  0.3003 -0.4242
  100SAPS  H10R10063   3.581   1.986   7.537  2.7335 -0.7343  0.1211
  100SAPS  H10S10064   3.532   2.085   7.400 -1.8215  1.4157  1.8727
  100SAPS  C21110065   3.647   2.191   7.539  0.2796  0.8354 -0.0036
  100SAPS  H11R10066   3.662   2.281   7.478 -0.3071 -0.2502 -1.7682
  100SAPS  C21210067   3.666   2.200   7.674 -0.5986  0.1266  0.6704
  100SAPS  H12R10068   3.693   2.297   7.719  1.7673 -0.6065  0.8994
  100SAPS  C21310069   3.654   2.083   7.765 -0.0947 -0.3774  0.8269
  100SAPS  H13R10070   3.714   2.102   7.856  1.0437 -1.2780  0.2748
  100SAPS  H13S10071   3.707   2.000   7.714  0.8442 -0.0895  1.3214
  100SAPS  C21410072   3.512   2.030   7.799  0.3543 -0.0373 -0.2291
  100SAPS  H14R10073   3.468   1.971   7.718 -1.5790  0.0607  0.7229
  100SAPS  C21510074   3.452   2.038   7.922  0.0655 -0.2401 -0.4837
  100SAPS  H15R10075   3.355   1.990   7.939 -0.6799  1.4118  0.0693
  100SAPS  C21610076   3.520   2.109   8.038 -0.0683  1.0038 -0.2624
  100SAPS  H16R10077   3.554   2.212   8.016  2.0959  0.7718  1.6832
  100SAPS  H16S10078   3.607   2.042   8.058 -0.7598  0.0616 -0.3823
  100SAPS  C21710079   3.427   2.106   8.164 -0.5471 -0.4521 -0.1159
  100SAPS  H17R10080   3.404   2.001   8.195  0.6407 -1.1342 -1.5255
  100SAPS  H17S10081   3.324   2.145   8.147 -0.0766  0.8700  0.0523
  100SAPS  C21810082   3.507   2.177   8.285  0.2759  0.5265  1.0055
  100SAPS  H18R10083   3.523   2.279   8.244 -3.3217  0.7501 -0.0150
  100SAPS  H18S10084   3.604   2.126   8.303  0.2184  0.3591  0.8336
  100SAPS  C21910085   3.413   2.197   8.402  0.6122  0.2830 -1.3942
  100SAPS  H19R10086   3.345   2.283   8.382 -1.4258 -0.7606  0.7099
  100SAPS  H19S10087   3.473   2.228   8.490 -0.0931 -0.1928 -0.7374
  100SAPS  C22010088   3.317   2.087   8.436  0.9647 -0.1894  0.0009
  100SAPS  H20R10089   3.249   2.068   8.350  1.2834 -0.4655 -0.1912
  100SAPS  H20S10090   3.265   2.102   8.533  1.2706 -1.9471  0.4580
  100SAPS  H20T10091   3.374   1.993   8.454  2.9003  0.9641  0.0902
  100SAPS   C3310092   4.193   1.885   6.944 -0.3478  0.0607 -0.1521
  100SAPS   H3X10093   4.249   1.977   6.914 -0.4994 -0.4957 -2.2172
  100SAPS   H3Y10094   4.267   1.802   6.942 -0.1545  0.2228  0.1371
  100SAPS   C3410095   4.120   1.912   7.075  0.3736  0.2557  0.7330
  100SAPS   H4X10096   4.066   1.819   7.102 -0.2842  0.9568  1.8716
  100SAPS   H4Y10097   4.025   1.970   7.066 -0.1739 -0.3907  2.1410
  100SAPS   C3510098   4.200   1.967   7.188 -0.4958 -0.0433  0.4454
  100SAPS   H5X10099   4.246   2.063   7.158 -1.2180 -0.0070 -0.5723
  100SAPS   H5Y10100   4.284   1.894   7.194  1.4120  1.9536 -1.2912
  100SAPS   C3610101   4.126   1.983   7.317  0.6258 -0.1694 -0.7293
  100SAPS   H6X10102   4.061   1.895   7.333  0.8717 -0.6173 -2.0961
  100SAPS   H6Y10103   4.055   2.068   7.305 -0.6111 -0.9196  1.0434
  100SAPS   C3710104   4.220   2.006   7.435 -0.4959  0.1644 -0.1248
  100SAPS   H7X10105   4.270   2.105   7.423 -1.2123  0.4849 -0.5049
  100SAPS   H7Y10106   4.301   1.931   7.439 -1.7684 -1.2970 -1.0859
  100SAPS   C3810107   4.152   2.012   7.573 -0.6341  0.0304  0.0705
  100SAPS   H8X10108   4.083   2.099   7.579 -0.1964  0.3131  1.1199
  100SAPS   H8Y10109   4.215   2.035   7.662 -0.3405 -0.0762 -0.1071
  100SAPS   C3910110   4.062   1.891   7.613 -0.1118 -0.0286  0.5175
  100SAPS   H9X10111   4.121   1.797   7.617  0.5324  0.3342 -0.3800
  100SAPS   H9Y10112   3.984   1.882   7.534  0.1609 -1.2585  0.3704
  100SAPS  C31010113   4.009   1.902   7.753  0.2094  0.2101  0.2113
  100SAPS  H10X10114   3.942   1.990   7.758  0.0550  0.4894 -4.4958
  100SAPS  H10Y10115   4.096   1.917   7.820  2.3815 -1.6990 -2.0738
  100SAPS  C31110116   3.937   1.777   7.803  0.7716 -0.2457  0.0200
  100SAPS  H11X10117   3.994   1.682   7.793  1.4096 -0.1120  2.2494
  100SAPS  H11Y10118   3.866   1.760   7.719  0.6024  0.9016 -0.0708
  100SAPS  C31210119   3.857   1.781   7.934 -0.6060 -0.3881 -0.3504
  100SAPS  H12X10120   3.811   1.682   7.949 -0.8185 -0.5397 -1.8737
  100SAPS  H12Y10121   3.770   1.847   7.914 -0.8932 -0.6267  0.1348
  100SAPS  C31310122   3.922   1.837   8.063  0.2327 -0.5824  0.4961
  100SAPS  H13X10123   3.945   1.942   8.036  1.0021 -1.0235 -0.6203
  100SAPS  H13Y10124   4.017   1.785   8.087  0.8103 -0.0544 -0.6154
  100SAPS  C31410125   3.826   1.829   8.184 -0.7672 -0.1057  0.0689
  100SAPS  H14X10126   3.819   1.724   8.219  1.3071 -0.0283  0.8016
  100SAPS  H14Y10127   3.729   1.872   8.151 -0.9312  0.0622  0.7607
  100SAPS  C31510128   3.885   1.909   8.303  0.4843  0.4216  0.1078
  100SAPS  H15X10129   3.799   1.941   8.365  1.2674 -2.4879  2.8329
  100SAPS  H15Y10130   3.946   1.994   8.265  0.5911 -0.0085 -0.6865
  100SAPS  C31610131   3.969   1.810   8.397  0.0789  0.4450 -0.2031
  100SAPS  H16X10132   4.040   1.748   8.337 -0.5011 -0.7286  0.2984
  100SAPS  H16Y10133   3.909   1.725   8.437  1.4922 -0.6485 -0.3343
  100SAPS  C31710134   4.038   1.884   8.513  0.6136 -0.3290 -0.8911
  100SAPS  H17X10135   3.958   1.920   8.581 -0.2600  0.5801 -2.3743
  100SAPS  H17Y10136   4.085   1.976   8.471 -0.4527  1.2796  1.3411
  100SAPS  C31810137   4.139   1.800   8.590 -0.5072  1.1057 -0.3163
  100SAPS  H18X10138   4.175   1.857   8.678 -1.9447  0.8951  0.4357
  100SAPS  H18Y10139   4.227   1.779   8.526  0.4753  1.0383  1.0438
  100SAPS  H18Z10140   4.090   1.705   8.622  0.8431  0.6630  0.4554
  101OSM      N10141   1.982   2.242  10.975 -0.2837 -0.1196 -0.3829
  101OSM    C1510142   1.891   2.127  10.946 -0.6586 -0.2169  0.1347
  101OSM   H15A10143   1.786   2.148  10.964 -0.9140 -1.2071 -0.1370
  101OSM   H15B10144   1.899   2.031  10.995  1.5601 -0.3653 -0.4571
  101OSM   H15C10145   1.903   2.106  10.840 -1.6618 -0.4989  0.0690
  101OSM    C1410146   1.944   2.357  10.882  0.5264 -0.1674 -0.9178
  101OSM   H14A10147   1.854   2.406  10.914  2.6591  1.9218  2.1455
  101OSM   H14B10148   1.924   2.333  10.779 -0.7352 -1.2483 -0.4418
  101OSM   H14C10149   2.013   2.439  10.893  0.3990 -0.3177  1.3530
  101OSM    C1310150   1.965   2.282  11.117 -0.5188 -0.1061  0.1618
  101OSM   H13A10151   2.022   2.371  11.142  0.5828  0.0682 -2.7540
  101OSM   H13B10152   2.003   2.209  11.187  0.6203  1.1864  0.9345
  101OSM   H13C10153   1.862   2.300  11.141 -1.6422 -1.9504 -3.0188
  101OSM    C1210154   2.128   2.202  10.963 -0.4850  0.0407  0.0559
  101OSM   H12A10155   2.145   2.117  11.027 -0.4980 -1.2895 -1.6770
  101OSM   H12B10156   2.193   2.279  11.003  1.6608 -0.8669 -1.5710
  101OSM    C1110157   2.187   2.167  10.824 -0.1259 -0.6485  0.1129
  101OSM   H11A10158   2.298   2.159  10.822 -0.0834 -0.0113 -0.2503
  101OSM   H11B10159   2.175   2.259  10.763  0.4519  0.5605  1.7799
  101OSM      P10160   2.172   1.912  10.764 -0.3581 -0.4890  0.1756
  101OSM    O1310161   2.212   1.869  10.903 -0.9277 -0.1088  0.3728
  101OSM    O1410162   2.075   1.833  10.687 -0.3159 -0.1637  0.5042
  101OSM    O1110163   2.305   1.948  10.672 -0.4388  0.1614 -0.7243
  101OSM    O1210164   2.113   2.057  10.768 -0.2278 -0.3013  0.2340
  101OSM    C1S10165   2.289   1.996  10.536 -0.0601 -0.3599 -0.2113
  101OSM    H1S10166   2.212   2.075  10.534 -0.1660 -0.4264  1.0297
  101OSM    H1T10167   2.259   1.923  10.458  2.3778  1.8524 -3.3360
  101OSM     NF10168   2.383   2.100  10.327  0.5083  0.3288 -0.2694
  101OSM    HNF10169   2.403   2.022  10.269  0.8129  0.1095  0.1313
  101OSM    C2S10170   2.417   2.052  10.467 -0.3891  0.3241 -0.3632
  101OSM    H2S10171   2.446   2.148  10.513 -0.6753  1.2069 -1.9719
  101OSM    C3S10172   2.544   1.969  10.497  0.2692  0.7298  0.8148
  101OSM    H3S10173   2.534   1.866  10.454  0.7375  1.7260 -1.7838
  101OSM     O310174   2.564   1.945  10.637  0.3292  0.3316 -0.3689
  101OSM    HO310175   2.477   1.959  10.676  2.1842  2.7767  3.2092
  101OSM    C4S10176   2.662   2.042  10.438 -0.2070 -0.4580 -0.1515
  101OSM    H4S10177   2.672   2.141  10.484 -3.5418 -0.8973  1.6738
  101OSM    C5S10178   2.745   1.989  10.351 -0.0915 -0.7318  0.2684
  101OSM    H5S10179   2.752   1.885  10.315  1.3260 -0.6656  0.3300
  101OSM    C6S10180   2.865   2.058  10.298 -0.4961  0.4091  0.5939
  101OSM    H6S10181   2.951   1.988  10.289 -0.8738  0.1127 -0.9065
  101OSM    H6T10182   2.905   2.140  10.361 -1.3827  2.6969 -1.7435
  101OSM    C7S10183   2.831   2.115  10.159 -0.3730  0.2861  0.4695
  101OSM    H7S10184   2.729   2.158  10.154  0.2371  1.7606  0.4516
  101OSM    H7T10185   2.828   2.023  10.097 -2.1342  1.6349 -1.5058
  101OSM    C8S10186   2.952   2.196  10.095 -0.2841 -0.3288 -0.0048
  101OSM    H8S10187   3.046   2.137  10.102 -0.4619 -0.4392  1.6005
  101OSM    H8T10188   2.960   2.286  10.159 -1.0908  1.6770 -2.6078
  101OSM    C9S10189   2.927   2.220   9.949 -0.6592 -0.2844  0.0838
  101OSM    H9S10190   2.842   2.292   9.946  0.4522  1.0289 -0.7000
  101OSM    H9T10191   2.902   2.130   9.888 -2.1994  0.4628 -0.4334
  101OSM   C10S10192   3.048   2.282   9.881 -1.0592 -0.7071 -0.3192
  101OSM   H10S10193   3.131   2.209   9.883 -0.5182 -0.1124 -0.9057
  101OSM   H10T10194   3.077   2.369   9.945 -1.6297  0.5120 -1.7037
  101OSM   C11S10195   3.030   2.344   9.746 -0.4025  0.9655  0.5148
  101OSM   H11S10196   3.129   2.386   9.716 -0.9317  1.9337  0.1161
  101OSM   H11T10197   2.939   2.407   9.741 -0.0605  1.5252  1.2223
  101OSM   C12S10198   3.017   2.226   9.641 -0.1718 -0.0161 -0.1852
  101OSM   H12S10199   2.928   2.169   9.674 -0.3047  1.2189  1.7174
  101OSM   H12T10200   3.104   2.159   9.655 -1.0144 -1.6982 -2.7556
  101OSM   C13S10201   3.000   2.267   9.499 -0.2201 -0.1509  1.0286
  101OSM   H13S10202   3.077   2.338   9.463 -1.7720  1.2540  0.3953
  101OSM   H13T10203   2.909   2.331   9.497  0.7915  1.3041 -0.5817
  101OSM   C14S10204   2.988   2.147   9.398  0.0919 -0.4039 -0.4369
  101OSM   H14S10205   2.892   2.095   9.420 -1.3495  2.4310  0.3334
  101OSM   H14T10206   3.078   2.083   9.402  0.3947 -0.1160 -2.1893
  101OSM   C15S10207   2.967   2.183   9.248 -0.3360  0.5798 -0.1933
  101OSM   H15S10208   2.882   2.254   9.244 -1.5169 -0.8156 -0.1365
  101OSM   H15T10209   2.943   2.086   9.201 -1.7562  0.2526  1.1757
  101OSM   C16S10210   3.096   2.237   9.184 -0.3449  0.9558 -0.0223
  101OSM   H16S10211   3.167   2.154   9.202  1.4230  1.9974 -1.9539
  101OSM   H16T10212   3.133   2.325   9.241  1.8287 -1.2406  2.0720
  101OSM   C17S10213   3.092   2.268   9.026  0.3773  0.4961 -0.1821
  101OSM   H17S10214   3.198   2.292   9.000  0.9959 -0.9886  0.8965
  101OSM   H17T10215   3.046   2.367   9.007 -0.5799 -0.1304 -1.1944
  101OSM   C18S10216   3.027   2.165   8.930 -0.0971  0.6538 -0.0879
  101OSM   H18S10217   3.047   2.181   8.822  0.0192  0.1663 -0.1412
  101OSM   H18T10218   2.917   2.159   8.937  0.0297 -0.4751  1.1857
  101OSM   H18U10219   3.066   2.065   8.960 -0.0075  1.0760  1.2016
  101OSM    C1F10220   2.291   2.191  10.297 -0.4940  0.3149  0.5090
  101OSM     OF10221   2.244   2.267  10.385 -0.1999 -0.1999  0.0541
  101OSM    C2F10222   2.245   2.197  10.150 -0.9932  0.7078 -0.1505
  101OSM    H2F10223   2.223   2.093  10.118 -0.9752  1.0941 -1.4607
  101OSM    H2G10224   2.328   2.229  10.082 -0.0717  0.4544  0.8472
  101OSM    C3F10225   2.124   2.284  10.121 -0.6650 -0.1348  0.1254
  101OSM    H3F10226   2.156   2.388  10.142  1.9413 -1.0030  0.5888
  101OSM    H3G10227   2.051   2.274  10.205 -0.3549  0.6817  0.4968
  101OSM    C4F10228   2.069   2.273   9.983 -0.8809  0.2605  0.3625
  101OSM    H4F10229   1.989   2.348   9.969 -1.5599 -0.5373 -0.0452
  101OSM    H4G10230   2.021   2.173   9.979 -1.9240  0.6992  1.6525
  101OSM    C5F10231   2.167   2.291   9.871 -0.5692 -0.0427  0.1409
  101OSM    H5F10232   2.257   2.226   9.881 -0.1758 -0.1191 -3.1355
  101OSM    H5G10233   2.193   2.399   9.870 -0.6105 -0.0265  0.6857
  101OSM    C6F10234   2.109   2.259   9.735 -0.4151  0.0730  0.1002
  101OSM    H6F10235   2.003   2.290   9.725 -0.9692 -0.6923  3.0713
  101OSM    H6G10236   2.107   2.150   9.714  1.4949 -0.0321  0.3031
  101OSM    C7F10237   2.208   2.314   9.628  0.3818  0.4314  1.0435
  101OSM    H7F10238   2.313   2.309   9.667  0.5801 -0.4708  0.4180
  101OSM    H7G10239   2.185   2.422   9.615 -0.5869  0.0788 -0.2020
  101OSM    C8F10240   2.192   2.250   9.483 -0.2782  0.1928 -1.1087
  101OSM    H8F10241   2.090   2.274   9.445 -0.7760  0.8957  0.6192
  101OSM    H8G10242   2.198   2.141   9.501  1.1586  0.4895  0.2715
  101OSM    C9F10243   2.308   2.308   9.407  0.2794 -0.4605  0.5607
  101OSM    H9F10244   2.405   2.304   9.460  0.0303 -2.0332  0.9252
  101OSM   C10F10245   2.315   2.361   9.283  0.2181 -0.0973  0.7569
  101OSM   H10F10246   2.407   2.378   9.226 -0.2193  2.1717  0.6573
  101OSM   C11F10247   2.196   2.371   9.196  0.0759  0.4804 -0.7343
  101OSM   H11F10248   2.149   2.471   9.187  0.8301  0.8240 -0.9593
  101OSM   H11G10249   2.113   2.306   9.231  1.0379 -0.2017  0.3479
  101OSM   C12F10250   2.231   2.321   9.051  0.8262 -0.1597 -0.3650
  101OSM   H12F10251   2.313   2.383   9.007  0.0557  1.7422  0.7990
  101OSM   H12G10252   2.141   2.352   8.996  2.0205  1.2364 -1.5742
  101OSM   C13F10253   2.278   2.173   9.036 -0.0257  0.0224  0.0492
  101OSM   H13F10254   2.292   2.129   9.137  1.7860  0.7063  0.0997
  101OSM   H13G10255   2.377   2.165   8.987  1.0472  0.3019  2.1226
  101OSM   C14F10256   2.182   2.078   8.962  0.3604  0.0467  0.2260
  101OSM   H14F10257   2.074   2.100   8.982  0.7167 -0.3458  2.7184
  101OSM   H14G10258   2.202   1.972   8.986  1.0798  0.0384 -0.4327
  101OSM   C15F10259   2.182   2.096   8.809 -0.0027  0.3171  0.8775
  101OSM   H15F10260   2.118   2.020   8.759  3.2945 -1.6863 -0.5029
  101OSM   H15G10261   2.287   2.080   8.776 -0.6768  0.3483 -1.3944
  101OSM   C16F10262   2.152   2.236   8.762  0.1705  0.9446  0.3499
  101OSM   H16F10263   2.225   2.315   8.791  0.1416  0.4641  1.7807
  101OSM   H16G10264   2.056   2.266   8.809 -0.2498 -0.6988  0.5793
  101OSM   C17F10265   2.122   2.248   8.612 -0.5987  0.3044 -0.0842
  101OSM   H17F10266   2.043   2.174   8.588 -1.4128  1.4149 -0.8629
  101OSM   H17G10267   2.208   2.223   8.546 -0.6315  1.1561 -0.4644
  101OSM   C18F10268   2.087   2.389   8.567 -0.4118 -0.3127  1.4799
  101OSM   H18F10269   1.995   2.422   8.621 -0.4707  1.9323  0.0470
  101OSM   H18G10270   2.083   2.405   8.457  2.1561  0.6075  1.4861
  101OSM   H18H10271   2.170   2.454   8.601  0.8432 -0.4715 -1.1414
  102OSM      N10272   2.696   1.086  10.634  0.8645 -0.6584 -0.2303
  102OSM    C1510273   2.595   0.998  10.569 -0.1293 -0.0104  0.3810
  102OSM   H15A10274   2.544   0.929  10.636  2.0199 -1.0034  1.0214
  102OSM   H15B10275   2.642   0.937  10.494 -0.4392  0.9208 -0.5771
  102OSM   H15C10276   2.519   1.061  10.525  0.9606 -0.6566 -2.4944
  102OSM    C1410277   2.633   1.179  10.736  0.1571 -0.5632  0.1624
  102OSM   H14A10278   2.580   1.125  10.812  2.7867 -3.0497  0.2909
  102OSM   H14B10279   2.557   1.237  10.685  0.0252 -0.6101  0.3061
  102OSM   H14C10280   2.705   1.246  10.779  3.0685 -2.7344 -1.2118
  102OSM    C1310281   2.793   1.004  10.710  0.0099 -0.4502 -0.5757
  102OSM   H13A10282   2.745   0.971  10.801 -0.0425 -0.2386 -0.5276
  102OSM   H13B10283   2.882   1.062  10.730  1.4501 -1.9216 -2.4779
  102OSM   H13C10284   2.827   0.914  10.660  1.0807 -0.1995 -0.3035
  102OSM    C1210285   2.763   1.167  10.524 -0.2156 -0.6956 -0.4069
  102OSM   H12A10286   2.684   1.228  10.483  1.1675  1.6031  0.2399
  102OSM   H12B10287   2.793   1.097  10.448  1.5173 -0.4760  0.0417
  102OSM    C1110288   2.892   1.252  10.560  0.3764  0.1083 -0.5540
  102OSM   H11A10289   2.925   1.300  10.466  1.8271  0.2178 -0.0000
  102OSM   H11B10290   2.981   1.190  10.583 -0.2178 -0.0712  1.3980
  102OSM      P10291   2.831   1.505  10.613  0.1178 -0.3563 -0.2536
  102OSM    O1310292   2.735   1.553  10.717 -0.0248 -0.4398 -0.4484
  102OSM    O1410293   2.956   1.583  10.596 -0.2865 -0.4298 -0.2819
  102OSM    O1110294   2.763   1.499  10.468  0.0525  0.2129  0.8751
  102OSM    O1210295   2.868   1.358  10.656  0.6120 -0.5300  0.3052
  102OSM    C1S10296   2.618   1.505  10.457 -0.2511  0.0450 -0.0319
  102OSM    H1S10297   2.585   1.603  10.497  0.0954 -0.0185  0.4082
  102OSM    H1T10298   2.571   1.420  10.511 -2.4665 -0.3962 -2.5283
  102OSM     NF10299   2.434   1.520  10.301 -0.3404 -0.1538 -0.8826
  102OSM    HNF10300   2.375   1.443  10.326 -0.2081  0.3123  0.8893
  102OSM    C2S10301   2.572   1.491  10.306 -0.1083  0.4301 -1.0968
  102OSM    H2S10302   2.620   1.564  10.237  1.2158 -1.8437 -2.6691
  102OSM    C3S10303   2.618   1.348  10.241  0.0977  0.5481 -0.2760
  102OSM    H3S10304   2.566   1.268  10.297  0.6169  1.1980  1.1595
  102OSM     O310305   2.758   1.316  10.273  0.5894 -0.6588 -0.5527
  102OSM    HO310306   2.770   1.385  10.339  0.2925 -0.6490 -0.5100
  102OSM    C4S10307   2.593   1.356  10.092  0.6920 -0.1667  0.4547
  102OSM    H4S10308   2.484   1.361  10.077  0.3032 -2.0210  2.3842
  102OSM    C5S10309   2.672   1.377   9.982  0.5167  0.1395 -0.0255
  102OSM    H5S10310   2.781   1.374   9.990  0.4542  2.0712  1.8047
  102OSM    C6S10311   2.620   1.397   9.838  0.1005 -0.2364 -0.2738
  102OSM    H6S10312   2.654   1.498   9.807 -1.5802  0.0950 -1.0741
  102OSM    H6T10313   2.511   1.409   9.826 -0.0761 -0.1173  1.3399
  102OSM    C7S10314   2.686   1.294   9.748  0.7585 -0.0750 -0.2085
  102OSM    H7S10315   2.670   1.196   9.798 -0.2641  1.7253  3.1996
  102OSM    H7T10316   2.794   1.312   9.733  0.7400  1.6209  1.4970
  102OSM    C8S10317   2.615   1.303   9.608 -0.3311  1.1699  0.3840
  102OSM    H8S10318   2.591   1.411   9.604  2.6517  1.8924  0.7703
  102OSM    H8T10319   2.521   1.247   9.629 -0.1109  0.3777 -0.7136
  102OSM    C9S10320   2.709   1.265   9.499 -0.6502  0.3106 -0.6426
  102OSM    H9S10321   2.738   1.159   9.519  2.8056  1.0195 -1.4741
  102OSM    H9T10322   2.808   1.315   9.508 -0.3783 -0.2485 -0.4833
  102OSM   C10S10323   2.665   1.283   9.353  1.3200  0.4692 -0.5952
  102OSM   H10S10324   2.759   1.279   9.295  2.2096  2.0444  0.6855
  102OSM   H10T10325   2.610   1.380   9.348 -1.3313 -0.9315  0.0999
  102OSM   C11S10326   2.574   1.176   9.305 -1.2018 -0.5735  0.0064
  102OSM   H11S10327   2.502   1.147   9.385 -0.4309  0.2141  0.9973
  102OSM   H11T10328   2.629   1.080   9.298  1.0680  0.7809 -1.2498
  102OSM   C12S10329   2.504   1.191   9.172  0.4378  0.7865  0.1375
  102OSM   H12S10330   2.445   1.284   9.184 -1.4557 -0.0750 -2.2586
  102OSM   H12T10331   2.429   1.110   9.159 -1.7744  2.4258  2.1517
  102OSM   C13S10332   2.605   1.205   9.047 -0.0149  0.4157  1.1770
  102OSM   H13S10333   2.643   1.310   9.051  0.2787  0.4369 -1.5223
  102OSM   H13T10334   2.560   1.191   8.947  3.4950  3.5256 -0.9568
  102OSM   C14S10335   2.715   1.096   9.052  0.6756  0.8660 -0.1789
  102OSM   H14S10336   2.665   0.997   9.060  3.3132 -0.4592  0.3264
  102OSM   H14T10337   2.776   1.100   9.145  1.6831 -2.0994 -0.6345
  102OSM   C15S10338   2.811   1.098   8.941 -0.7308  0.0194  0.4999
  102OSM   H15S10339   2.783   1.054   8.843  1.9390  0.3883 -0.4888
  102OSM   H15T10340   2.895   1.032   8.972  0.2438 -0.4365 -2.9142
  102OSM   C16S10341   2.874   1.245   8.932  0.5005 -0.0626  0.3895
  102OSM   H16S10342   2.898   1.270   9.037  0.2567 -0.9549  0.6655
  102OSM   H16T10343   2.796   1.310   8.886  0.0928 -0.4879  0.4807
  102OSM   C17S10344   3.001   1.247   8.852  0.2120  0.9149  0.8672
  102OSM   H17S10345   2.981   1.215   8.747 -0.2559  0.0763  1.2110
  102OSM   H17T10346   3.064   1.180   8.913 -1.1251  0.2141  1.5064
  102OSM   C18S10347   3.052   1.388   8.836 -0.2515 -0.0497  0.6668
  102OSM   H18S10348   3.158   1.385   8.801 -0.1894 -0.0864  0.8559
  102OSM   H18T10349   3.063   1.433   8.937  3.1722  0.9021 -0.0537
  102OSM   H18U10350   2.990   1.451   8.770  3.8421  0.4812 -2.9581
  102OSM    C1F10351   2.391   1.648  10.291  0.0201 -0.4831 -0.3629
  102OSM     OF10352   2.471   1.737  10.267 -0.4233 -0.3936  0.4344
  102OSM    C2F10353   2.250   1.682  10.319  0.2935 -0.0639 -0.1287
  102OSM    H2F10354   2.235   1.717  10.423 -0.7262  1.6378 -0.8356
  102OSM    H2G10355   2.192   1.587  10.321 -1.4544  0.9508 -1.3221
  102OSM    C3F10356   2.190   1.773  10.214  0.4291  0.3706  0.6500
  102OSM    H3F10357   2.221   1.739  10.113  0.5312 -0.3150  0.9039
  102OSM    H3G10358   2.218   1.879  10.230 -0.3262  0.7542 -0.5219
  102OSM    C4F10359   2.035   1.769  10.216  0.7140 -0.6147 -0.1024
  102OSM    H4F10360   2.006   1.809  10.315 -0.0484  0.2239 -0.6518
  102OSM    H4G10361   2.007   1.662  10.205  0.6848 -0.6214  0.0480
  102OSM    C5F10362   1.973   1.859  10.101  0.2253 -0.6273 -0.1065
  102OSM    H5F10363   2.019   1.959  10.109 -1.9219  0.4361 -0.6400
  102OSM    H5G10364   1.863   1.867  10.109  0.3950 -0.7111  2.5233
  102OSM    C6F10365   1.995   1.797   9.960 -0.1151 -0.2359  0.5116
  102OSM    H6F10366   1.929   1.709   9.944  1.2485 -1.3509  0.8798
  102OSM    H6G10367   2.097   1.754   9.949 -0.4823 -1.2580  0.9625
  102OSM    C7F10368   1.985   1.889   9.838 -0.4503 -0.2695 -0.1382
  102OSM    H7F10369   1.993   1.827   9.746  0.2902  0.5337 -0.6204
  102OSM    H7G10370   2.073   1.955   9.848  1.1894 -2.5060  0.7963
  102OSM    C8F10371   1.858   1.971   9.842 -0.0011  0.0617  0.2907
  102OSM    H8F10372   1.880   2.047   9.764  0.2927 -0.0532  0.2606
  102OSM    H8G10373   1.844   2.021   9.940 -3.2360 -0.5272  0.1873
  102OSM    C9F10374   1.732   1.889   9.808 -0.6516  0.0583 -0.3628
  102OSM    H9F10375   1.678   1.855   9.898 -1.1531 -0.7725 -0.9662
  102OSM   C10F10376   1.685   1.854   9.687  0.0611  0.5794  0.0325
  102OSM   H10F10377   1.591   1.797   9.677  0.8019 -0.4217 -1.3109
  102OSM   C11F10378   1.744   1.895   9.548 -0.5267 -0.2835  0.1460
  102OSM   H11F10379   1.840   1.845   9.521 -1.3695 -0.6602 -2.2992
  102OSM   H11G10380   1.780   1.999   9.551  2.0450 -1.0719 -1.6579
  102OSM   C12F10381   1.646   1.885   9.429 -0.3891  0.1978  0.1154
  102OSM   H12F10382   1.671   1.968   9.359  0.8507  0.0834  0.4133
  102OSM   H12G10383   1.541   1.908   9.456 -0.4832 -0.2098  0.1119
  102OSM   C13F10384   1.652   1.750   9.352  0.1364 -0.8601 -0.2362
  102OSM   H13F10385   1.636   1.666   9.423 -0.1603  0.7398  1.6225
  102OSM   H13G10386   1.757   1.729   9.322  0.5781  0.3545  0.4523
  102OSM   C14F10387   1.568   1.743   9.217 -0.3155  0.3792 -0.0982
  102OSM   H14F10388   1.609   1.816   9.144 -2.8289 -0.5339 -2.5309
  102OSM   H14G10389   1.461   1.768   9.233 -0.0551  2.4610 -1.3306
  102OSM   C15F10390   1.558   1.603   9.149  0.6975 -0.0488  0.5553
  102OSM   H15F10391   1.477   1.607   9.073  0.3555 -0.9100  0.8738
  102OSM   H15G10392   1.529   1.520   9.216 -0.9576 -0.0989 -0.2027
  102OSM   C16F10393   1.691   1.558   9.090  0.4960 -0.1794  0.0687
  102OSM   H16F10394   1.682   1.466   9.028  0.9184  0.9473 -1.7037
  102OSM   H16G10395   1.773   1.546   9.164  0.9408 -0.1392 -0.4202
  102OSM   C17F10396   1.753   1.653   8.982  0.0253 -0.0972  0.6980
  102OSM   H17F10397   1.789   1.747   9.029  1.4132  0.2988 -1.1274
  102OSM   H17G10398   1.677   1.688   8.908 -1.0192 -1.8193  0.9104
  102OSM   C18F10399   1.878   1.587   8.917  0.0776 -0.6767 -0.2777
  102OSM   H18F10400   1.852   1.510   8.841 -1.0200 -0.6682  0.0811
  102OSM   H18G10401   1.932   1.539   9.001 -0.1873  0.5524  0.6073
  102OSM   H18H10402   1.939   1.669   8.875 -0.1168 -1.3777 -1.9834
  103OSM      N10403   4.566   4.185  11.103 -0.4072  0.6308  0.1738
  103OSM    C1510404   4.592   4.306  11.023  0.2723 -0.4868  0.2230
  103OSM   H15A10405   4.643   4.378  11.085 -2.4472  0.5993  1.2704
  103OSM   H15B10406   4.504   4.354  10.983  1.1931  0.5622 -0.5605
  103OSM   H15C10407   4.643   4.278  10.932 -1.1705  1.6719 -1.3091
  103OSM    C1410408   4.696   4.136  11.177 -0.4928 -0.2719  0.7526
  103OSM   H14A10409   4.781   4.149  11.111 -1.0052  0.6469  0.2621
  103OSM   H14B10410   4.693   4.031  11.199  0.6263 -0.1254  1.6170
  103OSM   H14C10411   4.711   4.207  11.257 -0.2488 -0.3261  0.7554
  103OSM    C1310412   4.462   4.228  11.199  0.0498  0.1465  0.1264
  103OSM   H13A10413   4.494   4.283  11.287 -0.4932 -0.0378  0.4423
  103OSM   H13B10414   4.397   4.150  11.235  0.3164  0.5319  1.4955
  103OSM   H13C10415   4.390   4.287  11.145  0.9660  0.0817 -1.1799
  103OSM    C1210416   4.512   4.068  11.014  0.4252  0.1471 -0.2932
  103OSM   H12A10417   4.516   3.978  11.072  1.6548 -0.0755 -0.6893
  103OSM   H12B10418   4.587   4.042  10.940  0.2858 -1.0670 -0.0028
  103OSM    C1110419   4.374   4.095  10.943 -0.4353  0.1150  0.3004
  103OSM   H11A10420   4.365   4.023  10.858 -2.1825  0.0235  0.5448
  103OSM   H11B10421   4.386   4.196  10.898 -2.0348 -0.9827 -2.7318
  103OSM      P10422   4.135   4.174  10.975  0.3059 -0.3200  0.2008
  103OSM    O1310423   4.012   4.113  11.033 -0.8253  0.3109  1.1938
  103OSM    O1410424   4.166   4.314  11.016  0.4622  0.4145  1.0282
  103OSM    O1110425   4.131   4.159  10.817 -0.5915  0.2942 -0.9113
  103OSM    O1210426   4.255   4.078  11.024  0.4936  0.2483  0.3965
  103OSM    C1S10427   4.029   4.083  10.749 -0.1305  0.5242 -0.0966
  103OSM    H1S10428   3.928   4.088  10.794 -0.0879 -3.4049  0.6343
  103OSM    H1T10429   4.067   3.978  10.745 -0.9193  0.2071  0.6049
  103OSM     NF10430   3.907   4.067  10.532  0.4053  0.3578  0.2642
  103OSM    HNF10431   3.919   4.003  10.456 -0.4550  0.2206  0.2432
  103OSM    C2S10432   4.021   4.126  10.599 -0.2096 -0.4931  0.1399
  103OSM    H2S10433   4.011   4.236  10.596 -1.7332 -0.6407 -0.4764
  103OSM    C3S10434   4.156   4.107  10.517 -0.0118 -0.6153  0.6259
  103OSM    H3S10435   4.163   3.999  10.494 -0.9281 -0.2958 -1.3188
  103OSM     O310436   4.268   4.151  10.583  0.1148  0.4000  0.3026
  103OSM    HO310437   4.249   4.160  10.677  0.5213  1.3382  0.3013
  103OSM    C4S10438   4.153   4.180  10.389 -0.2975 -0.1925 -0.9386
  103OSM    H4S10439   4.140   4.289  10.392 -1.1447 -0.1387 -4.3699
  103OSM    C5S10440   4.150   4.123  10.267 -0.1056  0.3541 -0.1032
  103OSM    H5S10441   4.160   4.014  10.258 -0.7310  0.4309 -1.8815
  103OSM    C6S10442   4.149   4.205  10.144  0.7189  0.4225  0.6653
  103OSM    H6S10443   4.241   4.263  10.122 -0.4280  1.1308 -2.5262
  103OSM    H6T10444   4.061   4.273  10.144 -0.8489 -1.5499  1.8103
  103OSM    C7S10445   4.126   4.104  10.032 -0.1350 -0.2254  0.0743
  103OSM    H7S10446   4.029   4.052  10.047 -0.6101 -0.0314 -2.2617
  103OSM    H7T10447   4.205   4.025  10.032  0.4098  0.3067  0.9292
  103OSM    C8S10448   4.094   4.166   9.888  0.1518 -0.0060  0.2702
  103OSM    H8S10449   4.184   4.201   9.833 -1.0005  0.0249 -1.6434
  103OSM    H8T10450   4.035   4.257   9.909 -1.1707 -0.8470  0.2899
  103OSM    C9S10451   4.021   4.061   9.806 -0.5679  0.3191 -0.2409
  103OSM    H9S10452   3.994   3.965   9.855  0.8449  0.1712  0.2682
  103OSM    H9T10453   4.083   4.037   9.718  2.3748 -0.2930  1.9344
  103OSM   C10S10454   3.881   4.113   9.768 -0.6005 -0.4878  0.0317
  103OSM   H10S10455   3.888   4.209   9.712 -2.2214 -0.7917 -0.7248
  103OSM   H10T10456   3.839   4.130   9.869  2.2046  4.2232  0.5553
  103OSM   C11S10457   3.776   4.022   9.694  0.1118  0.2909 -0.3731
  103OSM   H11S10458   3.686   4.082   9.667 -0.1800  0.3512  0.7197
  103OSM   H11T10459   3.752   3.938   9.763  1.1069  3.0930  3.5202
  103OSM   C12S10460   3.836   3.969   9.566  0.4615  0.0182  0.2987
  103OSM   H12S10461   3.779   3.882   9.527  0.7068 -1.6090  3.4567
  103OSM   H12T10462   3.935   3.926   9.593  0.0705 -0.8734  0.3226
  103OSM   C13S10463   3.855   4.070   9.449  0.0613 -0.0700  0.3371
  103OSM   H13S10464   3.939   4.124   9.497 -0.4095  0.5735  0.4375
  103OSM   H13T10465   3.765   4.125   9.415  0.9352  1.4120  0.3963
  103OSM   C14S10466   3.917   4.003   9.333 -0.4410 -0.3825  0.3035
  103OSM   H14S10467   3.841   3.995   9.252  0.8271  3.4490 -1.3754
  103OSM   H14T10468   3.939   3.898   9.361  1.5415  0.2679  1.2811
  103OSM   C15S10469   4.050   4.075   9.292  0.2396 -0.3876  0.0411
  103OSM   H15S10470   4.117   4.081   9.380  0.0376 -0.0788  0.1712
  103OSM   H15T10471   4.015   4.177   9.267 -0.4951 -0.3303  1.2866
  103OSM   C16S10472   4.136   4.012   9.184  1.0079  0.3476 -0.1746
  103OSM   H16S10473   4.233   4.065   9.182  1.2097  0.0468  0.9614
  103OSM   H16T10474   4.077   4.024   9.091 -1.9612  0.8920  1.7068
  103OSM   C17S10475   4.182   3.870   9.217  0.1274  0.6533  0.0120
  103OSM   H17S10476   4.091   3.806   9.220  2.4004 -2.9054 -2.3228
  103OSM   H17T10477   4.232   3.865   9.316 -0.8924  0.0913  0.5100
  103OSM   C18S10478   4.279   3.816   9.109  0.1986  0.3411 -0.0331
  103OSM   H18S10479   4.297   3.712   9.144  2.1894  0.5120 -0.4854
  103OSM   H18T10480   4.378   3.863   9.092 -0.6011  2.3500  0.6206
  103OSM   H18U10481   4.232   3.812   9.009  1.1925 -0.0495 -0.4921
  103OSM    C1F10482   3.784   4.086  10.573 -0.7873 -0.0908 -0.7027
  103OSM     OF10483   3.762   4.187  10.641 -0.9099  0.3932  0.6344
  103OSM    C2F10484   3.697   3.966  10.553 -0.2806 -0.4450 -0.1403
  103OSM    H2F10485   3.653   3.937  10.651  0.0486  0.4754  0.2799
  103OSM    H2G10486   3.766   3.884  10.524  1.4669  0.4893  1.2780
  103OSM    C3F10487   3.607   3.994  10.433 -1.4417 -0.2268  0.0803
  103OSM    H3F10488   3.677   3.999  10.347 -2.2160 -2.0822 -0.6913
  103OSM    H3G10489   3.548   4.086  10.449  1.3765  2.0828 -2.2882
  103OSM    C4F10490   3.508   3.883  10.399 -0.1278 -0.2698  0.2640
  103OSM    H4F10491   3.431   3.886  10.479 -0.9156  0.6280 -0.5157
  103OSM    H4G10492   3.547   3.780  10.391 -1.3750 -0.7658  0.4516
  103OSM    C5F10493   3.413   3.922  10.284 -0.0470 -0.1827 -0.0182
  103OSM    H5F10494   3.382   4.028  10.276 -0.1786 -0.2002  0.2495
  103OSM    H5G10495   3.316   3.868  10.293 -0.5226  0.3730 -1.6880
  103OSM    C6F10496   3.488   3.904  10.150  0.4744 -0.0745  0.0167
  103OSM    H6F10497   3.516   3.799  10.127 -0.0870 -0.4159  0.8558
  103OSM    H6G10498   3.585   3.960  10.151  0.2815  0.2595  0.1028
  103OSM    C7F10499   3.397   3.956  10.033 -0.3594  0.3202  0.0992
  103OSM    H7F10500   3.391   4.067  10.033  1.2822  0.4429 -2.0800
  103OSM    H7G10501   3.297   3.915  10.055 -0.6631  1.6590  1.3055
  103OSM    C8F10502   3.448   3.927   9.889 -0.1053  0.1579 -0.4148
  103OSM    H8F10503   3.499   3.828   9.888  1.2006  0.8269 -3.2137
  103OSM    H8G10504   3.524   4.005   9.866 -0.7538  1.2835  1.1577
  103OSM    C9F10505   3.330   3.930   9.801  0.7322  0.1457  0.4253
  103OSM    H9F10506   3.271   3.838   9.814  0.1377  0.3611 -0.7496
  103OSM   C10F10507   3.302   4.019   9.707 -0.5567 -0.4361 -0.0463
  103OSM   H10F10508   3.213   4.012   9.643 -2.8075 -0.2367  2.9761
  103OSM   C11F10509   3.379   4.143   9.670 -0.3513 -0.4589  0.3562
  103OSM   H11F10510   3.450   4.179   9.748 -1.9937 -2.7851  3.0039
  103OSM   H11G10511   3.304   4.225   9.667  1.6695  1.4894  1.2894
  103OSM   C12F10512   3.445   4.128   9.533  0.0930  0.0400  0.4462
  103OSM   H12F10513   3.514   4.041   9.526  1.2586  0.9590  0.2303
  103OSM   H12G10514   3.518   4.211   9.524  0.8351 -0.6020  0.4114
  103OSM   C13F10515   3.356   4.148   9.414  0.8616  0.6916  0.1088
  103OSM   H13F10516   3.269   4.081   9.427  1.5793 -0.5493 -1.3164
  103OSM   H13G10517   3.316   4.251   9.402 -2.7794 -0.5602  1.1633
  103OSM   C14F10518   3.425   4.108   9.281  0.6215  0.3014  0.6600
  103OSM   H14F10519   3.479   4.011   9.290  0.1334 -0.0278  0.0344
  103OSM   H14G10520   3.502   4.185   9.258  0.9185 -0.4781 -0.9479
  103OSM   C15F10521   3.339   4.090   9.153  0.1685 -0.0149  0.3115
  103OSM   H15F10522   3.291   4.188   9.137 -2.6440 -1.6400 -1.6025
  103OSM   H15G10523   3.256   4.017   9.163 -0.1348  0.3153  0.1737
  103OSM   C16F10524   3.420   4.055   9.028  0.5880 -0.1913 -0.4699
  103OSM   H16F10525   3.458   3.951   9.041  1.0113  0.2408  1.8528
  103OSM   H16G10526   3.508   4.121   9.012  0.5645  0.0343  0.3136
  103OSM   C17F10527   3.341   4.052   8.892 -0.0423  0.9790 -0.6921
  103OSM   H17F10528   3.298   4.154   8.896  0.7767  1.2728  0.9418
  103OSM   H17G10529   3.255   3.983   8.894  1.5091 -1.0013  0.3877
  103OSM   C18F10530   3.421   4.044   8.770  0.2816 -0.8069  0.3396
  103OSM   H18F10531   3.509   4.112   8.779  0.7620 -1.4711  0.7679
  103OSM   H18G10532   3.361   4.053   8.677 -1.8603  1.7880  1.9147
  103OSM   H18H10533   3.471   3.946   8.753  2.1912  0.3369 -1.0283
  104OSM      N10534   0.872   3.769  10.964 -0.5945 -0.3710 -0.2921
  104OSM    C1510535   0.938   3.905  10.951  0.6052 -0.3191  0.2341
  104OSM   H15A10536   1.041   3.888  10.924 -0.3516 -1.6612 -2.7348
  104OSM   H15B10537   0.935   3.942  11.053 -1.6867 -1.3311  0.5779
  104OSM   H15C10538   0.885   3.968  10.881  2.0005  0.1069 -0.4420
  104OSM    C1410539   0.981   3.684  11.019 -0.4837 -0.6586  0.1150
  104OSM   H14A10540   1.050   3.677  10.936 -3.5180  0.1965 -2.5936
  104OSM   H14B10541   0.944   3.589  11.055  0.6973 -0.8464  0.8533
  104OSM   H14C10542   1.036   3.735  11.097 -0.5290  1.2221 -1.0559
  104OSM    C1310543   0.747   3.781  11.046  0.3576  0.4476  0.4417
  104OSM   H13A10544   0.697   3.686  11.044  1.9148 -0.3638  0.0675
  104OSM   H13B10545   0.686   3.862  11.008 -0.2238 -1.3718 -2.6668
  104OSM   H13C10546   0.777   3.811  11.145  0.3985 -0.8449  0.8280
  104OSM    C1210547   0.838   3.719  10.823  0.1641  0.0012 -0.2407
  104OSM   H12A10548   0.799   3.620  10.837 -0.0705 -0.0483 -1.1842
  104OSM   H12B10549   0.932   3.708  10.771  0.2835 -0.3962  0.0627
  104OSM    C1110550   0.732   3.792  10.737 -0.2581  0.3263  0.3427
  104OSM   H11A10551   0.634   3.799  10.789  0.9867 -0.3206  2.8562
  104OSM   H11B10552   0.697   3.739  10.646 -0.5526  1.6972 -0.3557
  104OSM      P10553   0.894   3.932  10.605  0.1093 -0.1848 -0.1198
  104OSM    O1310554   0.933   4.074  10.593  0.2606 -0.5646  0.3091
  104OSM    O1410555   1.004   3.834  10.635 -0.0548  0.0195  0.7444
  104OSM    O1110556   0.823   3.890  10.472  0.1994  0.4587 -0.1459
  104OSM    O1210557   0.773   3.925  10.710  0.1072 -0.4164 -0.2227
  104OSM    C1S10558   0.690   3.937  10.446 -0.7167 -0.0341 -0.7707
  104OSM    H1S10559   0.657   4.026  10.503 -0.3085  0.2204 -0.9311
  104OSM    H1T10560   0.618   3.852  10.454 -0.9786 -0.1305 -3.5967
  104OSM     NF10561   0.547   4.040  10.270  0.6782 -0.0146  0.0903
  104OSM    HNF10562   0.466   3.989  10.243  1.7784 -1.7767  0.0270
  104OSM    C2S10563   0.676   3.973  10.290  0.5405 -0.4123  0.4007
  104OSM    H2S10564   0.757   4.048  10.278  0.9239 -0.7808  0.6385
  104OSM    C3S10565   0.691   3.845  10.205  0.1695 -0.5586  0.5403
  104OSM    H3S10566   0.612   3.771  10.232 -1.3389  1.5365  2.0787
  104OSM     O310567   0.802   3.765  10.241 -0.4425  0.3294 -0.2253
  104OSM    HO310568   0.841   3.798  10.322 -0.6942 -0.4033  0.2007
  104OSM    C4S10569   0.674   3.875  10.059  0.4395 -0.3928 -0.1540
  104OSM    H4S10570   0.732   3.958  10.015  0.4420  1.9321  4.0255
  104OSM    C5S10571   0.595   3.794   9.980  0.1103 -0.5240  0.0285
  104OSM    H5S10572   0.557   3.701  10.023 -1.2071  0.9621  2.1468
  104OSM    C6S10573   0.569   3.813   9.832  0.2307 -0.1021 -0.2467
  104OSM    H6S10574   0.461   3.813   9.806  0.0078  1.2865  0.6212
  104OSM    H6T10575   0.618   3.726   9.782  0.2987 -0.5504  0.6005
  104OSM    C7S10576   0.619   3.939   9.756 -0.6162 -0.2164 -0.0005
  104OSM    H7S10577   0.730   3.943   9.753 -0.5953 -0.2517  0.6644
  104OSM    H7T10578   0.576   4.031   9.802  2.6660  1.6429 -0.5005
  104OSM    C8S10579   0.563   3.936   9.613  0.4758 -0.4862  0.0115
  104OSM    H8S10580   0.452   3.946   9.617  0.4862  1.1345 -2.5403
  104OSM    H8T10581   0.592   3.841   9.564 -2.1045 -1.3130  0.0255
  104OSM    C9S10582   0.611   4.053   9.534 -0.0623  0.5837  0.5711
  104OSM    H9S10583   0.719   4.077   9.549  0.1622 -1.0441  1.5977
  104OSM    H9T10584   0.556   4.140   9.576 -1.8354 -0.4194  0.3469
  104OSM   C10S10585   0.566   4.045   9.388 -0.4982  0.2083  0.8560
  104OSM   H10S10586   0.572   4.147   9.345  2.4463  0.5180  1.8982
  104OSM   H10T10587   0.464   4.002   9.377  0.4207 -1.6356 -0.6573
  104OSM   C11S10588   0.649   3.936   9.305  0.2107  0.6059  0.3895
  104OSM   H11S10589   0.628   3.830   9.331 -0.2283  1.0347  1.8526
  104OSM   H11T10590   0.752   3.966   9.337  1.1468 -1.0924 -0.9831
  104OSM   C12S10591   0.637   3.955   9.153 -0.1671 -0.8266 -0.4170
  104OSM   H12S10592   0.659   4.058   9.118  2.2290 -0.3763  2.2354
  104OSM   H12T10593   0.531   3.929   9.136 -0.5035 -1.1245  1.9794
  104OSM   C13S10594   0.734   3.856   9.083 -0.2476 -0.2449 -0.1907
  104OSM   H13S10595   0.731   3.760   9.140 -1.4607 -0.0592  0.0701
  104OSM   H13T10596   0.840   3.886   9.101 -0.0615 -0.6602 -0.5887
  104OSM   C14S10597   0.689   3.847   8.935 -0.3676  0.1235 -0.1988
  104OSM   H14S10598   0.677   3.948   8.891 -2.9966  0.9084  2.1311
  104OSM   H14T10599   0.591   3.795   8.922 -1.0115  1.5493 -1.1329
  104OSM   C15S10600   0.784   3.764   8.846 -0.2743 -0.0551 -0.5161
  104OSM   H15S10601   0.743   3.757   8.743 -1.8171  0.4805  0.0565
  104OSM   H15T10602   0.778   3.666   8.897 -0.3034  0.0641 -0.2912
  104OSM   C16S10603   0.925   3.824   8.833 -0.3963 -0.5243 -0.0141
  104OSM   H16S10604   0.974   3.737   8.785 -1.6615 -1.1092 -0.2781
  104OSM   H16T10605   0.984   3.833   8.927  1.4094 -1.1718 -1.0746
  104OSM   C17S10606   0.930   3.953   8.748 -0.6697  0.1562  0.1633
  104OSM   H17S10607   1.036   3.983   8.737 -0.9677  1.7439  1.4417
  104OSM   H17T10608   0.878   4.036   8.801 -0.8480 -0.0461  0.3051
  104OSM   C18S10609   0.883   3.949   8.603  0.6160 -0.4617  0.6724
  104OSM   H18S10610   0.877   4.053   8.566 -0.5956 -1.7104 -2.8832
  104OSM   H18T10611   0.783   3.902   8.590  0.7611 -0.3952 -0.8367
  104OSM   H18U10612   0.955   3.892   8.540 -0.7903 -0.5057 -0.9489
  104OSM    C1F10613   0.527   4.164  10.307 -0.0988 -1.0780 -0.2117
  104OSM     OF10614   0.608   4.218  10.380  0.5451  0.8182  0.4095
  104OSM    C2F10615   0.390   4.217  10.273  0.9045 -0.6161  0.2456
  104OSM    H2F10616   0.324   4.207  10.361  0.4975  0.6828  0.0989
  104OSM    H2G10617   0.344   4.157  10.191 -0.0304  1.8147 -1.0818
  104OSM    C3F10618   0.395   4.363  10.235  0.1050  0.2686  0.6229
  104OSM    H3F10619   0.435   4.423  10.320  0.2461  1.9579 -0.6156
  104OSM    H3G10620   0.295   4.404  10.211 -0.7803 -1.8574  0.5731
  104OSM    C4F10621   0.498   4.400  10.124  0.9368 -0.0933 -0.6594
  104OSM    H4F10622   0.599   4.356  10.142  1.1707  1.3295  1.6410
  104OSM    H4G10623   0.515   4.509  10.114  1.9975 -0.1117  0.8748
  104OSM    C5F10624   0.451   4.354   9.987 -0.3155 -0.2581  0.7461
  104OSM    H5F10625   0.347   4.388   9.967 -0.3246 -0.1192  1.0296
  104OSM    H5G10626   0.464   4.244   9.979  0.2102 -0.1790  0.5407
  104OSM    C6F10627   0.530   4.427   9.880  0.3756  0.3236 -1.1019
  104OSM    H6F10628   0.633   4.447   9.916 -0.0299  1.7574 -0.6790
  104OSM    H6G10629   0.482   4.526   9.862 -0.4573  0.1813  0.2275
  104OSM    C7F10630   0.533   4.349   9.742  0.1326  0.0296 -0.0173
  104OSM    H7F10631   0.428   4.316   9.727 -0.2476  1.0202  0.4271
  104OSM    H7G10632   0.584   4.252   9.763  0.4922 -0.7981 -4.3232
  104OSM    C8F10633   0.581   4.432   9.617 -0.0022 -0.1673 -0.0609
  104OSM    H8F10634   0.538   4.534   9.616  1.4907  0.5189  1.9964
  104OSM    H8G10635   0.541   4.382   9.526 -1.6267  0.2390  0.4174
  104OSM    C9F10636   0.730   4.439   9.616  0.1148 -0.1401 -0.0151
  104OSM    H9F10637   0.780   4.418   9.712 -0.2227  0.0047  0.1923
  104OSM   C10F10638   0.801   4.466   9.508  0.1025  0.1005  0.0168
  104OSM   H10F10639   0.910   4.460   9.517  0.0754 -0.6806 -0.1386
  104OSM   C11F10640   0.759   4.498   9.363 -0.1685  0.2742  0.0286
  104OSM   H11F10641   0.652   4.472   9.353 -0.5399  0.5287  2.8610
  104OSM   H11G10642   0.827   4.441   9.296 -1.0833 -0.7903 -0.0027
  104OSM   C12F10643   0.782   4.643   9.336 -0.5304 -0.1503 -0.2849
  104OSM   H12F10644   0.891   4.652   9.315 -0.6940  0.9415 -0.6619
  104OSM   H12G10645   0.754   4.716   9.416  0.6562  0.3726 -0.3338
  104OSM   C13F10646   0.726   4.697   9.211 -0.1300 -0.0181  0.2104
  104OSM   H13F10647   0.617   4.705   9.227 -0.0064  2.3218  0.0414
  104OSM   H13G10648   0.734   4.625   9.126 -0.7298  0.8242 -0.5602
  104OSM   C14F10649   0.773   4.843   9.171 -0.3734  0.3339 -0.5336
  104OSM   H14F10650   0.883   4.835   9.169 -0.4808 -1.5248  0.0811
  104OSM   H14G10651   0.744   4.921   9.245  0.8728 -1.4730  1.9270
  104OSM   C15F10652   0.734   4.882   9.023 -0.2697  0.7554 -1.1003
  104OSM   H15F10653   0.627   4.907   9.042  0.3050  3.7272 -1.5361
  104OSM   H15G10654   0.746   4.801   8.949 -2.8623 -0.5936 -0.1181
  104OSM   C16F10655   0.801   5.014   8.962 -0.2504  0.2748 -0.0312
  104OSM   H16F10656   0.906   4.989   8.937 -0.6315  0.4874 -1.9355
  104OSM   H16G10657   0.806   5.088   9.045  0.2753  1.3835 -1.0467
  104OSM   C17F10658   0.710   5.065   8.851  0.0605 -0.7013  0.4882
  104OSM   H17F10659   0.617   5.101   8.900 -0.0611  0.2058 -0.3706
  104OSM   H17G10660   0.700   4.983   8.777 -1.5331 -1.2705  1.3115
  104OSM   C18F10661   0.772   5.187   8.785  0.3297  0.2350  0.7601
  104OSM   H18F10662   0.704   5.247   8.721  1.2252 -0.0852 -0.5050
  104OSM   H18G10663   0.853   5.152   8.718 -0.3164  1.7746 -0.8868
  104OSM   H18H10664   0.821   5.258   8.856 -0.2738  2.4328 -0.9442
  105OSM      N10665   0.334   3.600  10.684 -1.2924  0.3967 -0.6565
  105OSM    C1510666   0.236   3.540  10.591  0.1193  0.0041 -0.3810
  105OSM   H15A10667   0.155   3.504  10.653  2.1015 -1.4098  1.4654
  105OSM   H15B10668   0.273   3.448  10.549  1.1084  0.3594 -0.3116
  105OSM   H15C10669   0.215   3.605  10.508  0.0446  0.4376 -0.0286
  105OSM    C1410670   0.452   3.647  10.599 -0.0868  0.4715  0.2486
  105OSM   H14A10671   0.539   3.661  10.662  1.1020  1.3737 -1.5382
  105OSM   H14B10672   0.432   3.738  10.544 -1.5663 -1.0866 -1.9064
  105OSM   H14C10673   0.478   3.577  10.521  1.8544  0.4663  0.8613
  105OSM    C1310674   0.272   3.721  10.746 -0.9209  0.1566  0.3287
  105OSM   H13A10675   0.181   3.703  10.802 -1.5551  1.3531 -0.2913
  105OSM   H13B10676   0.243   3.781  10.661  0.5279 -0.5571 -0.6968
  105OSM   H13C10677   0.336   3.774  10.815  1.3557  0.9154 -2.2930
  105OSM    C1210678   0.370   3.493  10.788  0.1758  0.2365 -0.0078
  105OSM   H12A10679   0.389   3.406  10.727  0.9379  1.3414 -1.3843
  105OSM   H12B10680   0.285   3.463  10.847 -0.8973  2.0680 -0.6052
  105OSM    C1110681   0.491   3.527  10.881  0.3474  0.5513  0.0019
  105OSM   H11A10682   0.479   3.453  10.963  1.8733  2.4487  2.0007
  105OSM   H11B10683   0.472   3.628  10.924  1.1754  1.3953 -1.5878
  105OSM      P10684   0.697   3.386  10.783 -0.1726 -0.3110 -0.0114
  105OSM    O1310685   0.839   3.399  10.832  0.0732  0.1453  0.1788
  105OSM    O1410686   0.618   3.271  10.830  0.0103  0.3953  0.2520
  105OSM    O1110687   0.699   3.390  10.622 -0.0424  0.4401 -0.2265
  105OSM    O1210688   0.622   3.525  10.813  0.8811 -0.0810 -0.4850
  105OSM    C1S10689   0.789   3.473  10.545 -0.6213  0.3371  0.0559
  105OSM    H1S10690   0.892   3.464  10.587 -0.8142 -1.5197  0.1849
  105OSM    H1T10691   0.757   3.579  10.536 -0.3215  0.4155 -0.1256
  105OSM     NF10692   0.900   3.525  10.335 -0.4004 -0.3851  0.2340
  105OSM    HNF10693   0.870   3.616  10.308 -2.9118 -0.4221  2.6386
  105OSM    C2S10694   0.800   3.440  10.393 -0.2624  0.7376 -1.3757
  105OSM    H2S10695   0.819   3.331  10.386  3.3363  1.2489 -0.7027
  105OSM    C3S10696   0.657   3.456  10.329  0.6631 -0.1360  0.1071
  105OSM    H3S10697   0.637   3.564  10.340  0.9209 -0.0598 -0.1795
  105OSM     O310698   0.551   3.391  10.408  0.0203  0.4991  0.8861
  105OSM    HO310699   0.593   3.380  10.494 -0.4092  2.4080  1.3573
  105OSM    C4S10700   0.659   3.409  10.188 -0.2482 -0.1101  0.5370
  105OSM    H4S10701   0.653   3.496  10.120 -2.9120 -1.5974 -1.2081
  105OSM    C5S10702   0.651   3.291  10.135 -0.3381  0.3579 -0.3425
  105OSM    H5S10703   0.648   3.202  10.200  2.7539  1.3657  1.2959
  105OSM    C6S10704   0.633   3.256   9.990 -0.9287 -0.1073 -0.3947
  105OSM    H6S10705   0.534   3.205   9.983  0.1001 -2.0453 -1.3018
  105OSM    H6T10706   0.706   3.182   9.950 -0.9478 -0.8597  0.9530
  105OSM    C7S10707   0.627   3.376   9.886  0.7090  0.6446 -0.5924
  105OSM    H7S10708   0.699   3.456   9.915 -0.3998  0.7555  2.0542
  105OSM    H7T10709   0.524   3.418   9.896  1.4288  2.0131  1.4038
  105OSM    C8S10710   0.639   3.325   9.745 -0.2372 -0.1543  0.4465
  105OSM    H8S10711   0.550   3.262   9.721 -0.7857  1.1086 -0.9665
  105OSM    H8T10712   0.731   3.263   9.737 -0.6161 -0.7696  0.8032
  105OSM    C9S10713   0.636   3.437   9.635 -0.6812  0.6299 -0.3678
  105OSM    H9S10714   0.743   3.468   9.639 -0.6424  0.5674 -0.8499
  105OSM    H9T10715   0.568   3.514   9.678  1.2386  0.5031  3.0995
  105OSM   C10S10716   0.602   3.401   9.496 -0.5465 -0.2300 -0.0467
  105OSM   H10S10717   0.491   3.399   9.489 -0.5394 -1.0596  0.0479
  105OSM   H10T10718   0.643   3.299   9.483 -1.3982 -0.5138 -0.5622
  105OSM   C11S10719   0.662   3.492   9.386 -0.0620  0.1563  0.2442
  105OSM   H11S10720   0.773   3.480   9.388 -0.0045  0.7327  0.6135
  105OSM   H11T10721   0.644   3.599   9.410 -1.1566  0.1299 -0.3963
  105OSM   C12S10722   0.616   3.462   9.240  0.0111  0.0628  0.2179
  105OSM   H12S10723   0.619   3.352   9.226 -2.5363 -0.1479  1.1206
  105OSM   H12T10724   0.692   3.517   9.181  0.2652  0.0207  0.5075
  105OSM   C13S10725   0.486   3.511   9.194  0.0630 -0.2215  0.2492
  105OSM   H13S10726   0.495   3.622   9.199 -0.6680 -0.0537 -1.8780
  105OSM   H13T10727   0.406   3.476   9.263  0.3066  1.2897  1.3322
  105OSM   C14S10728   0.454   3.468   9.052  0.2859 -0.0400  0.1738
  105OSM   H14S10729   0.457   3.357   9.059  1.2813  0.0549  1.4218
  105OSM   H14T10730   0.540   3.503   8.991  0.9086 -0.0312  1.0545
  105OSM   C15S10731   0.313   3.517   8.995  0.2971 -0.0656 -0.1802
  105OSM   H15S10732   0.302   3.624   9.022 -3.3410 -1.0180  2.6049
  105OSM   H15T10733   0.236   3.458   9.050  0.2498 -0.0153 -0.1912
  105OSM   C16S10734   0.292   3.498   8.842  0.0657  0.1391 -0.4453
  105OSM   H16S10735   0.383   3.532   8.789  0.4067 -0.4338 -0.2254
  105OSM   H16T10736   0.204   3.561   8.816 -0.7360 -0.6090  0.4188
  105OSM   C17S10737   0.255   3.354   8.803  0.2494  0.8432  0.0220
  105OSM   H17S10738   0.158   3.332   8.853 -0.4479 -0.0344 -1.6769
  105OSM   H17T10739   0.330   3.278   8.831 -0.3948  0.6199  1.1518
  105OSM   C18S10740   0.241   3.341   8.652 -0.0178  0.1150  0.3048
  105OSM   H18S10741   0.183   3.248   8.629  2.7297 -0.9910 -2.4357
  105OSM   H18T10742   0.335   3.321   8.598 -1.1054  1.7521 -2.2921
  105OSM   H18U10743   0.180   3.419   8.601  1.1751  0.7723 -0.1338
  105OSM    C1F10744   1.032   3.487  10.330 -0.2840 -0.3040 -0.1809
  105OSM     OF10745   1.070   3.379  10.379  0.5650  0.4247  0.1251
  105OSM    C2F10746   1.124   3.583  10.264 -0.4627  0.2698 -0.1207
  105OSM    H2F10747   1.186   3.624  10.346 -1.2791  0.6870  0.2879
  105OSM    H2G10748   1.065   3.666  10.219 -0.4332  0.7050  0.6348
  105OSM    C3F10749   1.224   3.526  10.159  0.2969 -0.0949  0.1523
  105OSM    H3F10750   1.156   3.486  10.081 -1.3832  0.6342  1.2057
  105OSM    H3G10751   1.295   3.448  10.193 -0.5979 -0.9620  0.0605
  105OSM    C4F10752   1.312   3.638  10.092  0.2477 -0.5147 -0.3154
  105OSM    H4F10753   1.356   3.702  10.171 -0.3276  2.8333 -2.6198
  105OSM    H4G10754   1.258   3.703  10.020  1.5945  1.5114  0.4772
  105OSM    C5F10755   1.426   3.590   9.999 -0.1355 -0.9834  0.0363
  105OSM    H5F10756   1.483   3.527  10.071  0.0278 -1.2512 -0.3244
  105OSM    H5G10757   1.474   3.684   9.964 -1.5502  0.1382  1.0562
  105OSM    C6F10758   1.373   3.522   9.870 -0.7781  0.1497 -0.6259
  105OSM    H6F10759   1.303   3.596   9.826 -1.5016  0.3288  0.7762
  105OSM    H6G10760   1.324   3.430   9.908  0.3418 -0.3329 -0.3069
  105OSM    C7F10761   1.494   3.492   9.786  0.1932  0.1942  0.3245
  105OSM    H7F10762   1.563   3.419   9.833 -1.9022 -0.8086  1.9549
  105OSM    H7G10763   1.544   3.591   9.774 -2.2492  1.5262  0.6847
  105OSM    C8F10764   1.472   3.438   9.642  0.6991 -0.7294  0.4292
  105OSM    H8F10765   1.448   3.330   9.643  0.6860 -0.7205  1.2629
  105OSM    H8G10766   1.578   3.440   9.608  0.7173 -2.3800  0.3574
  105OSM    C9F10767   1.377   3.522   9.559 -0.1964 -0.5266  0.0796
  105OSM    H9F10768   1.269   3.502   9.568 -0.4346 -0.0060 -1.5223
  105OSM   C10F10769   1.412   3.612   9.471 -0.1078 -0.2830  0.1068
  105OSM   H10F10770   1.332   3.658   9.410 -0.1161  0.9672  1.0421
  105OSM   C11F10771   1.548   3.656   9.429  0.5762 -0.2915 -0.6602
  105OSM   H11F10772   1.620   3.631   9.510  1.4513  2.3857 -0.5392
  105OSM   H11G10773   1.556   3.766   9.416  1.0427 -0.6409 -3.7103
  105OSM   C12F10774   1.607   3.582   9.310 -0.5021  0.5747 -0.4414
  105OSM   H12F10775   1.621   3.477   9.342 -1.0024  0.4159 -0.7335
  105OSM   H12G10776   1.702   3.632   9.281  0.0155 -1.2508 -1.9234
  105OSM   C13F10777   1.508   3.579   9.193 -0.6834 -0.0466  0.4702
  105OSM   H13F10778   1.423   3.644   9.223 -1.5099 -1.0307  0.2784
  105OSM   H13G10779   1.473   3.474   9.183  0.0478  0.0587 -4.0997
  105OSM   C14F10780   1.569   3.623   9.064  0.4644  0.8883  0.2425
  105OSM   H14F10781   1.650   3.548   9.049 -1.9715 -1.5902 -0.9494
  105OSM   H14G10782   1.614   3.724   9.076  0.7246  0.8865 -0.6794
  105OSM   C15F10783   1.485   3.593   8.941  0.6721  0.5535  0.5055
  105OSM   H15F10784   1.415   3.677   8.924 -0.9697 -1.1913 -1.7091
  105OSM   H15G10785   1.429   3.497   8.948 -0.0900  0.6671 -3.0723
  105OSM   C16F10786   1.563   3.585   8.807  0.2311 -0.7339  0.4142
  105OSM   H16F10787   1.625   3.677   8.797 -2.5056  1.4622  2.6515
  105OSM   H16G10788   1.482   3.601   8.732 -0.6349 -0.1426  1.4759
  105OSM   C17F10789   1.638   3.456   8.786  0.4898 -0.8580  0.5296
  105OSM   H17F10790   1.565   3.380   8.820 -0.2174 -0.1880  0.5172
  105OSM   H17G10791   1.718   3.444   8.863  1.4562 -0.3423 -0.3749
  105OSM   C18F10792   1.683   3.426   8.642  0.1216 -0.0790 -0.3191
  105OSM   H18F10793   1.762   3.347   8.643  0.9176  0.7023 -0.3323
  105OSM   H18G10794   1.738   3.517   8.608  1.1338  0.0160  1.5116
  105OSM   H18H10795   1.598   3.412   8.572 -1.1902 -1.4009  1.5003
  106OSM      N10796   2.173   1.520  10.907  0.4171  0.3436 -0.8106
  106OSM    C1510797   2.202   1.377  10.944 -0.6129 -0.2195  0.3054
  106OSM   H15A10798   2.290   1.351  10.887  0.3668  2.0863  0.7164
  106OSM   H15B10799   2.123   1.306  10.923 -1.2441  0.5267  0.1279
  106OSM   H15C10800   2.221   1.372  11.050  2.2172  2.1870 -0.0314
  106OSM    C1410801   2.044   1.561  10.973 -0.7597  0.4592 -0.3786
  106OSM   H14A10802   2.014   1.665  10.962  1.9469  1.4423  1.1127
  106OSM   H14B10803   2.042   1.543  11.079  1.1242  1.7604 -0.0803
  106OSM   H14C10804   1.960   1.509  10.930 -1.2191  0.3865  0.6090
  106OSM    C1310805   2.279   1.601  10.970  0.2999 -0.2229 -0.3117
  106OSM   H13A10806   2.257   1.707  10.965 -1.3743 -0.5361  0.2006
  106OSM   H13B10807   2.365   1.575  10.909 -0.0022  0.5081 -1.0528
  106OSM   H13C10808   2.294   1.570  11.073  2.0866  0.0631 -0.4609
  106OSM    C1210809   2.160   1.534  10.763  0.0084 -0.6673 -0.2141
  106OSM   H12A10810   2.120   1.631  10.737 -1.0720 -0.7663  1.0006
  106OSM   H12B10811   2.083   1.463  10.735 -1.7415  0.7652  0.8769
  106OSM    C1110812   2.288   1.514  10.670  0.3342 -0.4304 -0.0907
  106OSM   H11A10813   2.349   1.602  10.698 -1.4583  0.5082  0.9153
  106OSM   H11B10814   2.270   1.543  10.564 -0.4350  0.4096  0.2633
  106OSM      P10815   2.301   1.270  10.608 -0.3283  0.2703  0.0952
  106OSM    O1310816   2.379   1.263  10.484 -0.0834 -0.2704  0.3418
  106OSM    O1410817   2.299   1.152  10.700  0.1306  0.0925 -0.5927
  106OSM    O1110818   2.154   1.308  10.567  0.5205 -0.0770 -0.4070
  106OSM    O1210819   2.349   1.393  10.690 -0.1335  0.1026  0.1702
  106OSM    C1S10820   2.128   1.370  10.435  0.4478 -0.8950 -0.4092
  106OSM    H1S10821   2.220   1.385  10.374  0.1500 -2.0865 -1.1772
  106OSM    H1T10822   2.076   1.468  10.446  2.1742 -0.0598  0.5046
  106OSM     NF10823   2.007   1.355  10.216 -1.1214 -0.1412 -0.1163
  106OSM    HNF10824   1.923   1.403  10.191 -0.2686  1.1874 -0.5351
  106OSM    C2S10825   2.015   1.299  10.348 -0.1916  0.2999 -0.4352
  106OSM    H2S10826   2.043   1.194  10.327  0.3367  0.3904 -0.1968
  106OSM    C3S10827   1.883   1.301  10.429  0.3118  0.0842  0.0922
  106OSM    H3S10828   1.860   1.407  10.453 -1.7349 -0.3839  0.2404
  106OSM     O310829   1.901   1.245  10.561  0.0144  0.3085  0.6645
  106OSM    HO310830   1.996   1.252  10.565 -0.0051  1.7304 -0.6295
  106OSM    C4S10831   1.770   1.233  10.356  0.4933  0.4315 -0.0956
  106OSM    H4S10832   1.734   1.292  10.271 -1.4559  0.8257  0.9606
  106OSM    C5S10833   1.705   1.117  10.380 -0.0159 -0.1011 -0.4904
  106OSM    H5S10834   1.753   1.062  10.462  0.1183  0.8487  0.0736
  106OSM    C6S10835   1.590   1.048  10.307  0.2174  0.1985 -0.4034
  106OSM    H6S10836   1.502   1.051  10.375 -0.9613 -0.6223 -1.8567
  106OSM    H6T10837   1.604   0.938  10.297 -0.7318 -0.4216  3.9346
  106OSM    C7S10838   1.548   1.101  10.165  0.6057  0.3112  0.9201
  106OSM    H7S10839   1.519   1.208  10.155  1.2821  0.2896 -1.7920
  106OSM    H7T10840   1.452   1.051  10.138  0.4511  1.5774 -0.9781
  106OSM    C8S10841   1.654   1.078  10.063 -0.5501  0.5071  0.0800
  106OSM    H8S10842   1.668   0.971  10.035  0.4512  0.7111 -0.2385
  106OSM    H8T10843   1.753   1.117  10.096 -0.3549 -1.1020  1.5088
  106OSM    C9S10844   1.609   1.150   9.930  0.2480 -0.0901  0.1037
  106OSM    H9S10845   1.641   1.257   9.929  0.9062 -0.3013 -1.0194
  106OSM    H9T10846   1.499   1.133   9.926  0.5387 -1.7880 -1.1576
  106OSM   C10S10847   1.655   1.096   9.790 -0.4060 -0.2867 -0.5543
  106OSM   H10S10848   1.765   1.110   9.794 -0.5840  0.6895  2.5675
  106OSM   H10T10849   1.614   1.158   9.708 -0.5930 -0.9052 -0.9312
  106OSM   C11S10850   1.607   0.954   9.772 -0.1112  0.5796 -0.2119
  106OSM   H11S10851   1.501   0.950   9.806  0.4491  0.4289  1.5609
  106OSM   H11T10852   1.669   0.882   9.830  0.4591  0.1780 -1.3100
  106OSM   C12S10853   1.602   0.904   9.629 -0.3367  0.1080 -1.1014
  106OSM   H12S10854   1.594   0.794   9.624 -2.3981  0.1720  0.0738
  106OSM   H12T10855   1.695   0.934   9.577  0.0827 -1.3876 -1.2260
  106OSM   C13S10856   1.481   0.966   9.553 -0.3027  0.3005  0.1061
  106OSM   H13S10857   1.488   1.077   9.549  2.2681  0.1837  0.1434
  106OSM   H13T10858   1.384   0.942   9.601 -0.9142  0.4633 -1.0406
  106OSM   C14S10859   1.474   0.912   9.412  0.3929  0.1621  0.7261
  106OSM   H14S10860   1.468   0.801   9.416  1.0146  0.1781  2.4476
  106OSM   H14T10861   1.555   0.941   9.342  0.7133  2.0514  1.8329
  106OSM   C15S10862   1.340   0.961   9.349 -0.5982  0.8429  0.4695
  106OSM   H15S10863   1.356   1.071   9.347  2.8672  0.4067  0.7443
  106OSM   H15T10864   1.264   0.932   9.425  1.9512 -2.1054  2.0055
  106OSM   C16S10865   1.315   0.891   9.220 -0.7649  0.2883  0.3741
  106OSM   H16S10866   1.309   0.780   9.225  0.8960  0.0743 -1.5554
  106OSM   H16T10867   1.398   0.922   9.153  0.8091  0.0200  2.1306
  106OSM   C17S10868   1.191   0.943   9.149  0.1225 -0.1005 -0.0119
  106OSM   H17S10869   1.202   1.052   9.133  0.2265 -0.3390 -1.6270
  106OSM   H17T10870   1.106   0.927   9.218  0.2852 -0.8182  0.0289
  106OSM   C18S10871   1.166   0.869   9.019 -0.5448 -0.1213  0.3585
  106OSM   H18S10872   1.257   0.880   8.957 -1.0118  1.4674 -0.0690
  106OSM   H18T10873   1.086   0.923   8.963  2.6751  2.7312 -1.6861
  106OSM   H18U10874   1.149   0.760   9.032  0.9020 -0.2929  0.8533
  106OSM    C1F10875   2.108   1.347  10.131 -0.0780 -0.4395 -0.7816
  106OSM     OF10876   2.214   1.299  10.159  0.0834  0.3742 -0.2468
  106OSM    C2F10877   2.081   1.405   9.995  0.4052 -0.3421  0.1311
  106OSM    H2F10878   2.095   1.513  10.016  3.0282 -0.5776 -0.3012
  106OSM    H2G10879   1.976   1.375   9.971 -0.3144  3.1566 -1.4577
  106OSM    C3F10880   2.173   1.351   9.890 -0.3025  0.0598  0.0812
  106OSM    H3F10881   2.162   1.240   9.887 -1.6647  0.1564  0.9400
  106OSM    H3G10882   2.278   1.374   9.919 -0.2475 -1.0189  0.7850
  106OSM    C4F10883   2.145   1.399   9.744 -0.1235  0.5800 -0.6675
  106OSM    H4F10884   2.137   1.509   9.759  0.9455  0.7368 -1.2063
  106OSM    H4G10885   2.050   1.350   9.715 -0.8419  0.6011  1.6070
  106OSM    C5F10886   2.251   1.368   9.640  0.4363  0.3304 -0.3693
  106OSM    H5F10887   2.272   1.260   9.653  0.5457  0.3573 -0.3169
  106OSM    H5G10888   2.338   1.433   9.662  0.3134  0.5553 -0.5452
  106OSM    C6F10889   2.189   1.396   9.504  0.1654 -0.0998 -0.2175
  106OSM    H6F10890   2.187   1.506   9.489  1.3729  0.3577  2.6214
  106OSM    H6G10891   2.086   1.353   9.508  0.0194  0.2042 -0.6824
  106OSM    C7F10892   2.268   1.330   9.390  0.6871 -0.2745  0.7631
  106OSM    H7F10893   2.277   1.225   9.424 -1.0605 -1.0357 -1.0171
  106OSM    H7G10894   2.368   1.377   9.379  1.0991 -1.0485  1.2153
  106OSM    C8F10895   2.186   1.346   9.253  0.1757 -0.3114 -0.0810
  106OSM    H8F10896   2.078   1.344   9.279  0.3412 -0.1100  0.6337
  106OSM    H8G10897   2.197   1.255   9.191  1.7051  0.2012 -0.5723
  106OSM    C9F10898   2.226   1.472   9.181  0.2396 -0.4661  0.6949
  106OSM    H9F10899   2.247   1.561   9.241 -0.5166 -0.3902  0.8610
  106OSM   C10F10900   2.233   1.486   9.048 -0.1459  0.1944  0.0752
  106OSM   H10F10901   2.279   1.577   9.007  0.1935 -0.4396 -0.9738
  106OSM   C11F10902   2.202   1.377   8.945  0.2704  0.0067  0.4177
  106OSM   H11F10903   2.108   1.403   8.891 -0.0716 -1.1729  0.4379
  106OSM   H11G10904   2.175   1.279   8.990 -1.1841  0.5164  0.6591
  106OSM   C12F10905   2.321   1.362   8.846 -0.2742  0.0285 -1.1552
  106OSM   H12F10906   2.382   1.277   8.882  0.7163  1.1195 -0.2317
  106OSM   H12G10907   2.378   1.457   8.842  0.9304 -0.6739 -0.8779
  106OSM   C13F10908   2.294   1.356   8.693 -0.5468 -0.1298 -0.1344
  106OSM   H13F10909   2.220   1.435   8.669  0.9161  1.4443  0.4897
  106OSM   H13G10910   2.244   1.263   8.658  0.4121 -0.1078 -1.5852
  106OSM   C14F10911   2.413   1.382   8.609  0.3085 -0.1845 -0.3722
  106OSM   H14F10912   2.497   1.310   8.616  1.4139  1.0468 -0.7428
  106OSM   H14G10913   2.457   1.479   8.643  0.0436  0.5365 -2.0068
  106OSM   C15F10914   2.380   1.424   8.462 -0.0211 -0.5148  0.4156
  106OSM   H15F10915   2.476   1.450   8.411 -0.3302 -0.6358 -0.2354
  106OSM   H15G10916   2.322   1.517   8.480  1.3384  0.7993 -1.8145
  106OSM   C16F10917   2.308   1.317   8.385  0.0987  0.6883  0.3415
  106OSM   H16F10918   2.281   1.365   8.288  0.0623  0.7147  0.3661
  106OSM   H16G10919   2.220   1.273   8.437 -0.7926 -0.5460 -2.1095
  106OSM   C17F10920   2.402   1.193   8.356 -0.3485 -0.5183 -0.8944
  106OSM   H17F10921   2.417   1.157   8.461 -2.0075  3.0922  0.6735
  106OSM   H17G10922   2.501   1.230   8.321  0.1609  0.6604  1.6638
  106OSM   C18F10923   2.358   1.090   8.255  0.5794 -0.3648  0.5119
  106OSM   H18F10924   2.324   1.157   8.174  2.7399 -0.4670 -0.5245
  106OSM   H18G10925   2.275   1.025   8.289  0.0959  0.9334  1.8605
  106OSM   H18H10926   2.436   1.019   8.220 -0.6045 -1.5201  0.1928
  107OSM      N10927   2.168   6.187  11.027 -0.7175  0.6735 -0.1809
  107OSM    C1510928   2.169   6.267  11.152 -0.3109  0.2120  0.2795
  107OSM   H15A10929   2.225   6.217  11.229  1.4277 -1.3004 -1.9244
  107OSM   H15B10930   2.076   6.289  11.203 -0.4156  0.0420  0.1645
  107OSM   H15C10931   2.211   6.366  11.141  0.6474 -0.2025  0.1584
  107OSM    C1410932   2.122   6.046  11.073 -1.0375  0.0965 -0.5084
  107OSM   H14A10933   2.030   6.040  11.130  0.3281 -0.3895  1.6773
  107OSM   H14B10934   2.192   6.002  11.143 -0.1345  0.7476 -0.9929
  107OSM   H14C10935   2.124   5.981  10.986  1.3153 -1.0437  0.3700
  107OSM    C1310936   2.066   6.244  10.935 -0.8519  0.6186  1.0015
  107OSM   H13A10937   2.058   6.178  10.850  3.0337  0.3701  0.7379
  107OSM   H13B10938   2.100   6.336  10.888  0.9300  0.1023  1.2392
  107OSM   H13C10939   1.979   6.270  10.992 -0.8598 -0.1178  1.3200
  107OSM    C1210940   2.311   6.183  10.974  0.1237 -0.2926 -0.1963
  107OSM   H12A10941   2.392   6.173  11.045  1.0932 -1.7061 -1.4557
  107OSM   H12B10942   2.327   6.283  10.938 -0.5109 -0.7209 -1.7511
  107OSM    C1110943   2.334   6.084  10.863  0.2124 -0.4243 -0.1726
  107OSM   H11A10944   2.435   6.100  10.820  0.3222  2.0240  0.9468
  107OSM   H11B10945   2.263   6.093  10.778  0.0393  1.9899  0.1979
  107OSM      P10946   2.446   5.875  10.985 -0.3472  0.5030  0.5357
  107OSM    O1310947   2.481   5.951  11.103  0.0864 -0.1970  0.5225
  107OSM    O1410948   2.401   5.736  11.004  0.7584 -0.1044  0.0243
  107OSM    O1110949   2.557   5.877  10.872  0.4659  0.3303 -0.2927
  107OSM    O1210950   2.332   5.949  10.907  0.2928 -0.1004 -0.7209
  107OSM    C1S10951   2.545   5.800  10.750 -0.0664  0.2183  0.4442
  107OSM    H1S10952   2.461   5.727  10.748  0.0695  0.0598  0.5829
  107OSM    H1T10953   2.633   5.734  10.739  1.3502  1.7632  2.2616
  107OSM     NF10954   2.529   5.801  10.505  0.3020  0.6615 -0.5113
  107OSM    HNF10955   2.616   5.756  10.486  0.5621  1.6872 -1.8250
  107OSM    C2S10956   2.546   5.884  10.620 -0.1499 -0.3036  0.4299
  107OSM    H2S10957   2.464   5.959  10.618  1.3791  1.4390  1.8500
  107OSM    C3S10958   2.684   5.970  10.620  0.4692 -0.4647  0.1362
  107OSM    H3S10959   2.775   5.907  10.620  0.6251 -0.2384  0.0281
  107OSM     O310960   2.699   6.050  10.736 -0.5145 -0.0489 -0.2922
  107OSM    HO310961   2.639   6.009  10.799 -1.2277 -0.2343 -1.0790
  107OSM    C4S10962   2.694   6.044  10.494  0.5397  1.0879 -0.4128
  107OSM    H4S10963   2.617   6.120  10.471  1.1481  1.0236 -2.7634
  107OSM    C5S10964   2.772   6.003  10.389 -0.1391  0.3414  0.3495
  107OSM    H5S10965   2.823   5.906  10.393 -0.7357 -0.0369 -1.0046
  107OSM    C6S10966   2.773   6.076  10.255  0.1860 -0.2653  0.1945
  107OSM    H6S10967   2.876   6.111  10.232 -0.2810 -1.0110 -3.3363
  107OSM    H6T10968   2.711   6.168  10.246  0.7213  0.4415  3.0884
  107OSM    C7S10969   2.731   5.976  10.145  0.7806  0.0423 -1.1522
  107OSM    H7S10970   2.630   5.930  10.160  0.7808  1.3630  3.5457
  107OSM    H7T10971   2.793   5.884  10.145  0.4422 -0.1871 -1.0264
  107OSM    C8S10972   2.739   6.024  10.000  0.4371 -0.5056  0.2848
  107OSM    H8S10973   2.834   6.075   9.975 -0.4670  1.7361  1.3332
  107OSM    H8T10974   2.664   6.097   9.965 -0.1574 -1.0700  0.3724
  107OSM    C9S10975   2.723   5.897   9.909 -0.0481 -0.2324  0.7768
  107OSM    H9S10976   2.625   5.852   9.937  0.1505 -1.1515  0.0163
  107OSM    H9T10977   2.803   5.828   9.945  1.3867  0.8700 -0.2345
  107OSM   C10S10978   2.741   5.933   9.765 -0.2913  0.0697  0.0419
  107OSM   H10S10979   2.841   5.979   9.751 -1.5203  2.4745 -1.1448
  107OSM   H10T10980   2.664   6.011   9.744  0.4562  1.6670  2.9070
  107OSM   C11S10981   2.727   5.807   9.680 -0.0129 -0.8558 -0.2662
  107OSM   H11S10982   2.624   5.770   9.695  1.1299 -2.9994  2.8635
  107OSM   H11T10983   2.803   5.731   9.711  1.2391  0.8575  0.9241
  107OSM   C12S10984   2.745   5.837   9.536 -0.0508 -0.0452  0.1022
  107OSM   H12S10985   2.847   5.873   9.513  0.4272 -0.6334  1.2759
  107OSM   H12T10986   2.678   5.921   9.508  0.1347  0.1458  0.2384
  107OSM   C13S10987   2.716   5.719   9.449  0.6198  0.6017 -0.0906
  107OSM   H13S10988   2.605   5.710   9.446  0.3627  3.2288 -0.1222
  107OSM   H13T10989   2.754   5.619   9.479 -1.2280 -0.5745 -1.5469
  107OSM   C14S10990   2.757   5.749   9.303 -0.0117  0.2929  0.0834
  107OSM   H14S10991   2.860   5.707   9.294 -1.0975 -2.6946  0.7878
  107OSM   H14T10992   2.768   5.857   9.279 -1.1333  0.0936 -1.3709
  107OSM   C15S10993   2.671   5.677   9.202 -0.1134  0.1212 -0.8465
  107OSM   H15S10994   2.733   5.675   9.111  0.0246 -0.9710 -0.7361
  107OSM   H15T10995   2.575   5.731   9.186 -0.4790 -0.5015 -0.7709
  107OSM   C16S10996   2.649   5.535   9.246 -0.9400  0.0642  0.4191
  107OSM   H16S10997   2.579   5.508   9.328  1.4447 -0.6514  2.2880
  107OSM   H16T10998   2.744   5.505   9.296 -1.0069 -1.3084 -0.2524
  107OSM   C17S10999   2.637   5.433   9.129  0.1774 -0.7217 -0.4310
  107OSM   H17S11000   2.623   5.336   9.182 -0.5894  0.1758  1.0657
  107OSM   H17T11001   2.733   5.423   9.075  1.4229 -0.1753  1.5979
  107OSM   C18S11002   2.528   5.474   9.022 -1.0871  0.4424 -0.5154
  107OSM   H18S11003   2.522   5.580   8.990 -0.3542 -0.3562 -3.3614
  107OSM   H18T11004   2.430   5.451   9.070 -1.0396  0.6814 -0.3001
  107OSM   H18U11005   2.544   5.416   8.929  1.0512 -1.3728  0.9244
  107OSM    C1F11006   2.405   5.758  10.468 -0.8801 -0.2135  0.4133
  107OSM     OF11007   2.304   5.804  10.516  0.4179 -0.0764 -0.3792
  107OSM    C2F11008   2.403   5.668  10.351 -0.1925 -0.1872 -0.8641
  107OSM    H2F11009   2.479   5.589  10.369 -1.7800 -0.9247  2.9901
  107OSM    H2G11010   2.414   5.727  10.258 -0.8563  0.5590 -0.4748
  107OSM    C3F11011   2.264   5.585  10.334  0.0761  1.1137 -0.3691
  107OSM    H3F11012   2.171   5.640  10.309  0.2366  1.0918 -1.0140
  107OSM    H3G11013   2.252   5.538  10.434  0.8954  0.4283 -0.5854
  107OSM    C4F11014   2.274   5.479  10.220  0.3958  0.1783 -0.0556
  107OSM    H4F11015   2.174   5.441  10.189  0.7106 -1.3752  0.7911
  107OSM    H4G11016   2.321   5.388  10.264  1.8882 -0.3249 -2.5626
  107OSM    C5F11017   2.348   5.531  10.096 -0.3640  0.2545 -0.3110
  107OSM    H5F11018   2.454   5.548  10.125 -0.4718  1.4134 -0.5696
  107OSM    H5G11019   2.302   5.624  10.055 -0.8535 -0.1522 -0.6933
  107OSM    C6F11020   2.347   5.425   9.976  0.1745 -0.2960  0.5206
  107OSM    H6F11021   2.405   5.478   9.898 -0.8326  0.4234  0.2517
  107OSM    H6G11022   2.244   5.404   9.941 -0.0321  1.2916  0.1089
  107OSM    C7F11023   2.410   5.284  10.012  0.3319  0.4828 -0.2626
  107OSM    H7F11024   2.345   5.235  10.087 -0.9435  1.3644 -0.7927
  107OSM    H7G11025   2.506   5.305  10.064  1.1944 -2.2901 -0.6426
  107OSM    C8F11026   2.443   5.194   9.896 -0.0039  0.4407 -0.7200
  107OSM    H8F11027   2.346   5.161   9.855  0.4256 -0.5912 -0.9309
  107OSM    H8G11028   2.489   5.099   9.931 -3.0975 -1.8666 -2.6488
  107OSM    C9F11029   2.539   5.261   9.803  0.2322 -0.3948  0.3934
  107OSM    H9F11030   2.644   5.269   9.837  1.3354 -0.6004 -2.7894
  107OSM   C10F11031   2.511   5.316   9.686 -0.5699  0.7261 -0.5081
  107OSM   H10F11032   2.590   5.356   9.620 -0.2681 -0.6004 -0.9711
  107OSM   C11F11033   2.375   5.307   9.616  0.1979 -0.2447 -0.4392
  107OSM   H11F11034   2.350   5.409   9.579  2.1358  0.1953 -0.5937
  107OSM   H11G11035   2.295   5.288   9.690  1.9231 -0.0644  1.5042
  107OSM   C12F11036   2.360   5.208   9.495  0.2176 -0.5896  0.4243
  107OSM   H12F11037   2.254   5.197   9.464  0.4778 -0.9831 -0.3358
  107OSM   H12G11038   2.389   5.108   9.531 -2.6579 -1.5195  0.2685
  107OSM   C13F11039   2.445   5.250   9.372  0.7648  0.3409  0.3693
  107OSM   H13F11040   2.553   5.258   9.397  1.1665  0.3807 -1.3264
  107OSM   H13G11041   2.412   5.352   9.343 -1.5389 -1.3690 -3.2466
  107OSM   C14F11042   2.423   5.148   9.258 -0.0839 -0.4546  0.3663
  107OSM   H14F11043   2.464   5.046   9.280  1.9542  0.2890  0.1610
  107OSM   H14G11044   2.470   5.185   9.165 -0.2282 -1.7150 -0.2206
  107OSM   C15F11045   2.277   5.141   9.214  0.0944  0.2561  0.4685
  107OSM   H15F11046   2.245   5.245   9.191  1.3403  0.9395  1.7679
  107OSM   H15G11047   2.213   5.089   9.288 -1.8877  1.1516 -0.5420
  107OSM   C16F11048   2.262   5.064   9.085  0.7547  0.6615  1.0658
  107OSM   H16F11049   2.263   4.957   9.113  0.0179  0.4065  0.1183
  107OSM   H16G11050   2.345   5.092   9.017 -0.3698 -0.4914 -0.8285
  107OSM   C17F11051   2.123   5.081   9.011  0.0952 -0.5642  0.6671
  107OSM   H17F11052   2.110   5.188   8.986 -2.1809 -0.1825  3.1485
  107OSM   H17G11053   2.049   5.055   9.090 -0.1194 -0.8616  0.3691
  107OSM   C18F11054   2.105   4.990   8.888 -1.0316  0.3305  0.5958
  107OSM   H18F11055   2.109   4.883   8.918 -0.5732 -1.0220 -3.9191
  107OSM   H18G11056   2.190   5.014   8.821 -0.6507 -0.5528  0.7455
  107OSM   H18H11057   2.012   5.012   8.833 -0.4141  1.4362 -0.0116
  108OSM      N11058   6.643   3.316  11.317 -0.5388 -0.2574 -0.3102
  108OSM    C1511059   6.707   3.226  11.422 -0.0255  1.3205 -0.1898
  108OSM   H15A11060   6.808   3.195  11.401 -0.2234  1.4916 -1.3883
  108OSM   H15B11061   6.650   3.134  11.433  3.7086 -0.8287  2.3727
  108OSM   H15C11062   6.700   3.268  11.521 -1.0171 -1.5950  1.0468
  108OSM    C1411063   6.508   3.350  11.368 -0.0244 -0.0526  1.1330
  108OSM   H14A11064   6.514   3.420  11.450  1.1348 -1.2221  2.0708
  108OSM   H14B11065   6.449   3.262  11.389 -1.1780  0.5921  0.6800
  108OSM   H14C11066   6.459   3.404  11.288  1.9889  0.9693  0.5449
  108OSM    C1311067   6.735   3.441  11.306 -0.2420  0.0993  0.8672
  108OSM   H13A11068   6.726   3.500  11.396  0.1638 -0.0913  1.0313
  108OSM   H13B11069   6.701   3.516  11.236 -1.7114 -1.1130  0.2549
  108OSM   H13C11070   6.841   3.423  11.297 -0.5841 -1.6538  0.2919
  108OSM    C1211071   6.627   3.243  11.185 -0.1593  0.5685 -0.5759
  108OSM   H12A11072   6.546   3.172  11.182 -0.2534  0.7087 -1.3741
  108OSM   H12B11073   6.716   3.185  11.168 -1.0257 -1.2006  0.7641
  108OSM    C1111074   6.602   3.319  11.052  0.2145 -0.0399  0.1022
  108OSM   H11A11075   6.515   3.388  11.058  0.0234 -0.3203  0.5704
  108OSM   H11B11076   6.574   3.241  10.978 -1.0895 -0.7294  1.3194
  108OSM      P11077   6.851   3.330  10.959 -0.1883  0.0213 -0.2784
  108OSM    O1311078   6.963   3.416  11.005  0.0689 -0.5679  0.4278
  108OSM    O1411079   6.853   3.187  10.996 -0.3367  0.0225  0.5843
  108OSM    O1111080   6.840   3.324  10.802 -0.1776 -0.4669  0.4224
  108OSM    O1211081   6.711   3.392  11.004 -0.3803  0.2381 -0.6496
  108OSM    C1S11082   6.730   3.358  10.722  0.3466  0.7245 -0.1179
  108OSM    H1S11083   6.726   3.467  10.703  2.1495  0.1976 -3.9762
  108OSM    H1T11084   6.633   3.327  10.768  0.6103 -2.5101 -1.6110
  108OSM     NF11085   6.628   3.365  10.500 -0.7416 -0.1321 -0.3501
  108OSM    HNF11086   6.538   3.322  10.488 -0.5179 -0.3397 -1.3550
  108OSM    C2S11087   6.733   3.307  10.580 -0.0559  0.3834  0.8810
  108OSM    H2S11088   6.829   3.336  10.532  0.2036 -0.7068  0.7138
  108OSM    C3S11089   6.744   3.146  10.582 -0.5485 -0.0542 -0.6993
  108OSM    H3S11090   6.646   3.114  10.625 -0.7167  0.7087 -0.4964
  108OSM     O311091   6.846   3.086  10.661 -0.7585  0.1866  0.0220
  108OSM    HO311092   6.865   3.163  10.715  0.7239  0.4548 -0.8784
  108OSM    C4S11093   6.747   3.086  10.442  0.0731 -0.3749 -0.2667
  108OSM    H4S11094   6.646   3.060  10.410  0.9065 -1.4401 -2.1205
  108OSM    C5S11095   6.854   3.066  10.364  0.7175 -0.6410  0.0612
  108OSM    H5S11096   6.950   3.108  10.397 -0.0643  1.9557 -0.8221
  108OSM    C6S11097   6.854   3.013  10.228  0.0381 -0.1318 -0.3564
  108OSM    H6S11098   6.893   2.910  10.238 -1.7980 -0.5487  3.1495
  108OSM    H6T11099   6.928   3.064  10.162  1.5316 -2.1456 -0.2802
  108OSM    C7S11100   6.707   3.006  10.166 -1.0303 -0.0159  0.0567
  108OSM    H7S11101   6.652   3.102  10.170 -1.5420 -0.3756  2.4164
  108OSM    H7T11102   6.653   2.934  10.232  1.2615 -0.8283  1.1051
  108OSM    C8S11103   6.714   2.967  10.020  0.3238 -0.1875 -0.1131
  108OSM    H8S11104   6.745   2.861  10.004 -1.0925 -0.3802 -1.7789
  108OSM    H8T11105   6.789   3.037   9.978 -0.7167  0.5893 -0.6820
  108OSM    C9S11106   6.585   2.995   9.942 -0.3320 -0.4941 -0.6108
  108OSM    H9S11107   6.565   3.105   9.939 -0.9221 -0.5621  0.4680
  108OSM    H9T11108   6.500   2.952   9.999  1.5818 -2.1934  1.0024
  108OSM   C10S11109   6.595   2.941   9.803 -0.2239 -0.5928 -0.7109
  108OSM   H10S11110   6.619   2.834   9.817 -2.8426 -0.7633  3.3268
  108OSM   H10T11111   6.682   2.983   9.748  1.0854  0.0458  1.7466
  108OSM   C11S11112   6.469   2.957   9.723  0.1309  0.4617  0.7537
  108OSM   H11S11113   6.440   3.061   9.697 -2.8547 -0.8190 -1.3523
  108OSM   H11T11114   6.376   2.928   9.775 -1.4142  2.1809 -0.9322
  108OSM   C12S11115   6.482   2.878   9.590  1.0007 -0.1861  0.8395
  108OSM   H12S11116   6.451   2.777   9.623 -1.3826  0.9626  2.3156
  108OSM   H12T11117   6.587   2.873   9.553  0.3519 -3.0811 -0.6744
  108OSM   C13S11118   6.387   2.924   9.474 -0.0144 -0.3094 -1.3173
  108OSM   H13S11119   6.407   2.860   9.385 -1.2042 -3.6245  0.7151
  108OSM   H13T11120   6.415   3.030   9.460 -0.6912  0.1580  0.7037
  108OSM   C14S11121   6.236   2.899   9.506 -0.0250 -0.3631  0.5895
  108OSM   H14S11122   6.192   2.982   9.566 -1.7869 -1.0439  0.2433
  108OSM   H14T11123   6.229   2.808   9.569  2.8747 -1.4306 -0.5492
  108OSM   C15S11124   6.156   2.873   9.379  0.4833 -0.2209 -0.1123
  108OSM   H15S11125   6.047   2.860   9.397  0.4206 -1.0600 -1.0871
  108OSM   H15T11126   6.197   2.779   9.336 -0.6785 -1.3101  1.1108
  108OSM   C16S11127   6.155   2.985   9.270  0.4076  0.1434 -0.3326
  108OSM   H16S11128   6.257   3.019   9.243  1.4545 -0.8583  2.2716
  108OSM   H16T11129   6.108   3.066   9.328 -0.1755 -0.1820 -0.3424
  108OSM   C17S11130   6.070   2.937   9.149 -0.3590  0.0163 -0.6477
  108OSM   H17S11131   5.970   2.910   9.189 -0.0314  1.0001  0.8956
  108OSM   H17T11132   6.118   2.854   9.092  1.4486 -0.8707  2.0308
  108OSM   C18S11133   6.069   3.045   9.050  0.1014 -0.1673 -0.4485
  108OSM   H18S11134   6.034   3.142   9.094 -0.0530  0.6703 -2.3818
  108OSM   H18T11135   6.007   3.029   8.959 -1.5764 -1.7252  0.9193
  108OSM   H18U11136   6.174   3.056   9.018  0.0000 -0.9370 -1.0383
  108OSM    C1F11137   6.646   3.481  10.432  0.0785  0.3601 -0.1326
  108OSM     OF11138   6.757   3.532  10.419 -0.1251 -0.1793  0.0201
  108OSM    C2F11139   6.525   3.553  10.369 -0.1859  0.4658 -0.7869
  108OSM    H2F11140   6.528   3.652  10.419  1.6890  0.5350 -1.0074
  108OSM    H2G11141   6.429   3.502  10.392 -0.3691  0.4436 -1.5825
  108OSM    C3F11142   6.543   3.587  10.219  0.7025  0.6757 -0.0105
  108OSM    H3F11143   6.581   3.498  10.166  0.1542 -0.6898  1.8311
  108OSM    H3G11144   6.624   3.663  10.212  0.3776  0.8257 -2.4357
  108OSM    C4F11145   6.414   3.636  10.152 -0.1137 -0.1355 -0.4185
  108OSM    H4F11146   6.384   3.730  10.204 -0.9930 -0.3420 -0.5319
  108OSM    H4G11147   6.330   3.564  10.156 -1.4760  1.1440 -3.7180
  108OSM    C5F11148   6.440   3.660  10.009  0.2559 -0.1125 -0.0420
  108OSM    H5F11149   6.545   3.695   9.999  0.6118 -0.7849  1.2177
  108OSM    H5G11150   6.369   3.733   9.967  2.6496  0.8183 -2.6277
  108OSM    C6F11151   6.432   3.528   9.929 -0.5945  0.5575 -0.7469
  108OSM    H6F11152   6.329   3.488   9.929 -1.1106  1.8466 -0.1631
  108OSM    H6G11153   6.494   3.457   9.989 -0.4782  1.6914  0.5017
  108OSM    C7F11154   6.477   3.539   9.787 -0.3723 -0.6490 -0.0102
  108OSM    H7F11155   6.585   3.566   9.792 -0.2328 -1.2556  0.2867
  108OSM    H7G11156   6.419   3.615   9.731 -0.7264 -0.8246  0.1176
  108OSM    C8F11157   6.464   3.412   9.698  0.0445  0.4474 -0.9011
  108OSM    H8F11158   6.520   3.337   9.757 -0.2090 -0.3196 -1.6325
  108OSM    H8G11159   6.530   3.427   9.611  0.0807  1.9539 -0.6313
  108OSM    C9F11160   6.326   3.380   9.662  0.9168  0.0502  0.4198
  108OSM    H9F11161   6.262   3.411   9.746  0.9399 -2.3109  1.3514
  108OSM   C10F11162   6.278   3.348   9.542 -0.7503  0.0724 -0.5893
  108OSM   H10F11163   6.172   3.321   9.536 -0.3201 -1.4123 -2.1445
  108OSM   C11F11164   6.348   3.325   9.412 -0.1345  0.8682  0.2241
  108OSM   H11F11165   6.361   3.221   9.376  2.7867  1.1004  0.4740
  108OSM   H11G11166   6.452   3.363   9.416  0.7081 -1.4859  1.0881
  108OSM   C12F11167   6.271   3.394   9.303 -0.5073  0.0057 -0.1814
  108OSM   H12F11168   6.286   3.504   9.298 -1.9196  0.2055  0.0590
  108OSM   H12G11169   6.162   3.377   9.307 -0.0291 -3.5047 -0.7197
  108OSM   C13F11170   6.299   3.346   9.161 -0.7452  0.5564 -0.5400
  108OSM   H13F11171   6.266   3.240   9.155 -1.9802  0.7522  2.1874
  108OSM   H13G11172   6.404   3.344   9.126  0.3389  2.5292  2.4873
  108OSM   C14F11173   6.210   3.418   9.058 -0.0949  0.5391  0.6207
  108OSM   H14F11174   6.210   3.529   9.068 -0.6919  0.7326 -1.3807
  108OSM   H14G11175   6.106   3.382   9.073 -0.1694  0.4499 -0.1023
  108OSM   C15F11176   6.248   3.394   8.908 -0.2128  0.0840 -0.9557
  108OSM   H15F11177   6.261   3.286   8.885  0.4894 -0.0646  0.1063
  108OSM   H15G11178   6.345   3.445   8.893 -1.3023  1.9557 -1.8462
  108OSM   C16F11179   6.142   3.446   8.808  0.4039 -0.3114  0.0227
  108OSM   H16F11180   6.178   3.448   8.703 -0.1207  0.4855 -0.1400
  108OSM   H16G11181   6.133   3.552   8.840 -0.5697 -1.0491  2.2913
  108OSM   C17F11182   6.013   3.364   8.819  0.9601  1.0789  0.9406
  108OSM   H17F11183   5.958   3.397   8.909 -0.3701 -1.4946  1.1108
  108OSM   H17G11184   6.024   3.254   8.815  1.2166  1.1282 -0.0569
  108OSM   C18F11185   5.925   3.404   8.702  0.7402  0.1380  0.0939
  108OSM   H18F11186   5.906   3.513   8.717  0.8270  0.0039  1.2497
  108OSM   H18G11187   5.829   3.350   8.707  1.7195 -1.4692  2.0800
  108OSM   H18H11188   5.979   3.376   8.609  1.8280  0.3782  0.6433
  109OSM      N11189   6.653   4.278  10.980  0.2869 -0.0306 -0.1151
  109OSM    C1511190   6.699   4.417  10.975  0.4231  0.4975 -0.0643
  109OSM   H15A11191   6.661   4.478  10.895  0.4914 -0.1246 -0.5764
  109OSM   H15B11192   6.807   4.419  10.983  0.4251  1.4155 -0.2771
  109OSM   H15C11193   6.664   4.455  11.070  1.4122  1.7241 -0.1757
  109OSM    C1411194   6.720   4.205  11.093  0.4337  0.0424 -0.2731
  109OSM   H14A11195   6.828   4.202  11.083  0.4842  0.6420  0.0380
  109OSM   H14B11196   6.688   4.103  11.097 -0.1050  0.2744  3.2836
  109OSM   H14C11197   6.693   4.246  11.189 -2.0485 -1.7118 -0.2048
  109OSM    C1311198   6.501   4.288  11.006 -0.1461  0.4863 -0.7730
  109OSM   H13A11199   6.442   4.286  10.916 -0.7491  1.0095 -0.3877
  109OSM   H13B11200   6.482   4.371  11.071  0.0854 -0.3385  0.3594
  109OSM   H13C11201   6.472   4.195  11.053 -1.5138  1.3765  0.1627
  109OSM    C1211202   6.681   4.204  10.848  0.0059  0.6563 -0.0168
  109OSM   H12A11203   6.612   4.122  10.832 -0.5698  1.0273  0.5333
  109OSM   H12B11204   6.781   4.165  10.854 -0.5199 -1.3910 -2.9636
  109OSM    C1111205   6.685   4.294  10.717  0.2551 -0.0913  0.4129
  109OSM   H11A11206   6.675   4.233  10.625 -1.1492  0.9992 -0.1801
  109OSM   H11B11207   6.788   4.334  10.718  0.7364 -1.3101  1.8466
  109OSM      P11208   6.446   4.369  10.650 -0.2538  0.3440 -0.1785
  109OSM    O1311209   6.398   4.243  10.716  0.0519 -0.5427  0.7171
  109OSM    O1411210   6.357   4.490  10.667 -0.3344 -0.3333 -0.2185
  109OSM    O1111211   6.474   4.346  10.499  0.1097  0.1501  0.0626
  109OSM    O1211212   6.587   4.401  10.714 -0.6112  0.8152  0.3734
  109OSM    C1S11213   6.563   4.446  10.440  1.1519 -0.0613 -0.1342
  109OSM    H1S11214   6.666   4.422  10.476 -0.1117 -3.0408  1.7304
  109OSM    H1T11215   6.527   4.548  10.464 -1.9269 -0.7142 -1.8093
  109OSM     NF11216   6.662   4.540  10.243 -0.6333  0.1683 -0.3015
  109OSM    HNF11217   6.620   4.627  10.219  1.0046  0.3529 -2.6872
  109OSM    C2S11218   6.568   4.438  10.286  0.2235 -0.5176  0.7710
  109OSM    H2S11219   6.609   4.339  10.257 -1.9597 -0.9500 -0.9502
  109OSM    C3S11220   6.422   4.456  10.222 -0.1388 -0.6611 -0.0071
  109OSM    H3S11221   6.385   4.547  10.275  0.7255 -1.9344  2.8653
  109OSM     O311222   6.330   4.355  10.261  0.0913  0.4864  0.0814
  109OSM    HO311223   6.360   4.325  10.347  2.2615 -1.2416 -1.2351
  109OSM    C4S11224   6.429   4.470  10.071 -0.1751 -0.0863 -0.6134
  109OSM    H4S11225   6.483   4.390  10.018 -2.3681 -1.4985 -0.7971
  109OSM    C5S11226   6.375   4.571  10.007  0.0558 -0.1362  0.5418
  109OSM    H5S11227   6.329   4.655  10.060  2.8499  1.1734  0.9955
  109OSM    C6S11228   6.387   4.592   9.860  0.1752  0.4784  0.3227
  109OSM    H6S11229   6.462   4.674   9.852  2.1358 -1.0297  2.6851
  109OSM    H6T11230   6.292   4.630   9.816 -0.8292  0.1566  2.1547
  109OSM    C7S11231   6.444   4.474   9.773 -0.1333 -0.4913 -0.4820
  109OSM    H7S11232   6.376   4.386   9.775 -0.3503 -0.3424 -1.3148
  109OSM    H7T11233   6.543   4.437   9.810 -1.2379 -1.9500  1.1481
  109OSM    C8S11234   6.465   4.526   9.627  0.0925  0.8943 -0.7041
  109OSM    H8S11235   6.544   4.604   9.635  0.2961  0.6555 -0.4135
  109OSM    H8T11236   6.374   4.569   9.579 -1.5974 -0.9006  0.8213
  109OSM    C9S11237   6.530   4.418   9.542  0.1529  0.4529 -0.2677
  109OSM    H9S11238   6.469   4.325   9.542  1.9417 -0.7429 -0.7362
  109OSM    H9T11239   6.617   4.398   9.608  1.0571  0.1738 -1.5295
  109OSM   C10S11240   6.561   4.460   9.400  0.4318  0.2337 -0.3391
  109OSM   H10S11241   6.666   4.425   9.387  0.3273 -0.5548  0.8256
  109OSM   H10T11242   6.557   4.568   9.376  2.6665  0.1796 -0.9947
  109OSM   C11S11243   6.478   4.384   9.295 -0.1430 -0.0588  0.0436
  109OSM   H11S11244   6.374   4.417   9.314 -0.0168  0.5884 -0.3721
  109OSM   H11T11245   6.479   4.275   9.315 -0.2980  0.4643  3.0538
  109OSM   C12S11246   6.508   4.413   9.148 -0.6398  0.2773  0.5373
  109OSM   H12S11247   6.522   4.521   9.131  1.9947 -0.1440 -0.2352
  109OSM   H12T11248   6.424   4.381   9.082  0.2918 -0.3797 -0.3427
  109OSM   C13S11249   6.639   4.346   9.090  0.1864 -0.4518 -1.2026
  109OSM   H13S11250   6.712   4.347   9.174  2.2957  3.1426 -2.9557
  109OSM   H13T11251   6.694   4.408   9.015  3.3139 -0.8927  0.6387
  109OSM   C14S11252   6.605   4.214   9.028 -0.1682  0.1007  0.0621
  109OSM   H14S11253   6.552   4.217   8.930  0.4402  0.9674 -0.2425
  109OSM   H14T11254   6.524   4.182   9.097 -1.1377  2.1253 -0.1121
  109OSM   C15S11255   6.720   4.110   9.016 -0.3216 -0.0678 -0.3469
  109OSM   H15S11256   6.673   4.017   8.976  0.4219  0.2144 -1.9089
  109OSM   H15T11257   6.752   4.094   9.121  0.0957 -1.7213 -0.6974
  109OSM   C16S11258   6.826   4.155   8.917 -0.0739  0.1062 -0.7608
  109OSM   H16S11259   6.884   4.233   8.970  1.0395 -0.4165 -1.1867
  109OSM   H16T11260   6.772   4.202   8.832 -1.4090 -0.6756 -0.3550
  109OSM   C17S11261   6.917   4.040   8.864  0.7247 -0.1550 -0.3654
  109OSM   H17S11262   6.951   4.069   8.762 -1.2813 -0.4842 -1.1521
  109OSM   H17T11263   6.857   3.947   8.851 -0.3642  0.4815  0.0217
  109OSM   C18S11264   7.033   4.019   8.961 -0.3073 -0.6079  0.1480
  109OSM   H18S11265   7.110   3.962   8.905 -2.0892 -0.7342 -2.2410
  109OSM   H18T11266   7.003   3.961   9.051 -0.2643  2.4978  2.2586
  109OSM   H18U11267   7.076   4.112   9.003 -1.0139 -0.6710  1.0262
  109OSM    C1F11268   6.792   4.533  10.252 -0.4557  0.7602 -0.1390
  109OSM     OF11269   6.854   4.433  10.282 -0.2317  0.0076 -0.1549
  109OSM    C2F11270   6.854   4.671  10.247 -0.2269  0.6037 -0.3858
  109OSM    H2F11271   6.868   4.706  10.352 -0.4934  1.4844 -0.6332
  109OSM    H2G11272   6.783   4.738  10.193 -0.0071  1.0302 -0.1500
  109OSM    C3F11273   6.980   4.679  10.160  0.1648 -0.4242  0.4019
  109OSM    H3F11274   7.071   4.635  10.207 -0.0473 -0.2722  0.9566
  109OSM    H3G11275   6.998   4.788  10.154 -1.2988 -0.1741  0.3713
  109OSM    C4F11276   6.970   4.639  10.007  0.4552 -0.0789  0.6595
  109OSM    H4F11277   6.937   4.534   9.997  0.3417  0.2211 -2.6913
  109OSM    H4G11278   7.075   4.647   9.971  0.6464 -0.7711  1.0496
  109OSM    C5F11279   6.860   4.719   9.933 -0.1686 -0.0290  0.6422
  109OSM    H5F11280   6.844   4.817   9.982  2.0640  1.1394 -0.8635
  109OSM    H5G11281   6.768   4.659   9.946 -1.6176  2.4933  2.5908
  109OSM    C6F11282   6.881   4.722   9.782 -0.4796  0.1069 -0.0877
  109OSM    H6F11283   6.966   4.784   9.748 -1.1800  1.4678  0.6116
  109OSM    H6G11284   6.790   4.755   9.727  0.5082 -1.2858 -2.6352
  109OSM    C7F11285   6.915   4.581   9.730 -0.0894  0.3992 -0.0739
  109OSM    H7F11286   6.841   4.506   9.765  0.9536 -0.6035  0.0248
  109OSM    H7G11287   7.018   4.559   9.766 -0.3774 -1.2849 -0.2562
  109OSM    C8F11288   6.909   4.567   9.580 -0.5241  0.4879  0.4027
  109OSM    H8F11289   6.951   4.653   9.523  0.1039 -0.5320 -0.7072
  109OSM    H8G11290   6.802   4.564   9.549 -0.6776  0.6263  0.9242
  109OSM    C9F11291   6.968   4.443   9.525  0.5490  0.2816 -0.4987
  109OSM    H9F11292   7.002   4.370   9.600 -2.8333 -2.4019 -1.4541
  109OSM   C10F11293   6.976   4.409   9.399 -0.7968 -0.1955 -0.4764
  109OSM   H10F11294   7.022   4.313   9.375  0.3957 -0.0534  1.1454
  109OSM   C11F11295   6.943   4.492   9.275 -0.1525  0.0336  0.3763
  109OSM   H11F11296   6.861   4.564   9.292  0.8854  1.4035 -0.3549
  109OSM   H11G11297   6.906   4.420   9.200  0.2531  1.2115 -0.9710
  109OSM   C12F11298   7.056   4.554   9.191 -0.1275  0.0936  0.1562
  109OSM   H12F11299   7.114   4.632   9.245  0.4772 -1.0051  1.1295
  109OSM   H12G11300   7.009   4.616   9.113  1.2241  1.7316  0.6198
  109OSM   C13F11301   7.160   4.447   9.142 -0.6291  0.4594 -0.3978
  109OSM   H13F11302   7.088   4.375   9.098 -0.2003 -1.3303  1.7363
  109OSM   H13G11303   7.213   4.395   9.225 -0.1838  0.8947 -0.4042
  109OSM   C14F11304   7.233   4.504   9.019 -0.1536 -0.1595 -0.0861
  109OSM   H14F11305   7.315   4.576   9.040  0.2881 -1.1706  1.7808
  109OSM   H14G11306   7.162   4.562   8.957  0.1304  0.1226 -0.1455
  109OSM   C15F11307   7.302   4.394   8.935  0.0898  0.0264  0.6462
  109OSM   H15F11308   7.228   4.316   8.907 -1.0990  0.9829  1.0964
  109OSM   H15G11309   7.380   4.347   8.999 -0.2592  0.2725  1.2541
  109OSM   C16F11310   7.375   4.435   8.804  0.1016  0.1261 -0.3873
  109OSM   H16F11311   7.448   4.516   8.825  0.4454  0.2798 -2.1474
  109OSM   H16G11312   7.303   4.470   8.727 -1.4683 -2.7845 -0.3056
  109OSM   C17F11313   7.453   4.313   8.737 -0.3253 -0.4574 -1.2460
  109OSM   H17F11314   7.524   4.276   8.815 -2.0093 -0.3863  0.3576
  109OSM   H17G11315   7.507   4.363   8.654  1.1032 -1.1805 -0.7717
  109OSM   C18F11316   7.372   4.198   8.677 -0.2050 -0.0895  0.6719
  109OSM   H18F11317   7.356   4.207   8.567  1.3343 -1.8526  0.2808
  109OSM   H18G11318   7.274   4.197   8.730 -1.0371  0.6614 -0.8253
  109OSM   H18H11319   7.430   4.105   8.691  1.0215  0.6469  0.6238
  110OSM      N11320   1.927   3.940  11.255 -0.0464 -0.2686 -0.2786
  110OSM    C1511321   2.032   4.023  11.321  0.8778  0.0759 -0.0174
  110OSM   H15A11322   2.118   4.055  11.264  1.1889  2.9470  1.9126
  110OSM   H15B11323   2.077   3.980  11.409 -1.0981 -1.2019  0.4137
  110OSM   H15C11324   1.987   4.118  11.349 -2.0318 -0.9633 -1.0033
  110OSM    C1411325   1.986   3.803  11.251  0.1632  0.4425  0.7514
  110OSM   H14A11326   1.913   3.744  11.199  0.9981  2.3536 -2.7243
  110OSM   H14B11327   2.015   3.761  11.346  2.2100  1.1984  0.4819
  110OSM   H14C11328   2.075   3.807  11.190 -0.9302  3.4073 -0.7250
  110OSM    C1311329   1.805   3.925  11.347 -1.3757  1.2522  0.6724
  110OSM   H13A11330   1.763   4.022  11.365  1.2021  2.5304 -0.0321
  110OSM   H13B11331   1.827   3.869  11.437 -1.9608 -0.3025 -0.1351
  110OSM   H13C11332   1.724   3.867  11.306 -0.1043  0.1342 -0.3251
  110OSM    C1211333   1.894   3.992  11.117 -0.3175 -0.2730 -0.4438
  110OSM   H12A11334   1.986   4.001  11.061  0.6737 -0.1671  1.1670
  110OSM   H12B11335   1.846   4.088  11.119 -1.4834 -0.8614  0.2995
  110OSM    C1111336   1.803   3.898  11.031 -0.2504 -0.3498  0.0979
  110OSM   H11A11337   1.763   3.945  10.939  1.5394  0.0502 -0.5044
  110OSM   H11B11338   1.711   3.866  11.083  0.1908 -0.8206  0.5966
  110OSM      P11339   1.989   3.780  10.888 -0.1957 -0.0383 -0.3963
  110OSM    O1311340   2.103   3.862  10.931  0.0514  0.3185  0.0840
  110OSM    O1411341   2.027   3.637  10.864 -0.0829  0.0117  0.5264
  110OSM    O1111342   1.921   3.839  10.759  0.4921  0.1753 -0.3299
  110OSM    O1211343   1.876   3.779  10.993 -0.6626 -0.1699 -0.6351
  110OSM    C1S11344   1.798   3.787  10.700 -0.7398  0.8510  0.1791
  110OSM    H1S11345   1.709   3.837  10.743 -1.1561 -0.0983  0.4471
  110OSM    H1T11346   1.780   3.682  10.732  2.0373 -0.5569 -2.5757
  110OSM     NF11347   1.650   3.743  10.507  0.2722  0.0426 -0.0193
  110OSM    HNF11348   1.626   3.649  10.485  0.5231 -0.6961  2.6042
  110OSM    C2S11349   1.784   3.774  10.547 -0.3886  0.2843 -0.1475
  110OSM    H2S11350   1.820   3.870  10.504  0.6451  0.4876  1.1369
  110OSM    C3S11351   1.876   3.664  10.491  0.3808  0.4650 -0.5866
  110OSM    H3S11352   1.825   3.566  10.508 -1.8218  1.4031 -1.5503
  110OSM     O311353   2.011   3.665  10.543 -0.4230 -0.6608  0.3560
  110OSM    HO311354   2.019   3.737  10.605 -0.4313 -1.3591  1.1798
  110OSM    C4S11355   1.882   3.679  10.343  0.0957  0.3754  0.1233
  110OSM    H4S11356   1.800   3.626  10.292  0.5119  1.1300 -1.3622
  110OSM    C5S11357   1.969   3.750  10.273 -0.4529  0.3730  0.0399
  110OSM    H5S11358   2.050   3.798  10.328 -0.5826 -2.0013  2.4035
  110OSM    C6S11359   1.968   3.776  10.122  0.7522  0.7794  0.0300
  110OSM    H6S11360   2.066   3.754  10.075 -0.5096 -4.1830 -0.5543
  110OSM    H6T11361   1.948   3.885  10.114  0.2034  1.0006  3.5537
  110OSM    C7S11362   1.861   3.704  10.035  0.2181  0.6080  0.5777
  110OSM    H7S11363   1.758   3.726  10.072  0.1885  1.4000  0.0302
  110OSM    H7T11364   1.888   3.597  10.038  0.2090  0.5630 -0.7148
  110OSM    C8S11365   1.864   3.749   9.889  0.1262 -0.3049 -0.6057
  110OSM    H8S11366   1.883   3.858   9.884  1.2789 -0.2749  2.8723
  110OSM    H8T11367   1.766   3.746   9.838 -0.8518  2.1637  1.0529
  110OSM    C9S11368   1.972   3.671   9.812 -0.7394 -0.4642 -0.4629
  110OSM    H9S11369   1.961   3.566   9.846  1.7721 -1.0532 -1.3528
  110OSM    H9T11370   2.076   3.691   9.846 -0.2894 -1.9032 -0.9524
  110OSM   C10S11371   1.951   3.686   9.660 -0.1844 -0.5249 -0.0727
  110OSM   H10S11372   2.007   3.772   9.617  0.5575 -0.5487  0.8344
  110OSM   H10T11373   1.844   3.692   9.634 -0.5539  0.4737  1.5738
  110OSM   C11S11374   2.007   3.569   9.580  0.3177  0.3372 -0.0174
  110OSM   H11S11375   1.992   3.477   9.640 -0.5588 -0.4616 -1.4384
  110OSM   H11T11376   2.118   3.582   9.581  0.6122 -2.0186  0.6729
  110OSM   C12S11377   1.968   3.548   9.427 -0.3059  0.8514 -0.0472
  110OSM   H12S11378   1.945   3.645   9.378  2.3176  0.6477 -1.7782
  110OSM   H12T11379   1.868   3.500   9.427  0.8015 -1.5258  0.6665
  110OSM   C13S11380   2.060   3.457   9.340  0.2358  0.3436 -0.0878
  110OSM   H13S11381   2.066   3.353   9.380  0.9286  0.9921  1.5489
  110OSM   H13T11382   2.164   3.496   9.348  0.7461 -1.1491  0.7999
  110OSM   C14S11383   2.017   3.450   9.185 -0.6384 -0.2910 -0.4755
  110OSM   H14S11384   2.052   3.552   9.160  0.0004 -0.7093 -1.2791
  110OSM   H14T11385   1.908   3.434   9.173 -0.3501 -3.8945  1.2131
  110OSM   C15S11386   2.100   3.366   9.083 -0.3199  0.6181 -0.2388
  110OSM   H15S11387   2.092   3.257   9.105  2.1507  0.7975  1.7860
  110OSM   H15T11388   2.207   3.391   9.099 -0.3635 -0.5422  2.1596
  110OSM   C16S11389   2.069   3.392   8.939  0.4573 -0.1622 -1.4508
  110OSM   H16S11390   2.102   3.497   8.931  0.9243 -0.0580  1.2122
  110OSM   H16T11391   1.959   3.380   8.926 -0.0857  4.2112 -1.5816
  110OSM   C17S11392   2.128   3.283   8.846  0.3446  0.1733 -0.4548
  110OSM   H17S11393   2.216   3.238   8.897  0.4816  0.1731 -0.6962
  110OSM   H17T11394   2.143   3.341   8.753 -0.1656  2.7489  1.0124
  110OSM   C18S11395   2.028   3.160   8.832  0.6950  0.6610 -0.8946
  110OSM   H18S11396   2.002   3.140   8.938  2.1251 -0.8597 -0.8223
  110OSM   H18T11397   2.070   3.069   8.785  1.9881  0.2152  1.0459
  110OSM   H18U11398   1.935   3.202   8.786 -0.8632  0.4483  1.9516
  110OSM    C1F11399   1.547   3.832  10.507 -0.1672 -0.2995  0.4294
  110OSM     OF11400   1.571   3.954  10.536  0.2575  0.5672  0.2164
  110OSM    C2F11401   1.413   3.783  10.461 -0.7561  0.5890 -0.0318
  110OSM    H2F11402   1.385   3.687  10.509  1.9142 -1.2291 -1.9739
  110OSM    H2G11403   1.409   3.769  10.351  2.9424 -2.9570  0.1790
  110OSM    C3F11404   1.297   3.879  10.497  0.5607  0.2128  0.2401
  110OSM    H3F11405   1.294   3.907  10.604  1.1715  0.5521  0.1704
  110OSM    H3G11406   1.207   3.815  10.481  0.4080  0.2803  0.8338
  110OSM    C4F11407   1.280   3.996  10.409  0.1170  0.1479 -0.7948
  110OSM    H4F11408   1.377   4.046  10.390 -0.7110  3.4341  2.9447
  110OSM    H4G11409   1.217   4.072  10.461  0.8988  1.6194 -1.9584
  110OSM    C5F11410   1.198   3.964  10.277  0.3777 -0.3939 -0.3080
  110OSM    H5F11411   1.113   3.899  10.306  0.6914 -1.8949 -2.6504
  110OSM    H5G11412   1.246   3.902  10.199  0.0766 -1.6727  0.5115
  110OSM    C6F11413   1.121   4.092  10.237 -0.7522  0.4020  0.6351
  110OSM    H6F11414   1.195   4.168  10.204  0.9923 -1.2611  0.5820
  110OSM    H6G11415   1.070   4.132  10.327  1.3848  2.5468  0.9474
  110OSM    C7F11416   1.030   4.074  10.121  0.2469 -1.0641 -0.5217
  110OSM    H7F11417   0.956   3.993  10.140 -0.1117 -0.5213  0.4009
  110OSM    H7G11418   1.080   4.042  10.027 -0.9347 -2.3321 -0.7472
  110OSM    C8F11419   0.958   4.210  10.091 -0.1486 -0.7098  0.1579
  110OSM    H8F11420   1.022   4.295  10.058 -2.2320  0.3890 -1.1669
  110OSM    H8G11421   0.911   4.250  10.183 -1.5171 -1.8276 -0.0406
  110OSM    C9F11422   0.844   4.197   9.989  0.3980  0.2255  0.2753
  110OSM    H9F11423   0.742   4.184  10.030  1.0346  0.5346  2.0059
  110OSM   C10F11424   0.863   4.188   9.857  0.5008  0.3824 -0.1908
  110OSM   H10F11425   0.778   4.173   9.790 -1.7172 -1.0238  2.8030
  110OSM   C11F11426   0.992   4.200   9.784 -0.4993 -0.4918  0.1200
  110OSM   H11F11427   1.077   4.191   9.855  0.0939 -2.0155 -0.7546
  110OSM   H11G11428   1.006   4.286   9.714 -0.3309 -0.7779 -0.2005
  110OSM   C12F11429   1.013   4.086   9.682 -0.3466 -0.1801 -0.9702
  110OSM   H12F11430   1.115   4.106   9.641  0.1451 -1.0058 -0.1562
  110OSM   H12G11431   0.933   4.084   9.605 -0.4577 -0.6697 -0.8435
  110OSM   C13F11432   1.015   3.951   9.755  0.5897 -0.3645  0.2546
  110OSM   H13F11433   0.922   3.928   9.810  1.1631 -0.3589  1.2368
  110OSM   H13G11434   1.094   3.953   9.833  0.4170 -0.7352  0.4393
  110OSM   C14F11435   1.043   3.839   9.659  0.1932 -0.2160 -0.3369
  110OSM   H14F11436   1.060   3.743   9.711 -0.6826 -1.2744 -1.9667
  110OSM   H14G11437   1.135   3.870   9.604  0.0920 -0.8843 -0.8845
  110OSM   C15F11438   0.924   3.825   9.551 -0.0193  0.2666 -0.1728
  110OSM   H15F11439   0.913   3.920   9.495 -1.2806  0.7800  0.9347
  110OSM   H15G11440   0.827   3.807   9.603 -0.0656  0.7534 -0.0957
  110OSM   C16F11441   0.932   3.728   9.433 -0.3506 -0.4402  0.4183
  110OSM   H16F11442   0.834   3.737   9.381 -1.2592 -0.0818  2.1331
  110OSM   H16G11443   0.947   3.621   9.459  0.6134 -0.0338  1.5736
  110OSM   C17F11444   1.047   3.754   9.332  0.0627  0.1912 -0.0248
  110OSM   H17F11445   1.147   3.739   9.378 -0.9108 -1.0744  1.7324
  110OSM   H17G11446   1.034   3.860   9.303  0.2369  0.1152 -0.3854
  110OSM   C18F11447   1.034   3.651   9.216 -0.1586 -0.1756 -0.5796
  110OSM   H18F11448   1.100   3.688   9.134  0.2931  0.0373 -0.1203
  110OSM   H18G11449   0.930   3.651   9.177 -0.3568  1.6968 -0.0955
  110OSM   H18H11450   1.060   3.549   9.251  1.2074  0.4708  0.3312
  111OSM      N11451   2.116   0.130  11.207 -0.2282 -0.0141  0.3178
  111OSM    C1511452   1.973   0.111  11.238 -0.1522  0.0506 -0.0935
  111OSM   H15A11453   1.930   0.020  11.197  1.2190 -0.7508  0.2329
  111OSM   H15B11454   1.921   0.199  11.202  0.6742  0.3918 -0.4539
  111OSM   H15C11455   1.953   0.098  11.343  0.9273 -0.6570  0.0338
  111OSM    C1411456   2.164   0.235  11.311 -0.0112  0.3057 -0.2432
  111OSM   H14A11457   2.103   0.324  11.311  0.3541  0.5548 -0.4489
  111OSM   H14B11458   2.269   0.258  11.305  0.5670 -1.7164  1.3995
  111OSM   H14C11459   2.162   0.193  11.410  2.1823  1.3238  0.2570
  111OSM    C1311460   2.197   0.013  11.257  0.6916 -0.3832  0.2790
  111OSM   H13A11461   2.304   0.027  11.248  1.1043 -3.7254 -1.0732
  111OSM   H13B11462   2.163  -0.078  11.209 -1.3024 -0.1417  1.2065
  111OSM   H13C11463   2.182   0.004  11.363  2.0027  0.3762  0.5415
  111OSM    C1211464   2.140   0.169  11.060 -0.2346 -0.3130 -0.0614
  111OSM   H12A11465   2.243   0.201  11.056 -0.3256 -0.1555 -1.4699
  111OSM   H12B11466   2.092   0.263  11.037 -0.9074 -0.5727  0.2855
  111OSM    C1111467   2.114   0.073  10.950  0.0607  0.6326 -0.0502
  111OSM   H11A11468   2.106   0.128  10.854  0.0966  0.4365 -0.1637
  111OSM   H11B11469   2.026   0.009  10.974  0.5356  0.5179  1.3935
  111OSM      P11470   2.368   0.042  10.889 -0.0209 -0.5336  0.2800
  111OSM    O1311471   2.407   0.157  10.970 -0.1352  0.0182 -0.0532
  111OSM    O1411472   2.465  -0.069  10.865  0.7653 -0.1552 -0.0945
  111OSM    O1111473   2.318   0.102  10.745  0.1992 -0.6205  0.2682
  111OSM    O1211474   2.234  -0.007  10.942  0.2231  0.1698 -0.2195
  111OSM    C1S11475   2.299   0.016  10.639 -0.6743  0.0619 -0.2512
  111OSM    H1S11476   2.219  -0.060  10.656 -1.0531  0.3375 -0.8136
  111OSM    H1T11477   2.394  -0.041  10.630 -0.2879  0.8100 -0.9350
  111OSM     NF11478   2.265   0.005  10.397 -0.0498  0.7097 -0.5990
  111OSM    HNF11479   2.330   0.024  10.325  1.4854  0.9652  0.8337
  111OSM    C2S11480   2.277   0.091  10.507  0.5851 -0.2376  0.0249
  111OSM    H2S11481   2.179   0.142  10.519  2.0210  2.3949  1.1042
  111OSM    C3S11482   2.381   0.205  10.483 -0.4225  0.0148 -0.4866
  111OSM    H3S11483   2.480   0.155  10.475 -0.4310  0.0387 -0.7388
  111OSM     O311484   2.392   0.306  10.582 -0.3694  0.4833  0.4592
  111OSM    HO311485   2.348   0.259  10.654  1.7867 -0.9091  0.9142
  111OSM    C4S11486   2.349   0.277  10.350  0.2037 -0.5773 -0.0801
  111OSM    H4S11487   2.415   0.246  10.267  2.8806 -1.1518  2.2078
  111OSM    C5S11488   2.270   0.378  10.323 -0.6266 -1.2407 -0.2869
  111OSM    H5S11489   2.217   0.427  10.406  2.1476 -1.4860  1.6977
  111OSM    C6S11490   2.232   0.446  10.190  0.2797 -0.6143  0.8369
  111OSM    H6S11491   2.238   0.557  10.190  0.6147 -0.5462 -3.8902
  111OSM    H6T11492   2.127   0.421  10.164 -0.4674  2.0305  1.1886
  111OSM    C7S11493   2.332   0.421  10.072  0.3382  1.1111 -0.4790
  111OSM    H7S11494   2.349   0.312  10.056 -0.6797  0.6570  1.4837
  111OSM    H7T11495   2.427   0.472  10.099  0.2174  1.0308  0.1116
  111OSM    C8S11496   2.279   0.479   9.938 -0.6840  0.5837 -0.2817
  111OSM    H8S11497   2.257   0.585   9.964 -0.7237  0.9431 -1.7630
  111OSM    H8T11498   2.180   0.433   9.917  0.5367 -1.0632 -2.5583
  111OSM    C9S11499   2.379   0.453   9.828  0.0305  0.1511 -0.4518
  111OSM    H9S11500   2.394   0.344   9.810  1.3537  0.0811  1.0005
  111OSM    H9T11501   2.479   0.495   9.853  0.9669 -0.6065 -2.7844
  111OSM   C10S11502   2.326   0.514   9.695 -0.1054 -0.5352 -1.0557
  111OSM   H10S11503   2.343   0.623   9.700 -0.6930 -0.2392 -4.3248
  111OSM   H10T11504   2.217   0.493   9.688 -0.8949  2.5523  0.9368
  111OSM   C11S11505   2.405   0.463   9.575  0.3630  0.5013  0.0338
  111OSM   H11S11506   2.369   0.365   9.538 -0.3285  1.3895 -1.7090
  111OSM   H11T11507   2.511   0.460   9.606  1.0380  1.5917 -2.1083
  111OSM   C12S11508   2.393   0.560   9.459  0.1760  0.0173 -0.6798
  111OSM   H12S11509   2.446   0.656   9.480  3.7973 -2.0442  0.0550
  111OSM   H12T11510   2.289   0.582   9.427 -0.4965 -3.7297 -1.3020
  111OSM   C13S11511   2.468   0.504   9.336 -0.3233 -0.8072 -0.3904
  111OSM   H13S11512   2.413   0.420   9.289  0.9868 -2.3757  0.8038
  111OSM   H13T11513   2.570   0.470   9.363 -0.0090 -0.7000 -1.4189
  111OSM   C14S11514   2.499   0.616   9.236  1.4946  0.9326 -0.1661
  111OSM   H14S11515   2.543   0.696   9.300  0.2239  0.1602  1.7123
  111OSM   H14T11516   2.404   0.660   9.201  0.6486 -0.2571  0.6122
  111OSM   C15S11517   2.575   0.572   9.110 -0.0010  0.0576 -0.3016
  111OSM   H15S11518   2.673   0.526   9.134 -0.6758 -0.2815  1.9117
  111OSM   H15T11519   2.591   0.666   9.053  0.4735  0.6102  0.7452
  111OSM   C16S11520   2.489   0.475   9.035 -0.7901  0.2450  0.5801
  111OSM   H16S11521   2.388   0.476   9.079 -0.5360  1.4702  1.1715
  111OSM   H16T11522   2.535   0.374   9.031 -2.3004 -0.4433  0.3205
  111OSM   C17S11523   2.449   0.504   8.890  0.0741 -0.0064  0.2351
  111OSM   H17S11524   2.538   0.498   8.824  0.4708  1.4400  0.6114
  111OSM   H17T11525   2.403   0.605   8.878  0.7780  0.1452 -1.3599
  111OSM   C18S11526   2.345   0.400   8.842 -0.2306 -0.1293 -0.6482
  111OSM   H18S11527   2.315   0.435   8.741  2.0211  1.0543 -0.9173
  111OSM   H18T11528   2.259   0.396   8.912 -0.2722 -1.4421 -0.7615
  111OSM   H18U11529   2.389   0.299   8.854 -0.4415 -0.1207  0.2197
  111OSM    C1F11530   2.168  -0.088  10.383  0.2171 -0.9697 -0.1099
  111OSM     OF11531   2.079  -0.099  10.470 -0.0976  0.3513  0.9729
  111OSM    C2F11532   2.169  -0.166  10.255 -0.7364 -0.3012 -0.1602
  111OSM    H2F11533   2.114  -0.262  10.256  0.3126 -0.9018  0.5337
  111OSM    H2G11534   2.271  -0.207  10.234 -0.3796  0.8508 -0.7353
  111OSM    C3F11535   2.131  -0.082  10.146 -0.0258 -0.2226  0.6984
  111OSM    H3F11536   2.180   0.017  10.148 -1.0006  0.2543  1.1337
  111OSM    H3G11537   2.024  -0.051  10.148  0.2140  0.7361 -0.7603
  111OSM    C4F11538   2.144  -0.157  10.005 -0.0867 -0.4993 -0.3002
  111OSM    H4F11539   2.077  -0.245  10.000  1.5386 -1.9325  1.8458
  111OSM    H4G11540   2.254  -0.176  10.001  0.3210  1.8167 -0.6410
  111OSM    C5F11541   2.130  -0.064   9.883 -0.7764 -0.1237 -0.3979
  111OSM    H5F11542   2.182   0.033   9.898  1.5425 -1.3859 -0.0971
  111OSM    H5G11543   2.023  -0.037   9.877 -0.8040  0.2757  1.6335
  111OSM    C6F11544   2.182  -0.129   9.755  0.5603 -0.1301  0.5413
  111OSM    H6F11545   2.114  -0.211   9.724  0.4470  0.5423 -1.0176
  111OSM    H6G11546   2.283  -0.160   9.789  1.2291  1.8862  0.4869
  111OSM    C7F11547   2.184  -0.047   9.625  0.0140 -0.0483 -0.5901
  111OSM    H7F11548   2.085   0.003   9.625 -0.3265 -0.7208 -0.9689
  111OSM    H7G11549   2.179  -0.111   9.534  0.0011  0.8254 -1.2083
  111OSM    C8F11550   2.294   0.063   9.630  0.1863  1.1597  0.0352
  111OSM    H8F11551   2.294   0.105   9.733  3.9449  1.9390 -0.2196
  111OSM    H8G11552   2.260   0.155   9.578 -3.8058 -0.9459 -1.3114
  111OSM    C9F11553   2.430   0.007   9.590  0.4456 -0.3504 -0.2205
  111OSM    H9F11554   2.469  -0.072   9.656  1.4826  0.2145 -0.1385
  111OSM   C10F11555   2.474   0.013   9.463 -0.7806 -0.2514 -0.0697
  111OSM   H10F11556   2.579  -0.016   9.447  0.2029  2.5824  0.9531
  111OSM   C11F11557   2.407   0.071   9.335 -0.6250 -0.4586  0.8265
  111OSM   H11F11558   2.474   0.150   9.296 -1.5547  1.1877  2.4968
  111OSM   H11G11559   2.312   0.125   9.354 -0.5788 -0.1738  0.2665
  111OSM   C12F11560   2.382  -0.035   9.222  0.0699 -0.5259  0.6009
  111OSM   H12F11561   2.324   0.000   9.134  0.3140 -0.4462  0.4708
  111OSM   H12G11562   2.313  -0.099   9.280  1.9153  0.1678  3.6438
  111OSM   C13F11563   2.500  -0.115   9.157  0.7245 -0.1367 -0.2553
  111OSM   H13F11564   2.573  -0.142   9.237  0.9409  1.7776  0.2398
  111OSM   H13G11565   2.544  -0.043   9.084  0.4354 -0.0747 -0.3696
  111OSM   C14F11566   2.442  -0.225   9.067 -0.6753 -0.6129  0.3100
  111OSM   H14F11567   2.515  -0.285   9.008 -1.8561 -2.0561  0.2808
  111OSM   H14G11568   2.382  -0.168   8.993  1.0156  2.4350  1.2015
  111OSM   C15F11569   2.354  -0.324   9.144  0.1790  0.7263 -0.3847
  111OSM   H15F11570   2.248  -0.291   9.154 -0.8783 -2.4685 -0.4614
  111OSM   H15G11571   2.390  -0.333   9.249 -0.3110 -0.0936 -0.2833
  111OSM   C16F11572   2.361  -0.460   9.075  0.0604  0.5164 -0.5142
  111OSM   H16F11573   2.308  -0.535   9.137 -1.4007  1.0373 -1.1097
  111OSM   H16G11574   2.469  -0.484   9.070  0.0784  0.1547  1.2331
  111OSM   C17F11575   2.291  -0.451   8.935  0.2990  0.2504 -0.7106
  111OSM   H17F11576   2.332  -0.363   8.881  2.6878 -0.9063 -0.8368
  111OSM   H17G11577   2.182  -0.430   8.943  0.4450  0.4818  0.7933
  111OSM   C18F11578   2.303  -0.568   8.845  0.1781  0.0167  0.2412
  111OSM   H18F11579   2.239  -0.649   8.885  1.9123 -0.7776  1.4657
  111OSM   H18G11580   2.409  -0.599   8.836 -0.5120 -1.7544 -2.2775
  111OSM   H18H11581   2.264  -0.540   8.745 -1.3054  1.7038  1.2376
  112OSM      N11582   3.158   4.156  10.966  0.1060  0.0781  0.3443
  112OSM    C1511583   3.209   4.183  10.829 -0.4616  0.5624  0.4850
  112OSM   H15A11584   3.135   4.221  10.761 -1.5967 -3.3045 -0.4904
  112OSM   H15B11585   3.250   4.091  10.793  1.8635  1.4320  0.7802
  112OSM   H15C11586   3.294   4.249  10.845  1.2172 -2.0975  2.9649
  112OSM    C1411587   3.271   4.134  11.060 -0.2084 -0.0809 -0.2270
  112OSM   H14A11588   3.346   4.211  11.058 -0.4591  0.1686 -0.0920
  112OSM   H14B11589   3.324   4.044  11.034 -0.0213 -0.0905  0.1939
  112OSM   H14C11590   3.231   4.115  11.159  1.2774  1.1782  0.6293
  112OSM    C1311591   3.081   4.277  11.011  0.2552 -0.6952 -0.0339
  112OSM   H13A11592   3.137   4.370  11.013 -2.5285  1.0437  1.2190
  112OSM   H13B11593   3.048   4.262  11.113 -1.0227  0.2237 -0.2970
  112OSM   H13C11594   2.997   4.287  10.944 -0.3361  1.9792  1.0371
  112OSM    C1211595   3.063   4.027  10.955 -0.0044  0.7097  0.3442
  112OSM   H12A11596   3.118   3.954  10.897 -0.7967 -1.3753  2.1571
  112OSM   H12B11597   2.996   4.044  10.872  2.1783 -1.0384 -1.8581
  112OSM    C1111598   2.971   3.977  11.068 -0.2611 -0.3072  0.5946
  112OSM   H11A11599   3.047   3.961  11.148  0.3259  1.8947  0.5181
  112OSM   H11B11600   2.923   3.882  11.037  1.0889 -1.4245  1.8345
  112OSM      P11601   2.730   4.093  11.056  0.0618  0.2721 -0.3033
  112OSM    O1311602   2.642   3.996  11.122 -0.0187 -0.2243  0.5512
  112OSM    O1411603   2.700   4.236  11.067 -0.0289  0.1416 -0.3252
  112OSM    O1111604   2.747   4.058  10.897 -0.0850  0.1464  0.3538
  112OSM    O1211605   2.876   4.068  11.112 -0.1924  0.6036 -0.4698
  112OSM    C1S11606   2.786   4.155  10.806  0.0834 -0.1602 -0.1002
  112OSM    H1S11607   2.897   4.166  10.805 -0.1083  2.1676  0.2013
  112OSM    H1T11608   2.732   4.246  10.839  1.7955  0.4602  1.0818
  112OSM     NF11609   2.792   4.186  10.556 -0.8658 -0.1598  0.4394
  112OSM    HNF11610   2.740   4.253  10.504  0.7576  1.2428  0.5832
  112OSM    C2S11611   2.726   4.119  10.666  0.2739 -0.5212  0.3767
  112OSM    H2S11612   2.759   4.014  10.650  3.0763  0.0592  2.0550
  112OSM    C3S11613   2.564   4.129  10.668  0.5030  0.3588 -0.4024
  112OSM    H3S11614   2.546   4.232  10.705  4.0331  1.4381 -1.4843
  112OSM     O311615   2.498   4.050  10.768  0.0487  0.0558  0.7151
  112OSM    HO311616   2.570   4.039  10.830  1.3810  1.0622 -0.6068
  112OSM    C4S11617   2.507   4.092  10.532  0.1838 -0.0504 -0.0741
  112OSM    H4S11618   2.505   4.178  10.463 -0.2023  0.3797  0.4664
  112OSM    C5S11619   2.478   3.969  10.480 -0.5842 -0.1607 -0.4200
  112OSM    H5S11620   2.476   3.880  10.545 -0.5763 -0.0989 -0.3341
  112OSM    C6S11621   2.426   3.951  10.339  0.0126  0.3525  0.6869
  112OSM    H6S11622   2.504   3.977  10.264 -1.6125 -5.1313 -3.2200
  112OSM    H6T11623   2.337   4.015  10.325  0.1787  0.3145 -0.6744
  112OSM    C7S11624   2.402   3.802  10.304 -0.0557  0.3508  0.2814
  112OSM    H7S11625   2.327   3.765  10.377  0.5791  0.0343  0.7755
  112OSM    H7T11626   2.504   3.760  10.312 -0.3796 -0.9663 -2.1500
  112OSM    C8S11627   2.334   3.779  10.171 -0.3505 -0.5324  0.0627
  112OSM    H8S11628   2.235   3.829  10.173  0.1025  0.3304  1.1245
  112OSM    H8T11629   2.315   3.669  10.171  1.2649 -0.8164  1.2468
  112OSM    C9S11630   2.419   3.820  10.056  0.5622  0.5480  0.6102
  112OSM    H9S11631   2.515   3.764  10.058  0.7902  0.8462 -0.9580
  112OSM    H9T11632   2.437   3.930  10.060 -4.3130  1.4115  3.0134
  112OSM   C10S11633   2.338   3.794   9.927 -0.3078  0.4090 -0.1981
  112OSM   H10S11634   2.242   3.849   9.931 -1.4245 -1.6065  1.1883
  112OSM   H10T11635   2.308   3.687   9.926  1.1047 -0.0191  0.7806
  112OSM   C11S11636   2.404   3.831   9.796  0.9371  0.1570 -0.0448
  112OSM   H11S11637   2.510   3.798   9.788  0.8488 -0.2690  0.5209
  112OSM   H11T11638   2.412   3.941   9.785 -0.5551  0.4323  1.5753
  112OSM   C12S11639   2.323   3.778   9.676  0.2836  0.2816 -0.0063
  112OSM   H12S11640   2.231   3.839   9.662 -1.1388 -1.7649  0.2080
  112OSM   H12T11641   2.297   3.671   9.688 -0.2075  0.4513  0.4777
  112OSM   C13S11642   2.409   3.776   9.550  0.4468 -0.0646 -0.1698
  112OSM   H13S11643   2.498   3.710   9.558  1.8612  1.8477  0.1834
  112OSM   H13T11644   2.445   3.878   9.526  1.1360 -0.5204 -1.1104
  112OSM   C14S11645   2.321   3.726   9.429 -0.6404  0.5532 -0.5782
  112OSM   H14S11646   2.233   3.794   9.426 -0.6376  0.5299 -1.0878
  112OSM   H14T11647   2.296   3.621   9.457  0.3116  0.2514 -0.8532
  112OSM   C15S11648   2.393   3.735   9.286  0.5867  0.2586 -0.0032
  112OSM   H15S11649   2.447   3.829   9.262  0.6805  0.9884  2.8878
  112OSM   H15T11650   2.301   3.716   9.227  0.0847  0.6219  0.6512
  112OSM   C16S11651   2.496   3.623   9.267  0.6315 -0.2114 -0.1152
  112OSM   H16S11652   2.447   3.524   9.264 -1.1183  0.6513 -1.7323
  112OSM   H16T11653   2.568   3.612   9.351  0.6650 -3.0834 -0.5010
  112OSM   C17S11654   2.570   3.655   9.137 -1.0061  0.6440 -0.0533
  112OSM   H17S11655   2.621   3.753   9.133 -1.3412  0.8223  0.1052
  112OSM   H17T11656   2.494   3.650   9.056  0.3814 -1.6054 -1.2878
  112OSM   C18S11657   2.679   3.552   9.117  0.1998  0.5409 -0.5401
  112OSM   H18S11658   2.750   3.585   9.039 -0.2366  2.3049 -0.2114
  112OSM   H18T11659   2.635   3.460   9.073 -0.4972  1.6418 -2.1883
  112OSM   H18U11660   2.738   3.522   9.207 -0.0106  0.4441 -0.4333
  112OSM    C1F11661   2.925   4.187  10.539 -0.1933 -0.3905 -0.0126
  112OSM     OF11662   2.999   4.110  10.601  0.4159  0.7461  0.0430
  112OSM    C2F11663   2.973   4.284  10.435  0.4864  0.0273 -0.6442
  112OSM    H2F11664   2.922   4.382  10.448  0.2205 -0.2224  0.2291
  112OSM    H2G11665   2.937   4.250  10.335  1.0907 -0.5943 -0.6546
  112OSM    C3F11666   3.127   4.293  10.426  0.0907 -0.2507  0.1703
  112OSM    H3F11667   3.186   4.199  10.439  0.3425 -0.3148 -1.3464
  112OSM    H3G11668   3.166   4.360  10.506 -0.8089 -1.9774  2.1062
  112OSM    C4F11669   3.173   4.363  10.300  0.0827  0.3844 -0.0147
  112OSM    H4F11670   3.277   4.395  10.322 -0.7282  3.0276  0.1937
  112OSM    H4G11671   3.122   4.456  10.268  1.5801  1.6065  1.0610
  112OSM    C5F11672   3.168   4.279  10.175  0.1113 -0.1881 -0.5549
  112OSM    H5F11673   3.070   4.230  10.160  0.1048 -0.5579  0.6410
  112OSM    H5G11674   3.242   4.196  10.175  0.3690  0.0024  1.7359
  112OSM    C6F11675   3.217   4.356  10.046 -0.6385 -0.1023  0.4809
  112OSM    H6F11676   3.238   4.278   9.970  0.4340  3.0572 -2.5643
  112OSM    H6G11677   3.315   4.405  10.066 -0.2195 -0.9209  0.4934
  112OSM    C7F11678   3.122   4.453   9.967  0.8420  0.3330 -0.1713
  112OSM    H7F11679   3.100   4.540  10.033 -0.5806 -1.3309  1.6236
  112OSM    H7G11680   3.025   4.399   9.963 -0.3494  2.4730 -1.0835
  112OSM    C8F11681   3.174   4.485   9.825 -0.4379 -0.0063  0.8816
  112OSM    H8F11682   3.182   4.391   9.766  0.4608  1.7605 -1.9340
  112OSM    H8G11683   3.278   4.524   9.837 -1.4157  2.7203  0.7658
  112OSM    C9F11684   3.080   4.577   9.749  0.7622 -0.7065 -0.0498
  112OSM    H9F11685   3.104   4.682   9.769  1.0614 -0.9703  0.9731
  112OSM   C10F11686   2.978   4.538   9.672 -0.2458 -0.3876  0.0324
  112OSM   H10F11687   2.922   4.618   9.620  1.8007  1.2479  0.2323
  112OSM   C11F11688   2.939   4.397   9.649 -0.2135 -0.6049 -0.0760
  112OSM   H11F11689   2.828   4.388   9.654 -0.2131 -0.3860  0.3149
  112OSM   H11G11690   2.963   4.316   9.722 -4.1812 -3.2088 -1.4874
  112OSM   C12F11691   2.981   4.335   9.509 -0.1360  0.2075  0.6020
  112OSM   H12F11692   2.959   4.228   9.529 -0.3560 -0.0312 -0.8437
  112OSM   H12G11693   3.088   4.351   9.484 -0.6463  4.2549  0.7446
  112OSM   C13F11694   2.901   4.395   9.397  0.1667 -0.1496  0.3238
  112OSM   H13F11695   2.906   4.505   9.390 -2.3493  0.1362  2.5284
  112OSM   H13G11696   2.795   4.374   9.423 -0.3146  0.8523 -0.7722
  112OSM   C14F11697   2.932   4.320   9.269 -0.7826  0.3997 -0.2075
  112OSM   H14F11698   2.916   4.211   9.289  0.2912  0.8675  3.5452
  112OSM   H14G11699   3.038   4.348   9.257 -0.4004 -1.4914 -1.5179
  112OSM   C15F11700   2.841   4.372   9.157  0.1468  0.0910 -0.0858
  112OSM   H15F11701   2.856   4.481   9.144  1.4445 -0.0780 -0.1064
  112OSM   H15G11702   2.736   4.343   9.177  0.0815  1.0359  0.9645
  112OSM   C16F11703   2.880   4.298   9.029  0.8272  0.3239  0.5000
  112OSM   H16F11704   2.974   4.332   8.982  0.2646 -0.2925 -1.0787
  112OSM   H16G11705   2.802   4.311   8.951  0.7928  1.9667  0.7770
  112OSM   C17F11706   2.887   4.149   9.035  0.6369 -0.0182  0.2770
  112OSM   H17F11707   2.790   4.106   9.066  1.2185 -1.5377 -0.0008
  112OSM   H17G11708   2.971   4.119   9.101  1.5613  0.0312 -0.8417
  112OSM   C18F11709   2.929   4.071   8.908 -0.3277 -0.4254 -0.2982
  112OSM   H18F11710   3.037   4.080   8.884 -0.1868 -4.0105 -1.4088
  112OSM   H18G11711   2.871   4.111   8.822  0.6502 -1.1309 -1.2999
  112OSM   H18H11712   2.918   3.961   8.921 -0.4863 -0.4468 -0.6015
  113OSM      N11713   6.527   0.938  11.294  0.5292 -0.1207 -0.7705
  113OSM    C1511714   6.472   0.868  11.414  0.3724 -0.2245  0.1617
  113OSM   H15A11715   6.372   0.907  11.430  0.0348 -0.8138 -0.4909
  113OSM   H15B11716   6.539   0.888  11.496  0.7429 -2.3889  0.3963
  113OSM   H15C11717   6.463   0.762  11.401  1.2546  0.0265 -2.8920
  113OSM    C1411718   6.563   1.074  11.321  0.1455 -0.7628 -0.5772
  113OSM   H14A11719   6.582   1.118  11.224 -0.3284 -2.2599 -1.3729
  113OSM   H14B11720   6.648   1.076  11.387  1.3115 -0.8255 -2.0317
  113OSM   H14C11721   6.493   1.126  11.383  2.1891  0.6270  0.6028
  113OSM    C1311722   6.648   0.865  11.229  0.2000  0.3388  0.5295
  113OSM   H13A11723   6.746   0.862  11.274  0.6721 -0.8689 -0.5566
  113OSM   H13B11724   6.668   0.903  11.130  0.7041  0.6474  0.7493
  113OSM   H13C11725   6.622   0.760  11.233  0.4717  0.3494  2.8568
  113OSM    C1211726   6.411   0.946  11.202  0.3798 -0.4987  0.3434
  113OSM   H12A11727   6.327   1.005  11.237 -0.0066  0.1317 -1.5609
  113OSM   H12B11728   6.361   0.851  11.187 -2.6781  0.7144  2.4000
  113OSM    C1111729   6.429   1.012  11.058  0.0205 -0.3468  0.7597
  113OSM   H11A11730   6.342   0.983  10.995  0.2108  0.5256  0.0978
  113OSM   H11B11731   6.515   0.967  11.005  1.1804  1.5494  0.9931
  113OSM      P11732   6.335   1.248  11.086 -0.1213  0.2636 -0.5377
  113OSM    O1311733   6.255   1.208  11.204  0.0827  0.0844  0.0943
  113OSM    O1411734   6.398   1.377  11.085 -0.0884 -0.0177  0.2720
  113OSM    O1111735   6.245   1.237  10.957  0.1151  0.0961 -0.3223
  113OSM    O1211736   6.452   1.149  11.060  0.4873 -0.8260  0.0497
  113OSM    C1S11737   6.296   1.270  10.825  0.6087  0.0304 -0.4689
  113OSM    H1S11738   6.289   1.178  10.764 -1.7424 -0.3616  0.3060
  113OSM    H1T11739   6.400   1.309  10.821  0.2460  1.0026 -0.6275
  113OSM     NF11740   6.271   1.415  10.627 -0.5051  0.0421  0.1541
  113OSM    HNF11741   6.311   1.506  10.634  1.9960 -1.1298  1.8046
  113OSM    C2S11742   6.208   1.377  10.749  0.1593  0.2391  0.0955
  113OSM    H2S11743   6.110   1.338  10.714 -0.2200  1.2512  0.0187
  113OSM    C3S11744   6.172   1.499  10.836  0.3322  0.0809 -0.1990
  113OSM    H3S11745   6.261   1.556  10.872  0.1651  0.2680 -0.0814
  113OSM     O311746   6.108   1.472  10.966  0.2172 -0.0938 -0.4646
  113OSM    HO311747   6.120   1.377  10.973 -0.0181 -0.1034 -0.2148
  113OSM    C4S11748   6.085   1.589  10.752 -0.0710 -0.1953 -0.2739
  113OSM    H4S11749   5.987   1.544  10.728 -0.0338 -0.3378 -0.1626
  113OSM    C5S11750   6.124   1.715  10.723 -0.1595 -0.2779 -0.3964
  113OSM    H5S11751   6.221   1.742  10.767 -0.1690 -0.5518 -0.2004
  113OSM    C6S11752   6.053   1.817  10.638  1.2552  0.3965  0.2696
  113OSM    H6S11753   6.050   1.915  10.689 -2.1461  0.2643  0.4168
  113OSM    H6T11754   5.946   1.788  10.628  1.5142 -1.5280  2.7191
  113OSM    C7S11755   6.116   1.847  10.501 -0.3493 -0.1705 -0.4231
  113OSM    H7S11756   6.223   1.875  10.511 -1.1219  2.9794 -0.3089
  113OSM    H7T11757   6.055   1.931  10.460 -0.7350 -0.1848  0.1154
  113OSM    C8S11758   6.098   1.731  10.406  0.4450  0.2910  0.0428
  113OSM    H8S11759   5.987   1.727  10.404  0.4383 -0.3857  1.2107
  113OSM    H8T11760   6.142   1.642  10.456  0.5906 -0.2219 -0.9800
  113OSM    C9S11761   6.158   1.741  10.258  0.0485 -0.3994 -0.2787
  113OSM    H9S11762   6.264   1.708  10.259 -0.1766 -1.1455  1.2811
  113OSM    H9T11763   6.157   1.849  10.232  1.9604 -0.3176 -0.0790
  113OSM   C10S11764   6.095   1.641  10.169 -0.3074  1.0293 -0.2844
  113OSM   H10S11765   5.986   1.631  10.189 -0.3786  1.1644 -0.6079
  113OSM   H10T11766   6.138   1.543  10.198 -1.4722  0.9988  1.3521
  113OSM   C11S11767   6.127   1.648  10.022  0.4507  0.0580 -0.3007
  113OSM   H11S11768   6.238   1.649  10.013  0.4512  1.3808 -0.2379
  113OSM   H11T11769   6.095   1.747   9.983  0.8133 -0.9051 -3.1803
  113OSM   C12S11770   6.067   1.542   9.930  0.2208  0.0741 -0.3220
  113OSM   H12S11771   5.958   1.550   9.950 -0.0928  1.5785 -2.5084
  113OSM   H12T11772   6.105   1.448   9.976 -0.8027 -0.6563 -0.9599
  113OSM   C13S11773   6.105   1.572   9.784  0.0072  0.7511 -0.6110
  113OSM   H13S11774   6.118   1.478   9.727 -0.5465  1.6639 -2.2648
  113OSM   H13T11775   6.209   1.610   9.778  0.4774 -0.1098  1.5168
  113OSM   C14S11776   5.990   1.646   9.717 -0.3274 -0.4817  0.1485
  113OSM   H14S11777   5.986   1.749   9.760  2.3393 -0.6426  0.8473
  113OSM   H14T11778   5.893   1.600   9.745 -0.7399  0.0355 -0.4017
  113OSM   C15S11779   6.003   1.652   9.564  0.0249 -0.2277 -0.0349
  113OSM   H15S11780   6.018   1.548   9.530 -0.8406 -0.3621 -0.0196
  113OSM   H15T11781   6.091   1.715   9.535 -0.6681  2.0759  2.6452
  113OSM   C16S11782   5.875   1.709   9.497 -0.4924 -1.0023 -0.1025
  113OSM   H16S11783   5.852   1.807   9.544  1.0989 -0.3288 -0.6964
  113OSM   H16T11784   5.786   1.649   9.525 -1.1138 -0.6577 -1.3326
  113OSM   C17S11785   5.890   1.729   9.348 -0.2055  0.0118  0.6620
  113OSM   H17S11786   5.924   1.635   9.300 -1.4780 -0.7425  1.1950
  113OSM   H17T11787   5.968   1.803   9.324  0.5744 -1.4835 -1.5911
  113OSM   C18S11788   5.764   1.769   9.283 -0.4918  0.2683  0.5250
  113OSM   H18S11789   5.737   1.877   9.288 -2.1698 -0.0917 -0.4808
  113OSM   H18T11790   5.686   1.703   9.328 -0.8686  0.7237  0.5475
  113OSM   H18U11791   5.768   1.755   9.173  0.8443  0.5914  0.5220
  113OSM    C1F11792   6.268   1.333  10.518  0.1558 -0.1548  0.2264
  113OSM     OF11793   6.224   1.221  10.531  0.7019 -0.3543  0.6601
  113OSM    C2F11794   6.314   1.392  10.387 -0.9846 -0.4676  0.0817
  113OSM    H2F11795   6.319   1.502  10.404 -0.7660 -0.8241  2.5372
  113OSM    H2G11796   6.231   1.369  10.317  0.1065 -1.7830 -0.7893
  113OSM    C3F11797   6.451   1.341  10.335  0.7099  0.5800  0.1856
  113OSM    H3F11798   6.445   1.231  10.320  0.3485  0.3102  2.2374
  113OSM    H3G11799   6.530   1.374  10.406  0.2938  1.8623  0.0497
  113OSM    C4F11800   6.487   1.405  10.202  0.1797 -0.4599  0.2687
  113OSM    H4F11801   6.516   1.512  10.214 -0.8860  0.1605 -2.3144
  113OSM    H4G11802   6.397   1.387  10.139 -0.0339  2.6426 -0.4162
  113OSM    C5F11803   6.601   1.338  10.121  0.3188 -0.1371  0.1069
  113OSM    H5F11804   6.567   1.238  10.086  0.0538  0.2139 -0.6538
  113OSM    H5G11805   6.676   1.316  10.200 -2.3857 -0.1548  2.7739
  113OSM    C6F11806   6.654   1.428  10.014  0.5992 -0.3144 -0.3323
  113OSM    H6F11807   6.737   1.370   9.968 -0.7390 -0.1225 -3.0858
  113OSM    H6G11808   6.690   1.525  10.054  0.1457 -0.6607  0.9354
  113OSM    C7F11809   6.551   1.472   9.909  0.0888 -0.6303  0.9341
  113OSM    H7F11810   6.459   1.517   9.952 -0.7793 -0.3437 -1.1376
  113OSM    H7G11811   6.513   1.392   9.842 -0.1821  1.8933 -2.0406
  113OSM    C8F11812   6.613   1.580   9.810  0.0376  0.7606 -0.3388
  113OSM    H8F11813   6.708   1.530   9.782  0.0188 -0.4284  1.6413
  113OSM    H8G11814   6.646   1.669   9.869 -1.3003  0.3332  1.0788
  113OSM    C9F11815   6.522   1.613   9.692 -0.2494  0.1352  0.2896
  113OSM    H9F11816   6.466   1.708   9.696  0.9158  1.1149 -3.9289
  113OSM   C10F11817   6.524   1.546   9.576 -0.0496  0.4642 -0.3881
  113OSM   H10F11818   6.452   1.574   9.498  0.7829  1.7549 -0.7124
  113OSM   C11F11819   6.610   1.426   9.540 -0.2967  0.6302 -1.0303
  113OSM   H11F11820   6.542   1.348   9.502 -0.0026 -0.3217  0.3452
  113OSM   H11G11821   6.669   1.390   9.627  0.1160  1.5991 -0.9004
  113OSM   C12F11822   6.697   1.441   9.415  0.8737 -0.0368  0.2281
  113OSM   H12F11823   6.764   1.353   9.401  1.6721  0.5477  0.3751
  113OSM   H12G11824   6.765   1.528   9.426 -1.0218  1.4106  0.6410
  113OSM   C13F11825   6.607   1.440   9.292 -0.1260 -0.7310 -0.0661
  113OSM   H13F11826   6.521   1.511   9.293 -1.1576 -1.9388 -0.4181
  113OSM   H13G11827   6.566   1.337   9.286  1.8608 -1.4815 -1.2713
  113OSM   C14F11828   6.702   1.457   9.165  0.9470  0.1863 -0.0338
  113OSM   H14F11829   6.780   1.378   9.177  0.8584  0.1991  0.6279
  113OSM   H14G11830   6.762   1.549   9.176 -1.3029  1.6632  0.2634
  113OSM   C15F11831   6.619   1.431   9.037 -0.3677 -0.1382 -0.0031
  113OSM   H15F11832   6.545   1.513   9.037  2.3532  2.3879 -0.8808
  113OSM   H15G11833   6.561   1.337   9.054  0.0018 -0.5145 -0.7875
  113OSM   C16F11834   6.695   1.433   8.900 -0.1831 -0.3041  0.5985
  113OSM   H16F11835   6.775   1.362   8.931  0.4300  0.9577  1.9507
  113OSM   H16G11836   6.741   1.534   8.901 -2.1379  0.6056  1.9839
  113OSM   C17F11837   6.605   1.405   8.782  0.1504  0.2833  0.3560
  113OSM   H17F11838   6.522   1.478   8.772 -0.8143 -0.5258  2.1781
  113OSM   H17G11839   6.559   1.310   8.816 -1.5569 -0.0861 -2.8466
  113OSM   C18F11840   6.679   1.359   8.651 -0.0724 -0.5593 -0.0823
  113OSM   H18F11841   6.627   1.284   8.588 -0.3611 -0.0484 -0.4551
  113OSM   H18G11842   6.778   1.319   8.683 -0.8922 -2.4069  0.1913
  113OSM   H18H11843   6.703   1.445   8.585 -1.1533  1.0741  1.5837
  114OSM      N11844   1.927   4.703  11.069  0.5298  0.3549  0.4064
  114OSM    C1511845   2.003   4.764  10.955  0.3865 -0.0598 -0.5750
  114OSM   H15A11846   1.937   4.832  10.903  0.9937  1.4942  0.6444
  114OSM   H15B11847   2.045   4.689  10.890 -0.2724 -2.4520  1.7138
  114OSM   H15C11848   2.075   4.834  10.996  0.0473 -0.2061  0.2840
  114OSM    C1411849   2.023   4.615  11.139  0.2345  1.1640  0.0140
  114OSM   H14A11850   1.983   4.576  11.231  2.9117 -0.1978  0.6633
  114OSM   H14B11851   2.118   4.658  11.167  0.6361 -0.9959  2.1688
  114OSM   H14C11852   2.041   4.527  11.079 -0.9620 -0.0160  1.3551
  114OSM    C1311853   1.876   4.804  11.161 -0.4150  0.0949  0.2819
  114OSM   H13A11854   1.818   4.882  11.113 -0.8946 -1.2408 -1.3430
  114OSM   H13B11855   1.947   4.868  11.212 -0.6227 -0.0145  0.7081
  114OSM   H13C11856   1.812   4.762  11.236 -2.8903  0.4425 -1.5653
  114OSM    C1211857   1.800   4.625  11.029 -0.0924  0.2473 -0.7660
  114OSM   H12A11858   1.725   4.698  11.002 -1.3517 -1.2099 -1.2307
  114OSM   H12B11859   1.759   4.571  11.113  0.1390 -1.7417 -1.9185
  114OSM    C1111860   1.811   4.526  10.906 -0.2250 -0.8175  0.2253
  114OSM   H11A11861   1.811   4.598  10.822 -2.1795 -0.6041  0.3770
  114OSM   H11B11862   1.724   4.464  10.876  0.6472 -1.9555  0.0380
  114OSM      P11863   1.930   4.310  10.991  0.2822 -0.3795 -0.1809
  114OSM    O1311864   2.061   4.310  11.065 -0.1252 -0.1731  0.2543
  114OSM    O1411865   1.806   4.284  11.063 -0.5364  0.0690  0.1225
  114OSM    O1111866   1.937   4.211  10.878 -0.1412 -0.0429 -0.4777
  114OSM    O1211867   1.925   4.452  10.914 -0.3761  0.0709  0.2112
  114OSM    C1S11868   1.830   4.198  10.786  0.0287 -0.1690  0.9013
  114OSM    H1S11869   1.739   4.258  10.805  0.0865  0.4359 -0.6471
  114OSM    H1T11870   1.807   4.089  10.781 -1.1918  0.1086  0.2297
  114OSM     NF11871   1.772   4.239  10.549 -0.3083 -0.0547 -0.2930
  114OSM    HNF11872   1.780   4.176  10.472  1.1218 -0.0061 -0.2101
  114OSM    C2S11873   1.886   4.244  10.642 -0.3137  0.5795  0.5506
  114OSM    H2S11874   1.916   4.351  10.648  2.3040  0.1364 -3.0007
  114OSM    C3S11875   2.012   4.155  10.602 -0.4391  0.2330  0.4624
  114OSM    H3S11876   1.965   4.054  10.598  3.3180 -1.5778  0.7028
  114OSM     O311877   2.127   4.163  10.691  0.0832  0.1889 -0.0961
  114OSM    HO311878   2.096   4.205  10.772  0.7850  1.6647 -0.5666
  114OSM    C4S11879   2.046   4.193  10.460 -0.8090 -0.9509 -0.1107
  114OSM    H4S11880   2.002   4.124  10.387 -1.7338 -4.2835  3.4902
  114OSM    C5S11881   2.123   4.302  10.424  0.0916 -0.2231 -0.4770
  114OSM    H5S11882   2.167   4.361  10.506  0.9826 -0.5906 -0.6852
  114OSM    C6S11883   2.173   4.327  10.282  0.4265  0.2136  0.2158
  114OSM    H6S11884   2.218   4.231  10.248  1.3420  1.4163 -2.0160
  114OSM    H6T11885   2.257   4.398  10.265  0.0887  0.4302 -0.5412
  114OSM    C7S11886   2.058   4.374  10.191 -0.5559  0.1703  0.8898
  114OSM    H7S11887   2.044   4.481  10.216 -3.7866 -0.2322  0.9502
  114OSM    H7T11888   1.955   4.335  10.207 -1.0144  0.3313 -1.4045
  114OSM    C8S11889   2.080   4.366  10.041  0.1696 -0.5467 -0.0749
  114OSM    H8S11890   2.177   4.414  10.014  0.5561 -0.3255  1.6438
  114OSM    H8T11891   2.012   4.440   9.994 -0.2436 -1.7812 -1.4733
  114OSM    C9S11892   2.081   4.225   9.979 -0.2089 -0.5584  0.3311
  114OSM    H9S11893   1.985   4.174  10.003 -0.6761  0.7187  1.2234
  114OSM    H9T11894   2.170   4.161  10.001 -0.1537 -0.6600 -0.1826
  114OSM   C10S11895   2.078   4.241   9.820 -0.0187 -0.1396 -0.8363
  114OSM   H10S11896   2.178   4.281   9.792  1.1277 -2.4097 -0.1170
  114OSM   H10T11897   2.005   4.320   9.794  1.5603  1.6497  0.0929
  114OSM   C11S11898   2.058   4.117   9.742  0.5500 -0.1251  0.2118
  114OSM   H11S11899   1.961   4.071   9.773  0.6348 -2.0403 -2.2797
  114OSM   H11T11900   2.126   4.036   9.775  0.3625 -0.4366 -0.1641
  114OSM   C12S11901   2.060   4.152   9.594 -0.1123 -0.2821 -0.2272
  114OSM   H12S11902   2.168   4.162   9.567  0.1058  0.1349  0.7747
  114OSM   H12T11903   2.002   4.243   9.567  0.5880 -0.2842 -1.7920
  114OSM   C13S11904   2.018   4.034   9.498  0.6409 -0.2330  0.0661
  114OSM   H13S11905   1.909   4.008   9.497 -0.3354  3.6381 -0.9921
  114OSM   H13T11906   2.079   3.949   9.534  1.5676 -0.1136 -1.1919
  114OSM   C14S11907   2.069   4.077   9.361  0.7830 -0.3670 -0.3529
  114OSM   H14S11908   2.177   4.099   9.377  0.3633  0.4719  1.4764
  114OSM   H14T11909   2.013   4.170   9.339  1.6625  0.5294  1.0474
  114OSM   C15S11910   2.071   3.969   9.253 -0.4872 -0.2822 -1.1452
  114OSM   H15S11911   2.098   3.866   9.285 -1.4748 -0.8443 -2.0767
  114OSM   H15T11912   2.150   4.001   9.182 -0.9275  1.5959 -0.7953
  114OSM   C16S11913   1.942   3.960   9.170  0.5474  0.3762 -0.6873
  114OSM   H16S11914   1.936   4.058   9.117 -0.1266 -0.1347 -1.5713
  114OSM   H16T11915   1.853   3.949   9.236  0.8637 -2.8990 -0.7220
  114OSM   C17S11916   1.931   3.837   9.075  0.9945  0.1830  0.5306
  114OSM   H17S11917   1.831   3.795   9.053  0.2005  1.3725  1.8458
  114OSM   H17T11918   1.985   3.759   9.133  0.1541  0.0807  1.1848
  114OSM   C18S11919   2.018   3.858   8.946 -0.1486 -0.2939  0.2671
  114OSM   H18S11920   1.953   3.910   8.873 -1.2501  0.8024  2.0016
  114OSM   H18T11921   2.058   3.760   8.914  0.6407  0.0658  0.1216
  114OSM   H18U11922   2.109   3.918   8.970 -1.6583  2.1511  0.0235
  114OSM    C1F11923   1.676   4.329  10.558 -0.0697 -0.0799 -0.4058
  114OSM     OF11924   1.686   4.421  10.640  0.5271  0.4257 -0.2294
  114OSM    C2F11925   1.544   4.309  10.491 -0.0831  0.4934  0.0617
  114OSM    H2F11926   1.463   4.298  10.567 -1.4630 -0.5752 -1.5072
  114OSM    H2G11927   1.548   4.212  10.437  2.3519 -0.4794  1.9046
  114OSM    C3F11928   1.503   4.432  10.398 -0.0414  0.3638 -0.6695
  114OSM    H3F11929   1.592   4.460  10.337 -0.7609  2.3982 -0.8228
  114OSM    H3G11930   1.484   4.526  10.454  0.5635 -0.2108  0.5298
  114OSM    C4F11931   1.367   4.404  10.321 -0.4475 -0.5188  0.1234
  114OSM    H4F11932   1.275   4.394  10.382 -0.3183  0.1722  0.4373
  114OSM    H4G11933   1.356   4.304  10.273 -0.5150 -0.0428 -0.8586
  114OSM    C5F11934   1.334   4.516  10.226 -0.0818  0.2442  0.6150
  114OSM    H5F11935   1.400   4.600  10.255 -1.8711  1.7579  0.4270
  114OSM    H5G11936   1.225   4.534  10.238  0.2202  2.6098 -0.0057
  114OSM    C6F11937   1.354   4.487  10.075  0.0478 -0.3387  0.3357
  114OSM    H6F11938   1.298   4.396  10.044  0.1846 -0.4860  0.5129
  114OSM    H6G11939   1.462   4.467  10.059  0.1557  1.8019 -1.8036
  114OSM    C7F11940   1.330   4.608   9.975  0.2069 -0.0413  0.2692
  114OSM    H7F11941   1.411   4.681   9.995  0.4292  0.4225 -2.1149
  114OSM    H7G11942   1.243   4.667  10.010  1.3915  1.0239  1.4655
  114OSM    C8F11943   1.345   4.579   9.828  0.0926  0.0757 -0.2898
  114OSM    H8F11944   1.430   4.509   9.810 -0.2449 -1.0060  2.1317
  114OSM    H8G11945   1.384   4.661   9.764  1.7924 -0.6709 -0.2640
  114OSM    C9F11946   1.222   4.519   9.779  0.0615 -0.4561  0.2140
  114OSM    H9F11947   1.193   4.427   9.831 -1.0247  0.7831  1.8492
  114OSM   C10F11948   1.144   4.566   9.680 -0.1026 -0.2536 -0.0406
  114OSM   H10F11949   1.044   4.522   9.664  0.0408 -1.0493  1.1552
  114OSM   C11F11950   1.154   4.694   9.593  0.4560 -0.0947 -0.0433
  114OSM   H11F11951   1.249   4.747   9.617 -0.5053  1.7608 -0.2194
  114OSM   H11G11952   1.073   4.763   9.623  0.1860 -0.6281  0.4747
  114OSM   C12F11953   1.147   4.663   9.441  0.2967  0.0241 -0.5774
  114OSM   H12F11954   1.133   4.759   9.386 -2.6260  1.0640  1.8011
  114OSM   H12G11955   1.057   4.601   9.422 -0.9133  1.2882  0.8736
  114OSM   C13F11956   1.272   4.592   9.389  0.4863 -0.5955  0.5516
  114OSM   H13F11957   1.279   4.503   9.454 -0.4790 -0.4776  0.8235
  114OSM   H13G11958   1.364   4.655   9.398  1.6924 -2.5078  2.1252
  114OSM   C14F11959   1.282   4.563   9.238 -0.1028  0.4969 -0.4017
  114OSM   H14F11960   1.386   4.529   9.219 -0.2401  0.5867 -1.3270
  114OSM   H14G11961   1.277   4.654   9.174  0.4938  1.9642  1.5778
  114OSM   C15F11962   1.196   4.438   9.196 -0.0942 -0.1220  0.3405
  114OSM   H15F11963   1.088   4.461   9.211  0.6643  2.6190  2.0907
  114OSM   H15G11964   1.212   4.356   9.269  1.0172 -0.9310 -0.7993
  114OSM   C16F11965   1.220   4.393   9.049 -0.3626  0.1329 -0.1806
  114OSM   H16F11966   1.326   4.357   9.050 -0.6489 -0.7391 -0.9265
  114OSM   H16G11967   1.202   4.483   8.986  0.3659  0.5243  0.1619
  114OSM   C17F11968   1.119   4.279   9.010 -0.3604 -0.0334  0.2904
  114OSM   H17F11969   1.147   4.193   9.073 -1.0321  0.2496  0.9771
  114OSM   H17G11970   1.140   4.234   8.910  1.3626  1.2049  0.0639
  114OSM   C18F11971   0.967   4.311   9.022 -0.2498 -0.1515  0.4710
  114OSM   H18F11972   0.959   4.407   8.966  0.5861 -0.2592  0.1486
  114OSM   H18G11973   0.949   4.322   9.131 -0.9467  0.9717  0.2508
  114OSM   H18H11974   0.906   4.232   8.974 -0.8074  0.8394 -0.4831
  115OSM      N11975   6.177   3.886  10.869 -0.5382  0.2187 -0.2381
  115OSM    C1511976   6.319   3.913  10.914  0.1006 -0.4512 -0.8696
  115OSM   H15A11977   6.381   3.932  10.827 -0.3270 -1.8324 -1.4766
  115OSM   H15B11978   6.348   3.820  10.960 -1.3033 -0.5031 -0.0635
  115OSM   H15C11979   6.336   3.991  10.986  0.5486 -0.8051 -0.5940
  115OSM    C1411980   6.087   3.879  10.987 -0.6072  0.0541  0.1096
  115OSM   H14A11981   5.989   3.840  10.965  0.1133 -0.4800 -2.3408
  115OSM   H14B11982   6.065   3.978  11.024 -0.7176  0.2365 -0.4454
  115OSM   H14C11983   6.129   3.809  11.058 -1.2194 -0.0614  0.3569
  115OSM    C1311984   6.150   4.007  10.794  0.4742 -0.0810 -0.9216
  115OSM   H13A11985   6.049   4.011  10.755 -0.2848 -1.6145  0.8132
  115OSM   H13B11986   6.215   4.025  10.709  0.9965 -1.2102 -0.7826
  115OSM   H13C11987   6.160   4.094  10.857  2.9331  0.5190 -2.0502
  115OSM    C1211988   6.174   3.761  10.778  0.2718 -0.6544 -0.7009
  115OSM   H12A11989   6.228   3.680  10.825 -0.6132 -1.5495 -1.2264
  115OSM   H12B11990   6.239   3.782  10.694 -0.7654  3.0095 -0.6786
  115OSM    C1111991   6.037   3.724  10.722  0.2985 -0.6168  0.4340
  115OSM   H11A11992   6.059   3.676  10.625  0.4406 -0.2839  0.3019
  115OSM   H11B11993   5.984   3.819  10.697 -1.3461 -1.9901 -1.4376
  115OSM      P11994   5.994   3.496  10.838 -0.4319  0.1230 -0.1732
  115OSM    O1311995   6.140   3.478  10.866  0.7657 -0.3157  0.4211
  115OSM    O1411996   5.903   3.428  10.935  0.0377 -0.2917 -0.1920
  115OSM    O1111997   5.951   3.432  10.701 -0.0078 -0.6905 -0.3967
  115OSM    O1211998   5.964   3.646  10.817  0.3478 -0.1484  0.2783
  115OSM    C1S11999   5.825   3.470  10.648  0.5564  1.1020 -0.7752
  115OSM    H1S12000   5.835   3.553  10.576 -0.7807 -0.6446 -3.0373
  115OSM    H1T12001   5.748   3.499  10.723  1.1161  1.8556 -0.4806
  115OSM     NF12002   5.619   3.425  10.530 -0.6261  0.3089  0.1267
  115OSM    HNF12003   5.539   3.398  10.583 -0.0428 -1.0124  0.3609
  115OSM    C2S12004   5.753   3.370  10.562  0.6799  0.0534 -0.5597
  115OSM    H2S12005   5.810   3.362  10.466  1.7377  0.8670 -0.0013
  115OSM    C3S12006   5.746   3.239  10.635 -0.4538 -0.4250  0.7456
  115OSM    H3S12007   5.695   3.254  10.733 -0.5389  1.3016  0.4457
  115OSM     O312008   5.867   3.187  10.667  0.0923  0.0128  0.0503
  115OSM    HO312009   5.935   3.254  10.652 -1.6887  1.7484 -0.4756
  115OSM    C4S12010   5.658   3.143  10.560 -0.1579  0.0147 -0.2786
  115OSM    H4S12011   5.550   3.160  10.565  0.0730  2.5599 -2.5394
  115OSM    C5S12012   5.695   3.031  10.486 -0.5372 -0.3011  0.1303
  115OSM    H5S12013   5.800   3.000  10.498 -0.5598 -0.4691 -0.1033
  115OSM    C6S12014   5.599   2.935  10.422 -0.0296  0.2972 -0.4838
  115OSM    H6S12015   5.499   2.946  10.468  0.7494 -1.4991  1.7522
  115OSM    H6T12016   5.631   2.833  10.453 -0.7506 -0.2143 -1.4056
  115OSM    C7S12017   5.589   2.950  10.272 -0.5048  0.1089 -0.2039
  115OSM    H7S12018   5.690   2.929  10.231  0.2073  2.3616  0.3118
  115OSM    H7T12019   5.562   3.055  10.248  2.0190  0.5240 -1.4348
  115OSM    C8S12020   5.489   2.849  10.211 -0.6775  0.1256 -0.4190
  115OSM    H8S12021   5.389   2.865  10.256 -0.6806 -1.1812  0.0669
  115OSM    H8T12022   5.527   2.748  10.237  1.7526  1.3608  0.9973
  115OSM    C9S12023   5.465   2.860  10.064 -0.6037  0.4028  0.1536
  115OSM    H9S12024   5.469   2.965  10.029  0.0949 -0.2149 -1.6894
  115OSM    H9T12025   5.363   2.819  10.051  0.8144 -3.0488 -0.7524
  115OSM   C10S12026   5.555   2.765   9.974 -0.8361 -0.2029  0.4381
  115OSM   H10S12027   5.556   2.660  10.013 -1.2886 -0.7899 -1.1011
  115OSM   H10T12028   5.657   2.806   9.987 -0.3351 -1.4010  0.3807
  115OSM   C11S12029   5.519   2.756   9.818  0.2760 -0.0951 -1.0750
  115OSM   H11S12030   5.601   2.702   9.766 -0.6679 -2.2775 -0.3471
  115OSM   H11T12031   5.511   2.853   9.765 -1.0415 -1.2996 -3.1670
  115OSM   C12S12032   5.387   2.688   9.774  0.1447  0.4194 -0.5362
  115OSM   H12S12033   5.318   2.751   9.835 -0.8464 -2.9792  2.0351
  115OSM   H12T12034   5.385   2.578   9.791 -1.3195  0.3782 -0.8983
  115OSM   C13S12035   5.359   2.727   9.628  0.1133  0.2112  0.2207
  115OSM   H13S12036   5.351   2.836   9.610 -0.7597  0.1033 -0.0132
  115OSM   H13T12037   5.259   2.687   9.602  0.2046 -0.2832  0.6227
  115OSM   C14S12038   5.450   2.659   9.534  0.3133 -0.5775 -0.0051
  115OSM   H14S12039   5.472   2.560   9.580  2.3338  0.1882  0.7312
  115OSM   H14T12040   5.550   2.705   9.542 -0.0159  0.7300 -2.9266
  115OSM   C15S12041   5.402   2.676   9.392  0.0572 -0.3524 -0.3621
  115OSM   H15S12042   5.339   2.766   9.379  1.4289  0.6183 -0.4194
  115OSM   H15T12043   5.336   2.594   9.356 -0.1241 -1.6069  2.6262
  115OSM   C16S12044   5.520   2.667   9.291  0.4877  0.2386 -0.5035
  115OSM   H16S12045   5.576   2.573   9.312 -2.3823 -1.3163  0.4015
  115OSM   H16T12046   5.593   2.747   9.318  0.4575 -0.3946  1.5455
  115OSM   C17S12047   5.469   2.666   9.147 -0.1300 -0.4919 -0.5693
  115OSM   H17S12048   5.374   2.609   9.141 -0.7074  0.0062  2.9093
  115OSM   H17T12049   5.547   2.622   9.080 -0.6909 -1.3920 -0.6402
  115OSM   C18S12050   5.420   2.803   9.092 -0.2655 -0.6132  0.6926
  115OSM   H18S12051   5.369   2.792   8.995  0.5941  4.8789 -0.5204
  115OSM   H18T12052   5.506   2.872   9.079 -0.8258  0.1199  0.8670
  115OSM   H18U12053   5.341   2.836   9.163  0.7804  0.1956  1.4939
  115OSM    C1F12054   5.598   3.515  10.440 -0.4585 -0.5088 -0.2197
  115OSM     OF12055   5.691   3.558  10.372 -0.0962  0.7328  0.7769
  115OSM    C2F12056   5.450   3.567  10.427 -0.9940  0.5494 -0.1782
  115OSM    H2F12057   5.420   3.587  10.532 -0.1664 -1.3648  0.4474
  115OSM    H2G12058   5.395   3.479  10.388  0.1139  0.9014 -2.6330
  115OSM    C3F12059   5.439   3.687  10.335 -0.4218  0.9198  0.5404
  115OSM    H3F12060   5.463   3.668  10.228  0.8605  1.3210  0.7389
  115OSM    H3G12061   5.507   3.770  10.364  0.2958 -0.0474  1.7012
  115OSM    C4F12062   5.303   3.751  10.339 -0.2052 -0.2205 -0.0869
  115OSM    H4F12063   5.273   3.773  10.444 -1.1971  0.0988 -0.4291
  115OSM    H4G12064   5.229   3.673  10.308 -0.7864 -0.2172  1.2540
  115OSM    C5F12065   5.297   3.884  10.263 -0.5136  0.3067 -0.4445
  115OSM    H5F12066   5.304   3.860  10.155  2.6140 -0.8778 -0.0445
  115OSM    H5G12067   5.394   3.935  10.287  0.3032 -2.1575  1.7511
  115OSM    C6F12068   5.164   3.956  10.309 -0.6674 -0.1747 -0.4520
  115OSM    H6F12069   5.173   3.974  10.418 -0.2907 -0.9707 -0.3537
  115OSM    H6G12070   5.079   3.886  10.299 -0.3745 -0.7592  1.1616
  115OSM    C7F12071   5.127   4.090  10.245  0.2383 -0.3440 -0.4453
  115OSM    H7F12072   5.202   4.172  10.242  0.7537 -0.7732  0.4954
  115OSM    H7G12073   5.051   4.138  10.310  2.5476 -1.3324  3.1584
  115OSM    C8F12074   5.058   4.073  10.105 -0.2584  0.6959 -0.2365
  115OSM    H8F12075   4.986   4.157  10.103 -1.3513 -0.1590  1.5564
  115OSM    H8G12076   4.993   3.983  10.108  2.9242 -1.7180 -1.2628
  115OSM    C9F12077   5.157   4.049   9.995  0.4766  0.2623 -0.1204
  115OSM    H9F12078   5.256   4.010  10.025  1.6454 -1.0148 -5.1455
  115OSM   C10F12079   5.137   4.091   9.870 -0.4370 -0.3823 -0.1903
  115OSM   H10F12080   5.216   4.072   9.795  0.8165  3.0712  0.1652
  115OSM   C11F12081   5.011   4.160   9.823  0.2507 -0.2669 -0.2126
  115OSM   H11F12082   4.978   4.234   9.899  0.9297  0.1882 -0.3521
  115OSM   H11G12083   4.929   4.088   9.805  1.4116 -0.8546 -3.5028
  115OSM   C12F12084   5.040   4.252   9.698  0.2591  0.1837  0.3106
  115OSM   H12F12085   5.043   4.176   9.617 -2.4317 -0.8037  1.1039
  115OSM   H12G12086   5.136   4.308   9.707  1.3657 -1.7404  0.6077
  115OSM   C13F12087   4.935   4.355   9.682 -0.4098 -0.1341 -0.1869
  115OSM   H13F12088   4.924   4.416   9.774 -0.3677  1.8323 -1.4589
  115OSM   H13G12089   4.837   4.306   9.667  0.4859 -1.1713 -2.9760
  115OSM   C14F12090   4.959   4.448   9.564 -0.4964 -0.3205 -0.2868
  115OSM   H14F12091   5.051   4.511   9.564 -1.0101  0.4448  0.2129
  115OSM   H14G12092   4.877   4.520   9.546  0.4686  0.1754 -2.9844
  115OSM   C15F12093   4.990   4.375   9.430  0.5718  0.2871  0.4680
  115OSM   H15F12094   4.926   4.289   9.400  0.7045  1.1073 -2.2941
  115OSM   H15G12095   5.094   4.337   9.429  0.3673 -0.2643 -0.6213
  115OSM   C16F12096   4.976   4.473   9.310 -0.5771  0.5479  0.2911
  115OSM   H16F12097   5.057   4.543   9.338  1.7782 -1.9764 -0.0394
  115OSM   H16G12098   4.873   4.516   9.311 -1.5138 -1.6429  0.8035
  115OSM   C17F12099   5.015   4.398   9.180  0.1562 -0.0084  0.2808
  115OSM   H17F12100   4.940   4.317   9.173 -1.7249  1.5774  1.6987
  115OSM   H17G12101   5.113   4.349   9.199 -0.7894 -2.7889 -1.7747
  115OSM   C18F12102   5.010   4.490   9.064 -0.4948 -0.5286  0.0653
  115OSM   H18F12103   4.904   4.499   9.032 -0.9866  0.6119  1.9293
  115OSM   H18G12104   5.072   4.447   8.982  0.3437  0.7771  0.0055
  115OSM   H18H12105   5.053   4.589   9.088 -1.1084 -0.2832  0.1717
  116OSM      N12106   1.300   0.035  11.240 -0.0255 -1.0312  0.5584
  116OSM    C1512107   1.377  -0.077  11.296 -0.1649 -0.0231  0.1666
  116OSM   H15A12108   1.317  -0.132  11.368 -0.0784  0.3723  0.5394
  116OSM   H15B12109   1.454  -0.031  11.355  2.1281 -3.4443  0.0165
  116OSM   H15C12110   1.410  -0.136  11.212  1.4200 -0.0913  0.8156
  116OSM    C1412111   1.176  -0.013  11.181 -0.3876  0.0722 -0.2252
  116OSM   H14A12112   1.122   0.060  11.122  0.5188 -0.4117 -1.6776
  116OSM   H14B12113   1.113  -0.057  11.257  1.1183 -0.4472  0.7528
  116OSM   H14C12114   1.202  -0.087  11.107 -0.7581  0.6613 -0.9566
  116OSM    C1312115   1.280   0.142  11.345  0.4243 -0.2906  0.2482
  116OSM   H13A12116   1.207   0.124  11.423  0.5551  3.2458  1.2873
  116OSM   H13B12117   1.263   0.239  11.301  0.8919 -0.3900 -0.1516
  116OSM   H13C12118   1.376   0.152  11.393  0.1890 -0.7708  0.8342
  116OSM    C1212119   1.386   0.102  11.122 -0.3501 -0.0283 -0.4581
  116OSM   H12A12120   1.469   0.142  11.179 -1.3184  2.4177 -0.7005
  116OSM   H12B12121   1.329   0.181  11.074 -0.7168 -1.4956 -2.4856
  116OSM    C1112122   1.451   0.016  11.015 -0.3628  0.0787 -0.4689
  116OSM   H11A12123   1.475   0.084  10.930 -0.0095 -1.2571 -1.4475
  116OSM   H11B12124   1.370  -0.053  10.985 -1.7310  1.3865  0.1467
  116OSM      P12125   1.689   0.015  11.090  0.3035  0.0826 -0.0692
  116OSM    O1312126   1.662   0.127  11.175  0.2622 -0.6726  0.2353
  116OSM    O1412127   1.789  -0.084  11.140 -0.0221 -0.2270  0.4360
  116OSM    O1112128   1.716   0.067  10.946 -0.2737 -0.1560  0.7783
  116OSM    O1212129   1.559  -0.054  11.067  0.6132  0.1794  0.3171
  116OSM    C1S12130   1.748  -0.022  10.840 -0.5614  0.3432 -0.9134
  116OSM    H1S12131   1.681  -0.110  10.847 -0.6837  0.6823  3.0384
  116OSM    H1T12132   1.844  -0.074  10.859 -1.5061 -0.5005  1.7784
  116OSM     NF12133   1.767  -0.056  10.595 -0.9184 -0.4837  0.3961
  116OSM    HNF12134   1.861  -0.061  10.560 -0.9100  4.2294 -0.5570
  116OSM    C2S12135   1.749   0.038  10.698  0.2931 -0.0353 -0.2291
  116OSM    H2S12136   1.646   0.078  10.690  0.0241 -0.8831 -1.1127
  116OSM    C3S12137   1.848   0.163  10.686  0.2683 -0.6932 -0.3236
  116OSM    H3S12138   1.954   0.130  10.685  1.0180  1.6368 -1.4172
  116OSM     O312139   1.837   0.254  10.791 -0.0025 -0.4791 -0.0746
  116OSM    HO312140   1.778   0.209  10.852  0.2031 -0.6593 -0.0044
  116OSM    C4S12141   1.817   0.233  10.556 -0.9514 -0.8109  1.2709
  116OSM    H4S12142   1.723   0.290  10.559  1.1763  2.9221  0.7211
  116OSM    C5S12143   1.906   0.246  10.451  0.0776 -0.6229  0.2843
  116OSM    H5S12144   2.010   0.211  10.450 -0.2038 -1.5198 -2.7806
  116OSM    C6S12145   1.874   0.321  10.327 -0.0852  0.6755 -0.0987
  116OSM    H6S12146   1.937   0.412  10.316  2.1684 -1.0175 -1.6994
  116OSM    H6T12147   1.766   0.344  10.314 -0.2559  0.5680  1.0837
  116OSM    C7S12148   1.917   0.240  10.206  0.3033 -0.1122 -0.3422
  116OSM    H7S12149   1.862   0.144  10.205  0.2846 -0.1216  0.6805
  116OSM    H7T12150   2.027   0.224  10.207  0.2521 -0.7507  3.6012
  116OSM    C8S12151   1.875   0.319  10.077  0.2130  0.4821  0.2797
  116OSM    H8S12152   1.924   0.417  10.096  1.4670  0.1579 -1.2262
  116OSM    H8T12153   1.764   0.324  10.075  0.1440 -1.2243 -0.7720
  116OSM    C9S12154   1.912   0.260   9.934  0.6865  0.2217  0.0310
  116OSM    H9S12155   1.854   0.166   9.939 -0.1819  0.8686  3.8606
  116OSM    H9T12156   2.022   0.241   9.938  0.8361  1.2149  1.2466
  116OSM   C10S12157   1.870   0.349   9.819  0.0328 -0.2460  0.0786
  116OSM   H10S12158   1.908   0.450   9.847  1.4124 -0.0072 -2.5264
  116OSM   H10T12159   1.760   0.352   9.808  0.2131  1.6220 -1.4855
  116OSM   C11S12160   1.938   0.327   9.684  0.9595 -0.3031  0.3908
  116OSM   H11S12161   1.888   0.240   9.637  1.0694 -1.4113  2.2466
  116OSM   H11T12162   2.042   0.316   9.722  1.0545 -2.9781 -0.4978
  116OSM   C12S12163   1.935   0.438   9.569  0.4878 -0.1267 -0.4648
  116OSM   H12S12164   2.020   0.418   9.500  0.7780  1.1998 -0.5174
  116OSM   H12T12165   1.945   0.539   9.615  0.1410 -1.7351  3.3738
  116OSM   C13S12166   1.796   0.456   9.511  0.0704  0.3189  0.1259
  116OSM   H13S12167   1.735   0.501   9.592 -0.5231  0.5700 -0.4553
  116OSM   H13T12168   1.763   0.353   9.483 -1.2272  0.6879  0.2753
  116OSM   C14S12169   1.779   0.548   9.383  0.5304 -0.0620 -1.1901
  116OSM   H14S12170   1.848   0.510   9.305 -0.0456  1.3614 -2.4219
  116OSM   H14T12171   1.821   0.650   9.399  0.6659 -0.1479 -1.0102
  116OSM   C15S12172   1.630   0.553   9.327  0.4147  0.4813 -0.1071
  116OSM   H15S12173   1.555   0.579   9.405  0.7645  0.9097  0.0874
  116OSM   H15T12174   1.599   0.452   9.292  0.1955  0.4412  0.2085
  116OSM   C16S12175   1.616   0.631   9.194  0.3957  0.4628 -0.0902
  116OSM   H16S12176   1.706   0.630   9.128 -0.1927 -1.3570 -0.8831
  116OSM   H16T12177   1.598   0.737   9.220 -1.1678 -0.3448  2.2819
  116OSM   C17S12178   1.501   0.571   9.113  0.0918  0.1528  0.4108
  116OSM   H17S12179   1.409   0.565   9.174 -1.8235  0.3517 -2.3552
  116OSM   H17T12180   1.525   0.468   9.078 -1.5758  0.6983 -2.4254
  116OSM   C18S12181   1.465   0.643   8.982  0.2088 -0.1090  0.0878
  116OSM   H18S12182   1.474   0.754   8.988 -0.5005  0.0063 -0.8829
  116OSM   H18T12183   1.362   0.619   8.949  0.9007 -2.1892 -0.6324
  116OSM   H18U12184   1.533   0.608   8.902 -0.9570 -3.0880  0.3315
  116OSM    C1F12185   1.677  -0.153  10.575  0.0162 -0.3679  0.1835
  116OSM     OF12186   1.567  -0.155  10.625 -0.3780  0.2644  0.2442
  116OSM    C2F12187   1.721  -0.277  10.500  0.1177 -0.2850 -0.4987
  116OSM    H2F12188   1.687  -0.364  10.561 -2.2130 -0.8299 -2.5045
  116OSM    H2G12189   1.829  -0.264  10.479  0.2169  0.9056  0.6876
  116OSM    C3F12190   1.647  -0.300  10.363 -0.6043  0.2872 -0.5233
  116OSM    H3F12191   1.538  -0.307  10.384 -0.1944 -1.6804  1.0790
  116OSM    H3G12192   1.693  -0.399  10.339  3.2309  1.5053  1.2795
  116OSM    C4F12193   1.688  -0.198  10.259 -0.0134 -0.0803  0.3042
  116OSM    H4F12194   1.799  -0.191  10.261  0.1983 -2.7886  0.1772
  116OSM    H4G12195   1.643  -0.096  10.262 -1.8322 -0.8784  1.0627
  116OSM    C5F12196   1.662  -0.250  10.118  0.1874  0.0629 -0.8257
  116OSM    H5F12197   1.555  -0.271  10.097 -0.8533  2.3941  1.8084
  116OSM    H5G12198   1.723  -0.343  10.116  3.7125  2.2625  0.3263
  116OSM    C6F12199   1.718  -0.156  10.008 -0.1255  0.8309  0.3708
  116OSM    H6F12200   1.826  -0.132  10.016 -0.3718  2.7835 -1.4528
  116OSM    H6G12201   1.671  -0.055  10.009  0.9633  1.3663 -0.5717
  116OSM    C7F12202   1.708  -0.217   9.861  0.8480  0.5427  0.1476
  116OSM    H7F12203   1.778  -0.302   9.848  1.9234  1.1724  1.7223
  116OSM    H7G12204   1.743  -0.135   9.795  0.4005 -0.3677 -1.2583
  116OSM    C8F12205   1.571  -0.265   9.809  0.1497 -0.1380  0.2586
  116OSM    H8F12206   1.501  -0.181   9.787  0.2960 -0.7641 -2.6931
  116OSM    H8G12207   1.518  -0.318   9.891  1.3576 -0.1949  1.0254
  116OSM    C9F12208   1.591  -0.341   9.678 -0.0255 -0.0690 -0.3415
  116OSM    H9F12209   1.578  -0.450   9.687  2.1593 -0.4609 -1.5180
  116OSM   C10F12210   1.615  -0.300   9.552 -0.0038 -0.4751 -0.1008
  116OSM   H10F12211   1.622  -0.369   9.467  1.2958  0.1894 -0.5527
  116OSM   C11F12212   1.638  -0.158   9.507  0.1322 -0.5249 -0.4102
  116OSM   H11F12213   1.613  -0.069   9.568 -0.9092 -0.0129 -1.5529
  116OSM   H11G12214   1.586  -0.141   9.410 -1.8790  3.0078  1.1718
  116OSM   C12F12215   1.789  -0.117   9.484  0.4920  0.0583 -0.2759
  116OSM   H12F12216   1.847  -0.211   9.497  0.1876 -0.0837  0.0622
  116OSM   H12G12217   1.830  -0.056   9.568 -1.4251 -1.1483  1.5740
  116OSM   C13F12218   1.823  -0.053   9.348  0.7750 -0.1786 -0.1644
  116OSM   H13F12219   1.749   0.026   9.323 -0.0102 -0.2991  1.6796
  116OSM   H13G12220   1.824  -0.131   9.269 -1.1701 -0.5085  0.1196
  116OSM   C14F12221   1.963   0.006   9.354  0.5637 -0.5657  0.1892
  116OSM   H14F12222   2.030  -0.079   9.381 -0.4266 -1.1269  0.9238
  116OSM   H14G12223   1.955   0.066   9.447  0.3005 -2.4096  1.4052
  116OSM   C15F12224   2.003   0.078   9.228 -0.1327 -0.0688  0.3740
  116OSM   H15F12225   2.016   0.006   9.144  0.1794  3.1025 -2.3612
  116OSM   H15G12226   2.105   0.122   9.236 -0.2077  0.2406 -0.3045
  116OSM   C16F12227   1.900   0.186   9.185  0.1877  0.4314  0.0088
  116OSM   H16F12228   1.871   0.247   9.274 -0.1041  0.1774  0.0887
  116OSM   H16G12229   1.805   0.132   9.164  0.8163 -1.0611  0.9132
  116OSM   C17F12230   1.949   0.290   9.074  0.4031  0.3012 -0.0306
  116OSM   H17F12231   2.054   0.315   9.100  0.1099  0.6432  0.8561
  116OSM   H17G12232   1.889   0.383   9.080  1.1676  0.7791  0.2639
  116OSM   C18F12233   1.937   0.229   8.937  0.2050 -0.4788 -0.0666
  116OSM   H18F12234   1.980   0.301   8.863  1.0978 -0.5306  0.3975
  116OSM   H18G12235   1.831   0.207   8.914  0.3522 -2.6165  1.1845
  116OSM   H18H12236   1.975   0.126   8.923  0.0519 -0.7779  1.6009
  117OSM      N12237   5.724   1.090  11.267  0.3654  0.6147 -0.0298
  117OSM    C1512238   5.764   0.953  11.315  0.1969 -0.1247 -0.6570
  117OSM   H15A12239   5.866   0.931  11.291 -0.2358 -2.1604 -0.6887
  117OSM   H15B12240   5.700   0.883  11.264  1.6352 -1.0749 -1.1748
  117OSM   H15C12241   5.739   0.940  11.419 -1.8929 -1.2095 -1.2630
  117OSM    C1412242   5.584   1.120  11.295 -0.5022  0.0013 -0.3302
  117OSM   H14A12243   5.577   1.228  11.297  1.0187  0.0982  0.5910
  117OSM   H14B12244   5.561   1.099  11.399 -0.0958  0.0851 -0.2226
  117OSM   H14C12245   5.514   1.076  11.226  0.3313 -0.2100 -1.0511
  117OSM    C1312246   5.807   1.196  11.338  0.0097  0.2633 -0.5251
  117OSM   H13A12247   5.904   1.151  11.354  0.1135 -0.6743 -3.4484
  117OSM   H13B12248   5.761   1.222  11.432 -1.5598  1.5030 -1.6166
  117OSM   H13C12249   5.827   1.290  11.290  0.5180  1.3475  1.7538
  117OSM    C1212250   5.747   1.103  11.118  0.1117  0.5107 -0.2671
  117OSM   H12A12251   5.722   1.204  11.089 -0.1148  0.5437  0.0347
  117OSM   H12B12252   5.679   1.044  11.059  0.2967 -1.4765  1.4539
  117OSM    C1112253   5.887   1.076  11.065 -0.5775 -0.1807  0.0615
  117OSM   H11A12254   5.958   1.139  11.122 -1.5836  2.2027 -1.2327
  117OSM   H11B12255   5.896   1.115  10.961  0.3142  2.8643  1.2090
  117OSM      P12256   5.855   0.830  10.979 -0.8009 -0.5380  0.3615
  117OSM    O1312257   5.914   0.698  11.005  0.5709 -0.4225  0.0375
  117OSM    O1412258   5.708   0.843  10.971 -0.1708  0.1834 -0.2141
  117OSM    O1112259   5.916   0.884  10.843  0.3625 -0.5540 -0.1921
  117OSM    O1212260   5.912   0.935  11.083  0.0612 -0.3138 -0.3195
  117OSM    C1S12261   6.056   0.928  10.824 -0.1449  0.4543 -0.4747
  117OSM    H1S12262   6.123   0.877  10.896 -3.1967 -1.2895  1.2475
  117OSM    H1T12263   6.060   1.037  10.847 -3.1133  0.6552 -0.6902
  117OSM     NF12264   6.223   0.953  10.656 -0.0345  0.1317  0.0219
  117OSM    HNF12265   6.229   1.041  10.610 -2.1680  0.7699  0.9138
  117OSM    C2S12266   6.092   0.912  10.672  0.9266  0.1945  0.5597
  117OSM    H2S12267   6.088   0.803  10.653  2.1042  0.2909 -0.2906
  117OSM    C3S12268   5.991   0.995  10.583 -0.6145 -0.3947 -0.3956
  117OSM    H3S12269   6.006   1.102  10.609 -2.2868 -0.4132  0.7148
  117OSM     O312270   5.854   0.968  10.600  0.5290 -0.3343 -0.5283
  117OSM    HO312271   5.838   0.919  10.680  2.9622  0.1996  0.3153
  117OSM    C4S12272   6.013   0.961  10.445  0.6536 -0.6598 -0.6498
  117OSM    H4S12273   5.977   0.858  10.429 -1.3315  0.0730 -1.0233
  117OSM    C5S12274   6.066   1.032  10.343 -0.8605 -1.1487  0.7844
  117OSM    H5S12275   6.085   1.140  10.351  1.4355 -1.3926 -0.6753
  117OSM    C6S12276   6.075   1.005  10.194  0.5787  0.4424 -0.0837
  117OSM    H6S12277   6.020   1.088  10.146  1.0556  1.0591  0.4239
  117OSM    H6T12278   6.015   0.917  10.161 -0.0725  0.6419  0.5721
  117OSM    C7S12279   6.216   0.990  10.133  0.3356  0.2700  0.1076
  117OSM    H7S12280   6.267   0.910  10.191  0.3265  1.4873  1.8564
  117OSM    H7T12281   6.278   1.082  10.143  0.6616 -0.0476  1.0492
  117OSM    C8S12282   6.196   0.951   9.981 -0.3979 -0.2931  0.3595
  117OSM    H8S12283   6.126   0.865   9.983 -0.8501  0.0686  0.2582
  117OSM    H8T12284   6.300   0.925   9.951 -0.6829 -2.0027  0.8018
  117OSM    C9S12285   6.148   1.077   9.900  0.1200 -0.3719  0.4294
  117OSM    H9S12286   6.216   1.161   9.924  0.8541 -0.4623 -1.2427
  117OSM    H9T12287   6.050   1.102   9.944 -0.2648 -0.1621 -0.5549
  117OSM   C10S12288   6.148   1.057   9.747  0.0746  0.4769  1.0398
  117OSM   H10S12289   6.056   0.999   9.724  1.5205 -1.7218  0.6856
  117OSM   H10T12290   6.241   1.002   9.721  0.5803  2.2297 -0.9568
  117OSM   C11S12291   6.157   1.189   9.670  0.3679  0.1180 -0.0300
  117OSM   H11S12292   6.250   1.236   9.707  1.2374 -0.8614 -0.9408
  117OSM   H11T12293   6.067   1.248   9.700  0.5780  0.4466 -0.0364
  117OSM   C12S12294   6.159   1.176   9.514 -0.5335  0.1574  0.0742
  117OSM   H12S12295   6.066   1.120   9.487 -1.2083  0.1043  2.4159
  117OSM   H12T12296   6.241   1.105   9.492 -0.0850  0.5711  0.4146
  117OSM   C13S12297   6.174   1.312   9.454 -0.6295 -1.5318 -0.2635
  117OSM   H13S12298   6.252   1.365   9.512 -2.6509 -1.9639  2.9767
  117OSM   H13T12299   6.078   1.362   9.478  1.5368  2.3451  0.6700
  117OSM   C14S12300   6.200   1.318   9.314  0.2089 -0.1658  0.4936
  117OSM   H14S12301   6.110   1.271   9.267 -0.1559  0.4320  0.5975
  117OSM   H14T12302   6.290   1.256   9.294  0.1192 -0.3187  0.5533
  117OSM   C15S12303   6.216   1.465   9.268 -0.5585 -0.6808 -0.3543
  117OSM   H15S12304   6.296   1.512   9.328 -1.3272  0.1996 -0.0196
  117OSM   H15T12305   6.124   1.526   9.277 -0.4747 -0.3828 -1.4493
  117OSM   C16S12306   6.246   1.488   9.122 -0.3230 -0.2175  0.2780
  117OSM   H16S12307   6.162   1.460   9.055 -0.3358  1.4448 -0.4149
  117OSM   H16T12308   6.332   1.420   9.102 -0.6771 -0.5911  0.0211
  117OSM   C17S12309   6.281   1.637   9.091 -0.1670  0.0404  0.1079
  117OSM   H17S12310   6.333   1.637   8.993 -2.1554  0.7483 -0.9661
  117OSM   H17T12311   6.359   1.664   9.165 -0.2922  0.1536  0.1978
  117OSM   C18S12312   6.164   1.730   9.091 -0.5011  0.0396  0.3127
  117OSM   H18S12313   6.145   1.762   9.196  1.0473 -0.2740  0.7071
  117OSM   H18T12314   6.074   1.682   9.046  0.0866 -0.9613  0.1933
  117OSM   H18U12315   6.176   1.826   9.036 -1.2464 -0.1515 -0.1903
  117OSM    C1F12316   6.333   0.891  10.698 -0.2190  0.0874  0.3289
  117OSM     OF12317   6.321   0.775  10.740 -0.0068 -0.5036  0.0836
  117OSM    C2F12318   6.462   0.961  10.689  0.2438 -0.6880 -0.2662
  117OSM    H2F12319   6.510   0.945  10.788 -2.7728 -0.6295  1.2454
  117OSM    H2G12320   6.449   1.070  10.674 -0.1635 -0.7260 -0.2089
  117OSM    C3F12321   6.558   0.907  10.581 -0.2173 -0.1203 -0.0301
  117OSM    H3F12322   6.591   0.801  10.588  0.1902 -0.1468 -2.0295
  117OSM    H3G12323   6.651   0.968  10.585  0.9248 -1.9539  2.2172
  117OSM    C4F12324   6.498   0.927  10.440 -0.1748 -0.2931  0.4220
  117OSM    H4F12325   6.439   1.018  10.417 -0.3648 -0.3101  0.8409
  117OSM    H4G12326   6.428   0.842  10.421  0.4052 -0.6833  0.0260
  117OSM    C5F12327   6.613   0.917  10.337 -0.6438 -0.2395  0.5042
  117OSM    H5F12328   6.683   0.832  10.351  0.1587  0.2626 -0.4871
  117OSM    H5G12329   6.670   1.011  10.349  0.4041 -0.9958  1.5228
  117OSM    C6F12330   6.565   0.915  10.188 -0.4112 -0.5235 -0.4057
  117OSM    H6F12331   6.541   1.022  10.171 -1.8472 -0.5762  1.1485
  117OSM    H6G12332   6.482   0.843  10.174  0.1296 -1.1530 -0.4018
  117OSM    C7F12333   6.685   0.876  10.100 -0.1885  0.6731 -1.2455
  117OSM    H7F12334   6.693   0.765  10.103 -0.6152  0.6768  0.5287
  117OSM    H7G12335   6.778   0.914  10.147 -0.6051  0.1745 -0.0002
  117OSM    C8F12336   6.662   0.912   9.953 -0.4279 -0.4634  0.5259
  117OSM    H8F12337   6.554   0.897   9.930 -0.8383 -0.3185  2.2721
  117OSM    H8G12338   6.725   0.843   9.893  1.7447  0.3393  1.8441
  117OSM    C9F12339   6.709   1.048   9.924  0.3800 -0.4281 -1.2236
  117OSM    H9F12340   6.769   1.099  10.001 -2.1565 -0.1574  0.6382
  117OSM   C10F12341   6.676   1.117   9.814 -0.1740  0.0325 -0.3759
  117OSM   H10F12342   6.723   1.213   9.788  1.2965 -0.8685 -1.0678
  117OSM   C11F12343   6.579   1.070   9.711  0.1776 -0.3356 -1.3865
  117OSM   H11F12344   6.510   1.156   9.695  0.7823  0.2930 -0.6311
  117OSM   H11G12345   6.528   0.978   9.748 -0.8900  0.2536 -1.3748
  117OSM   C12F12346   6.646   1.019   9.584 -0.3607  0.4046  0.8157
  117OSM   H12F12347   6.702   0.924   9.600 -0.2054  0.5624  1.2291
  117OSM   H12G12348   6.725   1.090   9.551 -2.6068  3.6783  2.2724
  117OSM   C13F12349   6.546   1.003   9.463 -0.0346 -0.3801 -0.4378
  117OSM   H13F12350   6.474   1.087   9.459 -0.7157 -0.7463  2.7919
  117OSM   H13G12351   6.483   0.911   9.465  1.0066 -1.1201 -0.9618
  117OSM   C14F12352   6.631   0.983   9.338  0.1195  0.1589  0.5392
  117OSM   H14F12353   6.705   0.903   9.364 -2.2987 -2.2023  0.3679
  117OSM   H14G12354   6.693   1.073   9.320 -0.4471  0.5454  0.5219
  117OSM   C15F12355   6.533   0.944   9.229 -0.0004  0.3939 -0.2596
  117OSM   H15F12356   6.450   1.018   9.238  1.2448  1.5041  2.8521
  117OSM   H15G12357   6.483   0.846   9.244  0.8876  0.0520  0.5315
  117OSM   C16F12358   6.606   0.936   9.096  0.0728 -0.4820  0.1618
  117OSM   H16F12359   6.667   0.844   9.101 -1.6157 -1.5554  1.5444
  117OSM   H16G12360   6.656   1.031   9.067 -1.0453  0.3869  0.9992
  117OSM   C17F12361   6.507   0.906   8.977 -0.8352  0.2541  0.3462
  117OSM   H17F12362   6.462   0.810   9.008  1.2456 -0.6557  0.6499
  117OSM   H17G12363   6.577   0.888   8.893  0.1134 -1.0252  1.3994
  117OSM   C18F12364   6.393   1.005   8.950 -0.2574 -0.0571  0.7435
  117OSM   H18F12365   6.334   0.964   8.866 -1.4192 -0.2557  1.6361
  117OSM   H18G12366   6.437   1.106   8.936 -0.9102  0.2295  0.7369
  117OSM   H18H12367   6.322   1.012   9.035 -0.5312 -1.5270  0.6409
  118OSM      N12368   6.227   1.620  11.296 -0.0553  0.7998 -0.1047
  118OSM    C1512369   6.350   1.549  11.334 -0.1427 -0.5718 -0.1781
  118OSM   H15A12370   6.335   1.506  11.431  0.4014 -0.4080 -0.0234
  118OSM   H15B12371   6.432   1.618  11.325 -0.8537  0.3861  0.6784
  118OSM   H15C12372   6.378   1.474  11.261  0.0527 -0.3895 -0.2910
  118OSM    C1412373   6.119   1.525  11.328 -0.0572  0.2499  0.2416
  118OSM   H14A12374   6.019   1.563  11.315 -0.7754 -0.8940  2.0978
  118OSM   H14B12375   6.133   1.499  11.432 -0.0404  1.5418  0.5625
  118OSM   H14C12376   6.129   1.436  11.267  1.0372  1.4375 -1.3176
  118OSM    C1312377   6.213   1.743  11.387  0.1083 -0.3533  1.0100
  118OSM   H13A12378   6.119   1.797  11.381  0.7124  0.4203 -2.4248
  118OSM   H13B12379   6.298   1.806  11.365 -0.2463  0.3254  1.5377
  118OSM   H13C12380   6.212   1.721  11.493  0.0759  1.1931  1.3462
  118OSM    C1212381   6.221   1.659  11.158  0.0555 -0.0421  0.9646
  118OSM   H12A12382   6.127   1.711  11.147  0.2197  0.4505  1.8422
  118OSM   H12B12383   6.223   1.565  11.106 -0.9695 -0.3366  1.4526
  118OSM    C1112384   6.337   1.748  11.103  0.7388  0.6354  0.3442
  118OSM   H11A12385   6.342   1.732  10.993 -0.1133 -1.5662  0.6000
  118OSM   H11B12386   6.434   1.715  11.148  0.4445  1.6301  1.7218
  118OSM      P12387   6.196   1.965  11.109  0.5939 -0.2978  0.3124
  118OSM    O1312388   6.119   1.895  11.010 -0.1268 -0.2182 -0.2069
  118OSM    O1412389   6.128   1.994  11.236  0.3993  0.1186  0.3425
  118OSM    O1112390   6.244   2.100  11.050 -0.3641 -0.1849  0.2602
  118OSM    O1212391   6.325   1.887  11.144 -0.5330  0.7447 -0.1305
  118OSM    C1S12392   6.351   2.098  10.951 -0.5146 -0.0310 -0.5756
  118OSM    H1S12393   6.417   2.013  10.976 -0.9757 -0.7026 -1.6222
  118OSM    H1T12394   6.405   2.194  10.961  0.4980 -0.6762  0.1993
  118OSM     NF12395   6.439   2.088  10.727 -0.1672  0.4000  0.5091
  118OSM    HNF12396   6.480   2.174  10.697  0.8303  0.2475  1.3817
  118OSM    C2S12397   6.314   2.093  10.804  0.0576 -0.9154 -0.0968
  118OSM    H2S12398   6.255   2.000  10.788  0.2971 -1.0077 -0.4608
  118OSM    C3S12399   6.215   2.216  10.776 -0.1907 -0.2139 -0.3188
  118OSM    H3S12400   6.262   2.316  10.793  0.9048 -0.9350  1.0167
  118OSM     O312401   6.094   2.202  10.857 -0.6603 -0.4060  0.2818
  118OSM    HO312402   6.108   2.140  10.929  0.8873 -0.0867  0.2638
  118OSM    C4S12403   6.179   2.193  10.631  0.7827  0.6675  0.2560
  118OSM    H4S12404   6.074   2.161  10.616  1.3652 -0.0479 -2.6107
  118OSM    C5S12405   6.255   2.216  10.524  0.4472  0.2344  0.1936
  118OSM    H5S12406   6.359   2.250  10.529 -0.1082  1.9220  0.6311
  118OSM    C6S12407   6.220   2.195  10.381 -0.0059  0.0828  0.1296
  118OSM    H6S12408   6.226   2.293  10.329  0.7337  1.1165  2.0995
  118OSM    H6T12409   6.115   2.169  10.360  0.2113  1.8323 -3.4061
  118OSM    C7S12410   6.321   2.100  10.306  0.5107 -0.8768  0.0798
  118OSM    H7S12411   6.302   1.993  10.326 -0.8836 -0.7904 -0.7776
  118OSM    H7T12412   6.425   2.139  10.315 -0.4370  1.4014  1.8295
  118OSM    C8S12413   6.283   2.112  10.157 -0.5436 -0.3426 -0.3782
  118OSM    H8S12414   6.288   2.217  10.122 -0.8333  0.3554  1.6450
  118OSM    H8T12415   6.183   2.068  10.138  0.1374 -2.1291  0.0108
  118OSM    C9S12416   6.381   2.041  10.067 -0.7952  0.0757  0.4847
  118OSM    H9S12417   6.412   1.944  10.111 -1.5185  0.4719  1.9271
  118OSM    H9T12418   6.472   2.103  10.062 -1.3969  0.9561  0.2674
  118OSM   C10S12419   6.325   2.012   9.924 -0.2533 -0.0546 -0.3489
  118OSM   H10S12420   6.265   2.102   9.897 -0.8890 -0.9771 -2.1275
  118OSM   H10T12421   6.251   1.929   9.928 -1.3033  0.8228 -1.2394
  118OSM   C11S12422   6.428   1.994   9.821 -0.7265 -0.4920 -0.3362
  118OSM   H11S12423   6.488   1.906   9.852 -0.0563  0.3544  0.7853
  118OSM   H11T12424   6.502   2.077   9.819 -0.7488 -0.4603  0.1349
  118OSM   C12S12425   6.368   1.991   9.675  0.1218 -0.2508 -0.3049
  118OSM   H12S12426   6.290   2.069   9.659  1.6206  1.7611  1.8906
  118OSM   H12T12427   6.319   1.891   9.668 -0.3346 -0.1103  0.7848
  118OSM   C13S12428   6.482   2.007   9.569  0.2338  0.8372 -0.5708
  118OSM   H13S12429   6.552   1.921   9.576 -1.0178 -0.2399 -1.2275
  118OSM   H13T12430   6.544   2.098   9.587  0.5154  0.7609 -1.1311
  118OSM   C14S12431   6.430   2.006   9.432 -1.1813  0.3255 -0.0398
  118OSM   H14S12432   6.369   2.096   9.413  1.2845  1.9516 -0.5125
  118OSM   H14T12433   6.361   1.919   9.423 -1.3517  0.2583  1.6941
  118OSM   C15S12434   6.548   2.002   9.328  0.1078  0.4476 -0.6462
  118OSM   H15S12435   6.605   1.908   9.345 -0.2188  0.1361 -1.2685
  118OSM   H15T12436   6.626   2.080   9.338 -0.1025  0.3240  2.2015
  118OSM   C16S12437   6.497   1.994   9.182  0.8938 -0.5868 -0.3480
  118OSM   H16S12438   6.450   2.094   9.168 -1.4899 -2.0830 -3.5580
  118OSM   H16T12439   6.413   1.921   9.185  0.2930  0.1023 -0.1538
  118OSM   C17S12440   6.590   1.953   9.064 -0.2496  0.2476 -0.4982
  118OSM   H17S12441   6.538   1.983   8.971 -0.0912  3.5825  0.3995
  118OSM   H17T12442   6.613   1.845   9.060  0.6115  0.2049  3.1164
  118OSM   C18S12443   6.726   2.029   9.062 -0.2465 -0.6205 -0.4916
  118OSM   H18S12444   6.694   2.135   9.070  0.8701 -0.3767  1.1207
  118OSM   H18T12445   6.773   2.016   8.962  2.0394  0.2347  0.4210
  118OSM   H18U12446   6.791   1.995   9.146  1.2857  0.9037 -1.0381
  118OSM    C1F12447   6.493   1.975  10.691 -0.2263  0.6303 -0.0105
  118OSM     OF12448   6.462   1.866  10.741 -0.2417 -0.5538 -0.0659
  118OSM    C2F12449   6.590   1.989  10.582 -0.4373 -0.3135 -0.2381
  118OSM    H2F12450   6.686   2.027  10.623 -0.8461  0.1403  0.2972
  118OSM    H2G12451   6.554   2.068  10.512 -1.0967 -0.7471 -0.3988
  118OSM    C3F12452   6.623   1.861  10.506 -0.8962 -0.0094 -0.0573
  118OSM    H3F12453   6.535   1.815  10.455  0.2018 -0.0926 -1.9105
  118OSM    H3G12454   6.675   1.789  10.573 -0.6314 -0.9170 -1.2098
  118OSM    C4F12455   6.722   1.894  10.384 -0.1469  0.4835 -0.2159
  118OSM    H4F12456   6.773   1.797  10.366 -0.7717  0.2959 -1.0058
  118OSM    H4G12457   6.801   1.957  10.429 -1.9831  2.2931  0.5463
  118OSM    C5F12458   6.646   1.935  10.259  0.1186  0.5189 -0.9264
  118OSM    H5F12459   6.586   2.022  10.294  1.3413  1.5414 -1.3240
  118OSM    H5G12460   6.571   1.860  10.226 -0.1712 -0.7034  2.2959
  118OSM    C6F12461   6.735   1.964  10.140  0.0114 -0.6048 -0.8565
  118OSM    H6F12462   6.675   1.968  10.047 -0.8608 -1.6049 -0.3496
  118OSM    H6G12463   6.809   1.882  10.127 -0.6011 -1.0961 -1.2671
  118OSM    C7F12464   6.810   2.098  10.159  0.5552  0.1773 -0.2947
  118OSM    H7F12465   6.884   2.077  10.240 -0.4584 -0.2881  0.5304
  118OSM    H7G12466   6.744   2.177  10.201  0.4427  0.1825 -0.4795
  118OSM    C8F12467   6.873   2.148  10.031 -0.2139  0.0735 -0.3228
  118OSM    H8F12468   6.934   2.062   9.997 -0.4269 -1.0130  2.0113
  118OSM    H8G12469   6.942   2.233  10.051  0.4467 -0.4395 -0.4056
  118OSM    C9F12470   6.767   2.196   9.934 -0.0228  0.4755  0.0949
  118OSM    H9F12471   6.681   2.246   9.980  0.7093  0.7888  1.1276
  118OSM   C10F12472   6.761   2.176   9.808  0.4281  0.2311  0.9160
  118OSM   H10F12473   6.667   2.196   9.754 -0.6792 -3.4597  1.3605
  118OSM   C11F12474   6.858   2.088   9.731  0.3689  0.9095 -0.2430
  118OSM   H11F12475   6.795   2.000   9.704 -0.3222  0.9326  1.2231
  118OSM   H11G12476   6.944   2.053   9.791 -1.1528 -0.3664  1.2490
  118OSM   C12F12477   6.917   2.170   9.603 -0.7696 -0.1439 -0.8328
  118OSM   H12F12478   6.988   2.099   9.555 -1.2836 -0.4023 -1.2114
  118OSM   H12G12479   6.979   2.252   9.645  0.9381 -2.7849  1.9137
  118OSM   C13F12480   6.816   2.225   9.502  0.1032 -0.5823 -0.2580
  118OSM   H13F12481   6.740   2.290   9.550 -1.0917 -0.4631 -2.2683
  118OSM   H13G12482   6.762   2.132   9.475 -0.0266  0.2535 -3.0136
  118OSM   C14F12483   6.874   2.291   9.382 -0.5266  0.3103 -0.4448
  118OSM   H14F12484   6.805   2.314   9.298  0.0963  3.2523 -0.2130
  118OSM   H14G12485   6.941   2.216   9.335 -0.9075  0.4252 -1.1889
  118OSM   C15F12486   6.939   2.432   9.405 -0.1053  0.0807 -0.2481
  118OSM   H15F12487   6.963   2.472   9.304 -1.8350  1.0521 -0.2908
  118OSM   H15G12488   7.024   2.429   9.476  0.6655  0.8842 -1.1260
  118OSM   C16F12489   6.825   2.525   9.457 -0.4285  0.5574 -0.1540
  118OSM   H16F12490   6.783   2.487   9.552 -0.7348  2.5556  0.5417
  118OSM   H16G12491   6.742   2.517   9.383 -1.5060  1.4960  0.9289
  118OSM   C17F12492   6.860   2.677   9.456 -0.3726 -0.2736 -0.5005
  118OSM   H17F12493   6.765   2.731   9.476 -0.4021 -1.4789  2.9281
  118OSM   H17G12494   6.895   2.699   9.353 -0.1782  1.0628 -0.1578
  118OSM   C18F12495   6.976   2.711   9.553  0.4402  0.0254  0.6846
  118OSM   H18F12496   7.075   2.667   9.529 -0.0416 -0.0381 -1.3350
  118OSM   H18G12497   6.955   2.653   9.645  4.7462  1.0151  2.4109
  118OSM   H18H12498   6.987   2.819   9.575  1.9615 -0.1448  0.7947
  119OSM      N12499   0.879   1.335  11.269  0.4019  0.0056  0.4852
  119OSM    C1512500   0.734   1.350  11.299  0.7700 -0.0766  0.3798
  119OSM   H15A12501   0.707   1.452  11.322 -0.0197 -0.2709  0.3208
  119OSM   H15B12502   0.699   1.276  11.370  0.6296  1.0637  1.5311
  119OSM   H15C12503   0.678   1.323  11.211 -0.7661 -0.1073  1.3460
  119OSM    C1412504   0.958   1.439  11.343 -0.5522 -0.3753  0.0863
  119OSM   H14A12505   1.062   1.445  11.315 -0.8735 -0.7430 -1.2409
  119OSM   H14B12506   0.952   1.421  11.449 -3.5357 -0.0321  0.0369
  119OSM   H14C12507   0.928   1.541  11.324  0.9748  0.0880  0.1498
  119OSM    C1312508   0.933   1.200  11.316  0.1341 -0.2941 -0.4059
  119OSM   H13A12509   0.925   1.190  11.423  0.6119 -1.2870 -0.4636
  119OSM   H13B12510   1.036   1.191  11.285  1.3581  1.1246  3.0613
  119OSM   H13C12511   0.884   1.113  11.274  0.0193  0.3027 -1.5289
  119OSM    C1212512   0.903   1.354  11.126  0.2569 -0.2357 -0.0410
  119OSM   H12A12513   1.006   1.333  11.103  0.7222  2.7908 -0.9533
  119OSM   H12B12514   0.885   1.459  11.106  1.8362  0.1827  0.6873
  119OSM    C1112515   0.809   1.280  11.026  0.1723 -0.2435  0.2799
  119OSM   H11A12516   0.802   1.171  11.047  0.2341 -0.1834  0.6025
  119OSM   H11B12517   0.853   1.297  10.925 -0.3293  2.6236  0.4987
  119OSM      P12518   0.668   1.486  10.940  0.1904 -0.2863 -0.1791
  119OSM    O1312519   0.552   1.549  11.008 -0.1753  0.5516 -0.1526
  119OSM    O1412520   0.797   1.554  10.926  0.6346  0.6451 -0.1674
  119OSM    O1112521   0.628   1.448  10.797  0.5470  0.7105 -0.7494
  119OSM    O1212522   0.684   1.347  11.018  0.2051  0.1760  0.4740
  119OSM    C1S12523   0.546   1.333  10.768 -0.6578  0.2011 -0.3050
  119OSM    H1S12524   0.441   1.343  10.802 -0.5373 -0.6022  0.3123
  119OSM    H1T12525   0.586   1.247  10.825 -0.3593  0.4937 -0.0672
  119OSM     NF12526   0.449   1.224  10.567 -0.7201  0.1222 -0.0394
  119OSM    HNF12527   0.484   1.135  10.538  2.2443  1.7742 -1.6687
  119OSM    C2S12528   0.555   1.311  10.615  0.2871 -0.0525 -0.5401
  119OSM    H2S12529   0.526   1.412  10.579 -0.2410 -0.3714 -1.0191
  119OSM    C3S12530   0.698   1.279  10.563  0.2434 -0.1041 -0.3036
  119OSM    H3S12531   0.743   1.186  10.604 -0.3669  0.1353  0.9329
  119OSM     O312532   0.788   1.375  10.605 -0.2651  0.0601  0.4413
  119OSM    HO312533   0.746   1.409  10.685 -0.6576 -0.4008  0.4334
  119OSM    C4S12534   0.698   1.273  10.415 -1.0051  0.2609 -0.1553
  119OSM    H4S12535   0.748   1.185  10.372  0.0444  1.1437 -0.7948
  119OSM    C5S12536   0.650   1.363  10.321  0.1289  0.2952 -0.9535
  119OSM    H5S12537   0.589   1.450  10.350 -1.0164 -0.6684 -0.4606
  119OSM    C6S12538   0.671   1.358  10.175  1.0330 -0.4075  0.3685
  119OSM    H6S12539   0.575   1.369  10.120  1.3719 -0.0098 -0.1493
  119OSM    H6T12540   0.709   1.261  10.137  2.3337  0.3232 -0.2196
  119OSM    C7S12541   0.752   1.468  10.109 -0.3142 -0.4457  0.6776
  119OSM    H7S12542   0.863   1.459  10.120  0.0715  2.0507 -0.7987
  119OSM    H7T12543   0.717   1.569  10.139 -0.5033  0.5899 -2.8402
  119OSM    C8S12544   0.730   1.453   9.953  0.4439 -0.3306  0.5487
  119OSM    H8S12545   0.624   1.478   9.932  1.3533  0.1130 -4.0752
  119OSM    H8T12546   0.724   1.348   9.916  1.6949 -0.3303  0.3111
  119OSM    C9S12547   0.832   1.528   9.862  0.7215 -0.9979 -0.3997
  119OSM    H9S12548   0.933   1.523   9.907 -0.0354 -1.7048  1.2726
  119OSM    H9T12549   0.811   1.636   9.846  0.8489 -0.4777  2.6764
  119OSM   C10S12550   0.823   1.481   9.717  0.5077 -0.0152 -0.5092
  119OSM   H10S12551   0.846   1.373   9.718 -1.1519 -0.3840 -0.8523
  119OSM   H10T12552   0.899   1.537   9.658 -0.7984  2.2489 -0.1134
  119OSM   C11S12553   0.683   1.493   9.653  0.6446 -0.1212  0.2396
  119OSM   H11S12554   0.668   1.600   9.677  2.9767  0.0793  0.9344
  119OSM   H11T12555   0.616   1.415   9.696  1.0736 -0.2976  0.5934
  119OSM   C12S12556   0.675   1.467   9.499  0.4643 -0.3627  0.1141
  119OSM   H12S12557   0.570   1.434   9.486  0.1435  1.2137 -1.4239
  119OSM   H12T12558   0.756   1.395   9.475 -1.3514 -2.1177 -0.9424
  119OSM   C13S12559   0.715   1.585   9.413  0.2343 -0.3843  0.4824
  119OSM   H13S12560   0.818   1.620   9.438  0.0793 -0.5453  1.3331
  119OSM   H13T12561   0.647   1.668   9.441  0.9071 -0.4668  2.4490
  119OSM   C14S12562   0.704   1.537   9.266  0.2595  0.0558 -0.4970
  119OSM   H14S12563   0.605   1.492   9.240  1.2704 -0.7306 -3.1205
  119OSM   H14T12564   0.787   1.467   9.245 -1.6137 -2.1166 -0.9235
  119OSM   C15S12565   0.709   1.656   9.164 -0.2133  0.2798 -0.0039
  119OSM   H15S12566   0.799   1.714   9.194  1.0213 -1.9658  0.7294
  119OSM   H15T12567   0.621   1.716   9.193  0.1872  0.4241  0.9414
  119OSM   C16S12568   0.700   1.615   9.018 -0.0252 -0.1416  0.2837
  119OSM   H16S12569   0.686   1.705   8.953  4.9201  0.1487 -0.5704
  119OSM   H16T12570   0.619   1.541   8.999 -0.7305  0.5222  0.6727
  119OSM   C17S12571   0.833   1.558   8.975  0.3970 -0.1633 -0.0219
  119OSM   H17S12572   0.839   1.451   9.004  3.7837 -0.2474 -0.7827
  119OSM   H17T12573   0.911   1.607   9.037  2.4225 -1.1239 -1.7141
  119OSM   C18S12574   0.864   1.585   8.827 -0.7605 -0.7344 -0.3657
  119OSM   H18S12575   0.788   1.530   8.768  0.1227  1.0114 -3.1832
  119OSM   H18T12576   0.966   1.553   8.799  0.2305  3.7299 -2.0966
  119OSM   H18U12577   0.863   1.694   8.809 -2.5077 -0.8517 -1.0420
  119OSM    C1F12578   0.317   1.253  10.574  0.2099  0.8271  0.3218
  119OSM     OF12579   0.268   1.352  10.618  0.4859 -0.0546  0.0173
  119OSM    C2F12580   0.235   1.142  10.524 -0.0954 -0.5359 -0.5927
  119OSM    H2F12581   0.180   1.090  10.605  0.3148  1.3035  0.8961
  119OSM    H2G12582   0.300   1.066  10.477 -0.0657 -1.1145  0.3826
  119OSM    C3F12583   0.147   1.204  10.413 -0.0753 -0.2270  0.5995
  119OSM    H3F12584   0.078   1.280  10.456 -0.4763 -0.4473  0.3470
  119OSM    H3G12585   0.075   1.132  10.370 -2.3707  1.5121  1.4107
  119OSM    C4F12586   0.217   1.260  10.289 -0.2103  0.3866 -0.0090
  119OSM    H4F12587   0.303   1.319  10.328 -0.2984  0.7951 -0.4264
  119OSM    H4G12588   0.149   1.320  10.225 -1.9234 -0.7711  0.6778
  119OSM    C5F12589   0.267   1.138  10.204  0.3015  0.2599  0.5772
  119OSM    H5F12590   0.180   1.080  10.168 -0.7030  3.4295 -2.3592
  119OSM    H5G12591   0.313   1.071  10.280  1.7962  0.5949 -0.0076
  119OSM    C6F12592   0.355   1.160  10.080 -0.0471  0.1716  0.3249
  119OSM    H6F12593   0.368   1.059  10.036 -0.1054  0.9526 -1.5191
  119OSM    H6G12594   0.452   1.206  10.106  0.7596 -1.0317 -0.5110
  119OSM    C7F12595   0.282   1.238   9.973  0.1814  0.1766 -0.4111
  119OSM    H7F12596   0.254   1.338  10.013  0.4440 -0.6918  2.0298
  119OSM    H7G12597   0.188   1.183   9.954  0.4930 -0.3313 -0.4745
  119OSM    C8F12598   0.360   1.248   9.847  0.3834  0.2343  0.2353
  119OSM    H8F12599   0.367   1.146   9.804 -1.6670 -1.0908  2.8946
  119OSM    H8G12600   0.460   1.292   9.869  0.7130  0.0034 -0.7768
  119OSM    C9F12601   0.295   1.341   9.744 -0.2445  0.3518 -0.1750
  119OSM    H9F12602   0.260   1.432   9.795  2.4403  0.7136  1.1301
  119OSM   C10F12603   0.274   1.331   9.613 -0.3913  0.3524 -0.5070
  119OSM   H10F12604   0.198   1.400   9.574 -0.8668 -1.1135 -2.2072
  119OSM   C11F12605   0.320   1.220   9.530  0.6621  0.3402  1.2049
  119OSM   H11F12606   0.292   1.120   9.571  0.6217 -0.0952  0.1406
  119OSM   H11G12607   0.428   1.218   9.504  0.5676  0.2755  0.8172
  119OSM   C12F12608   0.232   1.227   9.404 -0.3234 -0.5221  0.0849
  119OSM   H12F12609   0.208   1.332   9.377 -1.8158 -0.5693  1.1501
  119OSM   H12G12610   0.141   1.163   9.409 -0.3256 -0.8147 -2.6639
  119OSM   C13F12611   0.298   1.161   9.278  0.5491  0.5175  0.0152
  119OSM   H13F12612   0.364   1.078   9.311 -1.6044 -1.2342  0.0937
  119OSM   H13G12613   0.372   1.232   9.236  1.5231 -0.1766  0.5389
  119OSM   C14F12614   0.188   1.123   9.178  0.2043 -0.4935  0.0424
  119OSM   H14F12615   0.115   1.206   9.172  0.4266 -0.2106  1.1912
  119OSM   H14G12616   0.128   1.045   9.230  0.2374  0.4721  1.5443
  119OSM   C15F12617   0.252   1.081   9.045 -0.5663  0.5941  0.7387
  119OSM   H15F12618   0.325   1.003   9.077 -0.8646 -0.4613 -1.0686
  119OSM   H15G12619   0.316   1.159   8.999 -2.2101  0.9173 -1.0355
  119OSM   C16F12620   0.156   1.022   8.945  0.6614  0.2092 -0.1228
  119OSM   H16F12621   0.078   1.097   8.920  1.2155  0.9235  0.2685
  119OSM   H16G12622   0.115   0.935   9.000 -0.3638  0.9125  0.2306
  119OSM   C17F12623   0.231   0.994   8.809  0.1318  0.3010 -1.0490
  119OSM   H17F12624   0.317   0.928   8.837 -0.0147  0.5702  0.0733
  119OSM   H17G12625   0.273   1.085   8.763  1.0525  0.2190 -0.3952
  119OSM   C18F12626   0.152   0.936   8.702  0.7896 -0.5033  0.5561
  119OSM   H18F12627   0.076   0.866   8.741  1.1234 -1.4672 -0.4964
  119OSM   H18G12628   0.212   0.878   8.629 -0.3040 -0.1119 -0.6894
  119OSM   H18H12629   0.099   1.019   8.649  2.4026  0.4989  0.4908
  120OSM      N12630   0.441   5.122  10.688  0.3105 -0.1322 -0.1171
  120OSM    C1512631   0.355   5.014  10.745 -0.0098 -0.5421  0.2117
  120OSM   H15A12632   0.394   4.961  10.830 -1.6308  0.1444  1.4063
  120OSM   H15B12633   0.322   4.942  10.672  0.3299 -2.9417  2.3697
  120OSM   H15C12634   0.267   5.068  10.775 -0.0532  0.0666 -0.9412
  120OSM    C1412635   0.440   5.236  10.773 -0.3685  0.1991  0.0197
  120OSM   H14A12636   0.506   5.316  10.742 -2.4353  1.5308 -1.0402
  120OSM   H14B12637   0.469   5.207  10.873  0.2123 -1.5329 -0.6324
  120OSM   H14C12638   0.341   5.278  10.780 -1.0333 -1.4242  0.5291
  120OSM    C1312639   0.582   5.086  10.658  0.5889  0.7379  0.5345
  120OSM   H13A12640   0.625   5.024  10.735 -0.5073 -0.3425  0.2903
  120OSM   H13B12641   0.642   5.176  10.649 -0.9593  1.9706  2.1797
  120OSM   H13C12642   0.586   5.035  10.563  0.5177 -1.9133  1.9346
  120OSM    C1212643   0.373   5.162  10.555 -0.1399  0.3705  0.8605
  120OSM   H12A12644   0.418   5.251  10.514 -0.9254  0.1565 -0.4604
  120OSM   H12B12645   0.276   5.198  10.585 -0.4926  0.1547 -0.0051
  120OSM    C1112646   0.352   5.055  10.450 -0.3980 -0.5042 -0.7996
  120OSM   H11A12647   0.449   5.009  10.423  0.0801 -0.4132  0.7116
  120OSM   H11B12648   0.321   5.105  10.355 -0.5305  0.5192 -0.2291
  120OSM      P12649   0.098   4.994  10.499  0.1948 -0.1034 -0.3241
  120OSM    O1312650   0.019   4.870  10.524  0.1781 -0.0076 -0.0393
  120OSM    O1412651   0.070   5.109  10.589  0.6960  0.2214 -0.1356
  120OSM    O1112652   0.072   5.042  10.352 -0.3819 -0.1559  0.5059
  120OSM    O1212653   0.256   4.963  10.493  0.2181  1.0564 -0.0311
  120OSM    C1S12654   0.057   5.176  10.315 -0.2479  0.7854 -0.2869
  120OSM    H1S12655   0.118   5.239  10.384 -0.4233 -0.1140  0.7144
  120OSM    H1T12656  -0.050   5.202  10.307 -0.5257  0.4232  1.8353
  120OSM     NF12657   0.096   5.342  10.138 -0.2514 -0.1572 -0.6151
  120OSM    HNF12658   0.010   5.371  10.098 -0.0641  0.8343 -0.3278
  120OSM    C2S12659   0.098   5.198  10.160  0.1081 -0.4794 -0.0581
  120OSM    H2S12660   0.204   5.166  10.154  0.0049 -0.7955 -0.2451
  120OSM    C3S12661   0.008   5.118  10.060  0.0424  0.3491  0.1175
  120OSM    H3S12662  -0.080   5.182  10.037 -0.9073  0.0934  2.8627
  120OSM     O312663  -0.047   4.996  10.099 -0.5805  0.1269 -0.0745
  120OSM    HO312664  -0.009   4.976  10.185 -0.8605  0.6543  0.1717
  120OSM    C4S12665   0.081   5.094   9.924 -0.3274  0.4986  0.2569
  120OSM    H4S12666   0.188   5.074   9.943 -0.1360  0.8411 -0.4456
  120OSM    C5S12667   0.027   5.111   9.795 -0.2225 -0.0060  0.4943
  120OSM    H5S12668  -0.076   5.146   9.779 -0.1052  0.2226  0.2322
  120OSM    C6S12669   0.106   5.091   9.665  0.0726  0.3234 -0.7562
  120OSM    H6S12670   0.065   4.995   9.627  0.0829  0.9125 -2.2740
  120OSM    H6T12671   0.215   5.070   9.678  0.4263  1.0171 -2.5510
  120OSM    C7S12672   0.099   5.205   9.566 -0.5709  0.0496  0.0616
  120OSM    H7S12673   0.124   5.303   9.611 -0.3156  1.0282 -2.1499
  120OSM    H7T12674  -0.004   5.214   9.526 -0.6496  0.3709  0.3352
  120OSM    C8S12675   0.210   5.199   9.458  1.1034 -0.0941 -0.4070
  120OSM    H8S12676   0.300   5.156   9.507  1.8136  0.2073 -1.4591
  120OSM    H8T12677   0.222   5.302   9.420  0.5100  0.0353 -0.2565
  120OSM    C9S12678   0.173   5.108   9.348  0.6341  0.0081 -0.0249
  120OSM    H9S12679   0.067   5.136   9.327  0.6761  0.3134  0.1677
  120OSM    H9T12680   0.155   5.006   9.389  1.5736  0.4361  1.4626
  120OSM   C10S12681   0.265   5.097   9.234 -0.5899 -0.6167  0.5956
  120OSM   H10S12682   0.371   5.090   9.267 -0.7741 -1.0445  1.0971
  120OSM   H10T12683   0.258   5.190   9.174 -0.6057  0.0074  1.5445
  120OSM   C11S12684   0.218   4.988   9.146  0.0454  0.0407  0.3094
  120OSM   H11S12685   0.108   5.002   9.138  0.5073  4.4901  0.6970
  120OSM   H11T12686   0.246   4.887   9.182 -0.6775  0.1669  1.2363
  120OSM   C12S12687   0.278   4.996   9.004 -0.4032  0.1058 -0.2102
  120OSM   H12S12688   0.388   4.980   9.014 -0.6976 -2.2602 -0.4003
  120OSM   H12T12689   0.257   5.101   8.976 -1.4175  0.3193  1.2801
  120OSM   C13S12690   0.192   4.915   8.900 -0.6066  0.2663 -0.7224
  120OSM   H13S12691   0.093   4.966   8.895 -0.9355  0.1194  2.7695
  120OSM   H13T12692   0.161   4.820   8.949 -3.7744  2.1930  1.2604
  120OSM   C14S12693   0.234   4.910   8.755  0.4725 -0.3442 -0.7914
  120OSM   H14S12694   0.275   5.010   8.728 -0.0687 -0.2518 -1.2717
  120OSM   H14T12695   0.149   4.884   8.689  1.3961  0.6461 -2.3914
  120OSM   C15S12696   0.342   4.802   8.741  0.3032 -0.1901 -0.2637
  120OSM   H15S12697   0.302   4.702   8.769 -1.6452  1.1089  1.7246
  120OSM   H15T12698   0.421   4.828   8.814 -0.3160  3.1803 -0.6991
  120OSM   C16S12699   0.410   4.782   8.601 -0.0886  0.2067  1.1204
  120OSM   H16S12700   0.334   4.736   8.533  1.2356  0.4571 -0.5668
  120OSM   H16T12701   0.486   4.701   8.601 -0.6975 -0.3912 -0.9693
  120OSM   C17S12702   0.490   4.903   8.546  0.1147 -0.1238 -0.1608
  120OSM   H17S12703   0.576   4.922   8.613 -1.2514 -2.1318  2.2462
  120OSM   H17T12704   0.416   4.986   8.548 -0.0477 -0.2586 -0.5573
  120OSM   C18S12705   0.546   4.885   8.403 -0.3318 -0.0215 -0.2947
  120OSM   H18S12706   0.607   4.971   8.369  0.7993 -1.1527 -1.1630
  120OSM   H18T12707   0.471   4.872   8.322  1.1228 -0.4963 -1.5656
  120OSM   H18U12708   0.620   4.803   8.408  1.0486  1.1752 -0.7631
  120OSM    C1F12709   0.173   5.435  10.183 -0.0157 -0.1631 -0.5267
  120OSM     OF12710   0.276   5.396  10.240  0.5427 -0.4991  0.6261
  120OSM    C2F12711   0.129   5.577  10.188  1.0381  0.6962 -0.3020
  120OSM    H2F12712   0.183   5.635  10.266  2.5177  0.5144 -1.1897
  120OSM    H2G12713   0.018   5.580  10.202  0.9802 -0.9402 -0.4030
  120OSM    C3F12714   0.147   5.645  10.051 -0.0728  0.5573 -0.3808
  120OSM    H3F12715   0.249   5.620  10.015 -0.3393  0.4729 -1.0974
  120OSM    H3G12716   0.141   5.754  10.068  0.4269  0.3418  1.1780
  120OSM    C4F12717   0.040   5.591   9.946 -0.0324 -0.1724 -0.5128
  120OSM    H4F12718  -0.060   5.614   9.990  0.1271 -0.3630 -0.0495
  120OSM    H4G12719   0.045   5.487   9.909 -1.7584  0.2252 -1.9152
  120OSM    C5F12720   0.060   5.677   9.820 -0.3880  0.0938 -0.0252
  120OSM    H5F12721   0.151   5.644   9.765 -0.7666 -1.8813  0.5063
  120OSM    H5G12722   0.081   5.783   9.846 -2.6195  0.3438  0.9183
  120OSM    C6F12723  -0.061   5.666   9.723  0.0144  0.3042 -0.1812
  120OSM    H6F12724  -0.038   5.729   9.634  0.5647 -0.9566 -0.9550
  120OSM    H6G12725  -0.150   5.719   9.763  0.0753  0.3226 -0.0706
  120OSM    C7F12726  -0.087   5.520   9.671  0.4437  0.3934  0.0451
  120OSM    H7F12727  -0.123   5.454   9.752 -0.1068 -0.6169 -1.0028
  120OSM    H7G12728  -0.004   5.474   9.614  0.0084 -0.3605  0.0058
  120OSM    C8F12729  -0.205   5.506   9.570  0.5336  1.0767  0.4502
  120OSM    H8F12730  -0.202   5.587   9.494  0.0810  1.0169  0.3687
  120OSM    H8G12731  -0.293   5.545   9.626  0.4056  1.1169  0.2216
  120OSM    C9F12732  -0.223   5.369   9.517 -0.2257 -0.1171  0.0278
  120OSM    H9F12733  -0.264   5.302   9.594 -2.0201  1.3657  0.3943
  120OSM   C10F12734  -0.199   5.336   9.387 -0.6886  0.1196  0.2626
  120OSM   H10F12735  -0.210   5.232   9.351 -0.0370 -0.0198  0.4675
  120OSM   C11F12736  -0.150   5.423   9.275  0.1713 -0.0604 -0.0191
  120OSM   H11F12737  -0.080   5.494   9.325  0.8318  2.4532 -4.2742
  120OSM   H11G12738  -0.242   5.482   9.252 -0.6804  0.0983  3.4407
  120OSM   C12F12739  -0.099   5.348   9.150  0.2432 -0.3332 -0.9072
  120OSM   H12F12740  -0.184   5.295   9.102 -0.4407 -0.9830  0.9783
  120OSM   H12G12741  -0.017   5.279   9.182 -0.0059 -0.7344 -1.1299
  120OSM   C13F12742  -0.039   5.437   9.036  0.4073  0.8329 -0.4693
  120OSM   H13F12743   0.035   5.504   9.084  0.7969 -0.7382  1.1957
  120OSM   H13G12744  -0.117   5.505   8.995 -0.8852 -0.7172 -0.6093
  120OSM   C14F12745   0.033   5.358   8.929  0.3196 -0.2179  0.5827
  120OSM   H14F12746  -0.004   5.259   8.894  0.7385  0.4888 -2.0225
  120OSM   H14G12747   0.131   5.326   8.970  1.0967  2.5179  1.0008
  120OSM   C15F12748   0.044   5.434   8.802  0.5848  0.2096 -0.2724
  120OSM   H15F12749   0.083   5.538   8.806 -1.6429  1.3177 -3.9976
  120OSM   H15G12750  -0.057   5.448   8.757  0.5469 -0.8672 -0.5414
  120OSM   C16F12751   0.144   5.377   8.697 -0.0180 -0.0293 -0.2193
  120OSM   H16F12752   0.123   5.431   8.602 -0.3800  0.9007  0.3801
  120OSM   H16G12753   0.121   5.269   8.682  3.4193 -0.7597 -0.5109
  120OSM   C17F12754   0.289   5.391   8.742 -0.5064 -0.5310 -0.2581
  120OSM   H17F12755   0.306   5.318   8.824 -0.2551 -0.1264  0.0560
  120OSM   H17G12756   0.300   5.497   8.775 -1.2200  0.1354 -2.0995
  120OSM   C18F12757   0.382   5.351   8.626 -0.2747  0.3835 -0.1859
  120OSM   H18F12758   0.374   5.241   8.617 -3.1697  0.4130  1.4979
  120OSM   H18G12759   0.481   5.387   8.662 -0.9772  2.6531 -0.4737
  120OSM   H18H12760   0.349   5.408   8.536  0.6554 -0.4720 -1.0896
  121OSM      N12761   4.923   1.154  11.033  0.5835  0.2758  0.0859
  121OSM    C1512762   4.955   1.247  11.148  0.3052 -0.2020  0.4993
  121OSM   H15A12763   4.914   1.343  11.121  1.6839 -0.1668 -1.5846
  121OSM   H15B12764   5.063   1.254  11.156  0.3806  0.3532 -0.7510
  121OSM   H15C12765   4.918   1.209  11.242 -0.4158 -2.0382 -0.5030
  121OSM    C1412766   4.979   1.015  11.071 -0.0966 -0.0078 -0.5318
  121OSM   H14A12767   4.938   0.990  11.168  1.2205  0.2030  0.0829
  121OSM   H14B12768   5.086   1.018  11.062  0.1868  1.5142  2.8470
  121OSM   H14C12769   4.946   0.941  10.999  0.7502  0.1093 -1.0470
  121OSM    C1312770   4.776   1.126  11.023  0.6850 -0.5525 -0.5706
  121OSM   H13A12771   4.746   1.067  11.108  0.4386 -0.2824 -0.4684
  121OSM   H13B12772   4.743   1.082  10.930  0.6089  2.4405 -2.0295
  121OSM   H13C12773   4.715   1.216  11.028 -0.4274 -1.2993 -0.4545
  121OSM    C1212774   4.981   1.225  10.908  0.0278 -0.5718 -0.2147
  121OSM   H12A12775   4.920   1.312  10.886  2.3910  1.5165  1.1461
  121OSM   H12B12776   4.978   1.160  10.822  1.6048 -0.6085 -0.2529
  121OSM    C1112777   5.124   1.275  10.908 -0.5673  0.0682  0.0497
  121OSM   H11A12778   5.143   1.362  10.974  3.6600 -0.5188 -0.2327
  121OSM   H11B12779   5.153   1.309  10.806  0.0148  0.1126  0.2272
  121OSM      P12780   5.325   1.176  11.042 -0.0968 -0.0314  0.1567
  121OSM    O1312781   5.309   1.288  11.137 -0.2608  0.1151  0.3944
  121OSM    O1412782   5.337   1.043  11.102 -0.6484 -0.0704  0.0296
  121OSM    O1112783   5.447   1.212  10.958  0.4944 -0.4599  0.1470
  121OSM    O1212784   5.211   1.166  10.931 -0.0279  0.4078  0.5992
  121OSM    C1S12785   5.503   1.124  10.862 -0.7516 -0.1298  0.1617
  121OSM    H1S12786   5.433   1.041  10.836  0.8803 -0.9454 -1.6874
  121OSM    H1T12787   5.596   1.080  10.904  0.5062  1.4619 -0.9192
  121OSM     NF12788   5.583   1.094  10.640 -0.0124  0.0248  0.7109
  121OSM    HNF12789   5.679   1.073  10.628 -0.8942 -3.9549 -0.2129
  121OSM    C2S12790   5.547   1.197  10.733  0.1736 -0.5432 -0.4619
  121OSM    H2S12791   5.469   1.267  10.697 -0.9381 -1.7125 -0.3324
  121OSM    C3S12792   5.665   1.288  10.769  0.4666 -0.5767 -0.3571
  121OSM    H3S12793   5.750   1.225  10.802  0.3745 -1.0108 -0.9370
  121OSM     O312794   5.635   1.369  10.883 -0.4678  0.4947 -0.0349
  121OSM    HO312795   5.555   1.326  10.914 -0.3459  0.5360  0.3370
  121OSM    C4S12796   5.705   1.371  10.651  0.6145  0.8268 -0.1789
  121OSM    H4S12797   5.655   1.468  10.645 -1.2318 -0.0883 -0.0273
  121OSM    C5S12798   5.808   1.346  10.565 -0.6342  0.5208  0.5501
  121OSM    H5S12799   5.880   1.266  10.586 -0.2943  0.6682 -0.0297
  121OSM    C6S12800   5.858   1.435  10.461  0.3449  0.1102 -0.5319
  121OSM    H6S12801   5.967   1.454  10.465 -0.0011  1.9332  1.7703
  121OSM    H6T12802   5.818   1.539  10.465  1.1007  0.3695  0.4964
  121OSM    C7S12803   5.831   1.373  10.322 -0.4840 -0.5060 -0.1288
  121OSM    H7S12804   5.887   1.278  10.308  2.2730  1.1580 -0.8259
  121OSM    H7T12805   5.886   1.435  10.248 -0.4638 -0.4414 -0.0597
  121OSM    C8S12806   5.686   1.344  10.276  0.0614  0.5749 -0.0374
  121OSM    H8S12807   5.632   1.295  10.360  1.3252 -3.9407 -1.7353
  121OSM    H8T12808   5.672   1.275  10.190 -0.7181  0.3686  0.2430
  121OSM    C9S12809   5.603   1.469  10.238  0.2101 -0.0830 -0.2134
  121OSM    H9S12810   5.594   1.539  10.324 -0.0908 -1.3120  0.7759
  121OSM    H9T12811   5.500   1.428  10.236 -0.5882  1.7972  1.2689
  121OSM   C10S12812   5.640   1.528  10.105  0.1496  0.2919 -0.1346
  121OSM   H10S12813   5.652   1.446  10.031 -2.5037  0.2594 -0.5975
  121OSM   H10T12814   5.739   1.578  10.104 -0.0419  0.7377  1.4218
  121OSM   C11S12815   5.530   1.620  10.046 -0.6447  0.3785 -0.2568
  121OSM   H11S12816   5.522   1.716  10.101 -0.3437  1.4408 -2.0327
  121OSM   H11T12817   5.430   1.572  10.049 -0.2412 -0.4662 -0.0539
  121OSM   C12S12818   5.563   1.652   9.901 -0.1677 -0.7232 -0.6779
  121OSM   H12S12819   5.617   1.564   9.861  0.1065 -1.3522  1.0439
  121OSM   H12T12820   5.629   1.740   9.914 -0.9425 -0.0373 -1.2836
  121OSM   C13S12821   5.442   1.685   9.815 -0.2215  0.0452 -0.3144
  121OSM   H13S12822   5.388   1.778   9.841  1.8589  1.1341  0.1566
  121OSM   H13T12823   5.367   1.603   9.806 -1.4666  1.1350 -0.1708
  121OSM   C14S12824   5.481   1.693   9.666  0.5440  0.5279  0.0940
  121OSM   H14S12825   5.531   1.600   9.632 -1.7328 -1.5275  2.0728
  121OSM   H14T12826   5.546   1.781   9.650 -0.0399  1.0548  0.5738
  121OSM   C15S12827   5.357   1.729   9.577  0.2602 -0.3661 -0.0966
  121OSM   H15S12828   5.300   1.813   9.621  1.4889  0.0850  0.6613
  121OSM   H15T12829   5.287   1.644   9.563 -0.9509  0.3810  1.3765
  121OSM   C16S12830   5.412   1.765   9.442 -1.5128  0.5736 -0.6118
  121OSM   H16S12831   5.479   1.682   9.410 -2.2660 -0.4193  0.3335
  121OSM   H16T12832   5.470   1.859   9.440 -1.8872  0.8251  0.1366
  121OSM   C17S12833   5.300   1.787   9.340  0.5378 -0.4224  0.3634
  121OSM   H17S12834   5.266   1.892   9.334  2.0731  0.0895  0.2736
  121OSM   H17T12835   5.209   1.733   9.374  0.4428  0.8487  2.2072
  121OSM   C18S12836   5.344   1.749   9.197 -0.1816 -0.2704  0.3232
  121OSM   H18S12837   5.416   1.830   9.173  1.8959 -2.4480 -0.9570
  121OSM   H18T12838   5.254   1.764   9.134  0.3922  1.8367 -0.0547
  121OSM   H18U12839   5.389   1.648   9.194  1.8320  0.6165 -0.4447
  121OSM    C1F12840   5.491   1.022  10.579 -0.2013  0.2862 -0.1066
  121OSM     OF12841   5.376   1.057  10.576 -0.2023 -0.0686 -0.2480
  121OSM    C2F12842   5.541   0.904  10.519  0.7200  0.6038  0.4332
  121OSM    H2F12843   5.471   0.820  10.535  0.2938  0.5021 -1.8178
  121OSM    H2G12844   5.642   0.880  10.559  1.4431  0.7740 -1.2669
  121OSM    C3F12845   5.557   0.922  10.366 -0.1634  0.3430  0.0734
  121OSM    H3F12846   5.631   1.002  10.347 -0.0201  0.6963  2.0259
  121OSM    H3G12847   5.459   0.957  10.327 -0.2123  1.4283  1.1390
  121OSM    C4F12848   5.615   0.793  10.301 -0.0568 -0.1232  0.6122
  121OSM    H4F12849   5.570   0.703  10.348 -0.8721  0.1973  0.4399
  121OSM    H4G12850   5.724   0.779  10.322 -0.1979 -1.4537  0.5376
  121OSM    C5F12851   5.597   0.800  10.142  0.8027  0.0287 -0.1892
  121OSM    H5F12852   5.491   0.820  10.117  1.0021 -0.1168 -1.1852
  121OSM    H5G12853   5.628   0.701  10.101 -4.3022 -1.6547 -0.2857
  121OSM    C6F12854   5.684   0.902  10.073 -0.1194 -0.3645  0.3787
  121OSM    H6F12855   5.789   0.888  10.105 -0.1931 -0.7314  0.4565
  121OSM    H6G12856   5.640   0.994  10.118  0.2061  0.3258 -0.6810
  121OSM    C7F12857   5.672   0.896   9.918 -0.3490 -0.1050  0.7082
  121OSM    H7F12858   5.566   0.908   9.886  0.2860 -0.5647 -1.6611
  121OSM    H7G12859   5.704   0.796   9.882  0.1683  0.3208 -0.0213
  121OSM    C8F12860   5.769   0.993   9.840  1.2014 -0.1626  0.0336
  121OSM    H8F12861   5.768   0.961   9.734 -1.4912  2.6028 -0.8701
  121OSM    H8G12862   5.869   0.980   9.888  0.0757 -5.5010  1.1971
  121OSM    C9F12863   5.708   1.130   9.846 -0.0229  0.0983 -0.0889
  121OSM    H9F12864   5.637   1.156   9.925  0.6539  1.1378  0.1882
  121OSM   C10F12865   5.702   1.219   9.742 -0.4514 -0.2555 -0.0426
  121OSM   H10F12866   5.652   1.316   9.756 -0.3261 -0.6748  3.9504
  121OSM   C11F12867   5.763   1.197   9.606  0.6590 -0.1055  0.0441
  121OSM   H11F12868   5.706   1.123   9.546  0.1778  0.8581 -0.6913
  121OSM   H11G12869   5.862   1.149   9.619  0.9563  0.5718  0.2913
  121OSM   C12F12870   5.787   1.335   9.537  0.0269 -0.0350 -0.6175
  121OSM   H12F12871   5.871   1.375   9.597 -1.4677 -1.8201  2.8023
  121OSM   H12G12872   5.697   1.400   9.529  1.7248  2.3643 -0.7258
  121OSM   C13F12873   5.830   1.324   9.388 -0.2945 -0.1766 -0.0909
  121OSM   H13F12874   5.899   1.237   9.376  2.0228  1.9548 -2.9898
  121OSM   H13G12875   5.887   1.415   9.361  0.9863 -1.2714 -1.1735
  121OSM   C14F12876   5.716   1.294   9.289 -0.3006 -0.1947  0.0421
  121OSM   H14F12877   5.644   1.378   9.293  0.3058  0.3625 -0.5364
  121OSM   H14G12878   5.669   1.201   9.327 -0.7300 -0.4060 -0.9836
  121OSM   C15F12879   5.771   1.278   9.150 -0.1067 -0.0022 -0.0868
  121OSM   H15F12880   5.700   1.240   9.074  1.0823  0.0064 -1.2004
  121OSM   H15G12881   5.864   1.219   9.138  1.8240  2.8128  0.4491
  121OSM   C16F12882   5.823   1.420   9.094 -0.0254 -0.0143 -0.1676
  121OSM   H16F12883   5.916   1.458   9.142  0.1194 -0.3558 -0.1749
  121OSM   H16G12884   5.746   1.486   9.140  0.4063 -0.5375  1.3418
  121OSM   C17F12885   5.837   1.415   8.946  0.5930 -0.0573  0.6301
  121OSM   H17F12886   5.733   1.396   8.910 -0.1036 -0.0561  2.5999
  121OSM   H17G12887   5.900   1.332   8.907  0.7502  0.7327 -0.8325
  121OSM   C18F12888   5.878   1.544   8.869  0.1640  0.2363 -0.3230
  121OSM   H18F12889   5.979   1.574   8.904  0.0806  0.0581  0.0668
  121OSM   H18G12890   5.806   1.627   8.888  1.3112  0.9668  0.9057
  121OSM   H18H12891   5.887   1.518   8.761 -1.4660  2.5248 -1.0678
  122OSM      N12892   6.252   5.768  10.584  0.0698  0.4475  0.2173
  122OSM    C1512893   6.376   5.799  10.486  0.2414  0.7848 -0.4173
  122OSM   H15A12894   6.441   5.878  10.522  0.8886 -0.1794  0.5785
  122OSM   H15B12895   6.345   5.814  10.384  0.8755  0.3092 -0.6806
  122OSM   H15C12896   6.431   5.706  10.490 -2.6619 -1.0065  0.0251
  122OSM    C1412897   6.156   5.683  10.507  0.0966 -0.6589 -0.1101
  122OSM   H14A12898   6.082   5.649  10.577 -0.9505 -0.2572 -1.0001
  122OSM   H14B12899   6.205   5.597  10.462  1.8502  0.5705 -0.6105
  122OSM   H14C12900   6.112   5.742  10.428 -1.0306 -0.0570  0.9631
  122OSM    C1312901   6.302   5.684  10.697  0.3887 -0.2524  0.4757
  122OSM   H13A12902   6.347   5.596  10.652  3.1072  0.4132  1.8066
  122OSM   H13B12903   6.220   5.662  10.764  1.4308  0.7539  2.1273
  122OSM   H13C12904   6.392   5.724  10.741 -0.1021 -0.4607  1.6900
  122OSM    C1212905   6.191   5.895  10.633  0.4099 -0.0919 -0.3637
  122OSM   H12A12906   6.109   5.877  10.702  0.2893 -0.3478 -0.5719
  122OSM   H12B12907   6.151   5.953  10.551  0.1736 -0.3798 -0.4552
  122OSM    C1112908   6.285   5.983  10.716  0.0437  0.1609  0.1348
  122OSM   H11A12909   6.372   6.003  10.650  0.5940 -1.0239  0.4822
  122OSM   H11B12910   6.319   5.937  10.811  1.9930 -0.0376 -0.6410
  122OSM      P12911   6.223   6.242  10.675 -0.0186 -0.0837  0.1331
  122OSM    O1312912   6.091   6.303  10.691 -0.3599 -0.0089 -0.2062
  122OSM    O1412913   6.349   6.312  10.719  0.3395  0.2554  0.1327
  122OSM    O1112914   6.239   6.193  10.524  0.3838 -0.5767 -0.3026
  122OSM    O1212915   6.216   6.108  10.761  0.1550  0.2479  0.3020
  122OSM    C1S12916   6.354   6.238  10.450 -0.1010 -0.1731  0.2208
  122OSM    H1S12917   6.441   6.171  10.471  0.3521  1.0484  2.4008
  122OSM    H1T12918   6.405   6.332  10.481  0.1993 -0.5111  0.7609
  122OSM     NF12919   6.449   6.306  10.230 -0.5575  0.3819 -1.1974
  122OSM    HNF12920   6.474   6.403  10.233  1.8397 -0.2305  1.1527
  122OSM    C2S12921   6.335   6.253  10.297  0.2774 -0.7551 -0.1885
  122OSM    H2S12922   6.310   6.150  10.263  0.5237 -0.4571 -1.2871
  122OSM    C3S12923   6.213   6.344  10.276 -0.4542 -0.4255  0.5092
  122OSM    H3S12924   6.229   6.437  10.334  1.5495 -1.0639  1.0328
  122OSM     O312925   6.092   6.292  10.338  1.0261 -0.1919 -0.1767
  122OSM    HO312926   6.131   6.240  10.408 -1.0109 -0.4385  0.8179
  122OSM    C4S12927   6.178   6.370  10.128 -0.5384  0.1253 -0.0543
  122OSM    H4S12928   6.119   6.284  10.093  1.2871 -0.7727 -1.0359
  122OSM    C5S12929   6.206   6.478  10.059  0.7599  0.1111  0.5884
  122OSM    H5S12930   6.256   6.565  10.104  1.0411 -0.6015  1.6800
  122OSM    C6S12931   6.163   6.506   9.919  0.8237 -0.1514  0.6259
  122OSM    H6S12932   6.249   6.520   9.850 -0.8133 -0.8000 -1.6454
  122OSM    H6T12933   6.128   6.610   9.933  1.4379  0.0002  1.0400
  122OSM    C7S12934   6.060   6.407   9.851  0.3158  0.0240  0.0166
  122OSM    H7S12935   5.973   6.388   9.917  0.7304 -0.7106  0.3581
  122OSM    H7T12936   6.117   6.312   9.849  2.2862  1.1798  0.1686
  122OSM    C8S12937   6.004   6.460   9.716  0.1488  0.0061  0.9520
  122OSM    H8S12938   5.922   6.529   9.744  0.6444  0.1466  2.0814
  122OSM    H8T12939   5.965   6.371   9.662  5.1925 -1.9692  0.3004
  122OSM    C9S12940   6.094   6.548   9.632 -0.4308 -0.1739 -0.1565
  122OSM    H9S12941   6.161   6.616   9.689 -0.8971 -0.8426  1.2091
  122OSM    H9T12942   6.039   6.610   9.558 -0.5987 -1.3298 -1.0200
  122OSM   C10S12943   6.198   6.463   9.560 -0.1113 -0.3102  0.7635
  122OSM   H10S12944   6.254   6.400   9.632  2.9080  0.4111 -0.8701
  122OSM   H10T12945   6.278   6.529   9.521 -0.9148  0.5276  0.5261
  122OSM   C11S12946   6.131   6.378   9.451  0.1188 -0.3990  0.0856
  122OSM   H11S12947   6.040   6.436   9.424  0.4884  0.8289  1.3810
  122OSM   H11T12948   6.093   6.288   9.504  1.9808 -1.1938  0.0845
  122OSM   C12S12949   6.219   6.353   9.334  0.5216  0.4647  0.3093
  122OSM   H12S12950   6.305   6.288   9.362  0.2646 -0.2639 -0.5750
  122OSM   H12T12951   6.254   6.448   9.290  1.2816  0.2709  0.4886
  122OSM   C13S12952   6.149   6.266   9.222  0.0217 -0.6489 -0.5708
  122OSM   H13S12953   6.113   6.334   9.143  2.3343  2.1977  0.6947
  122OSM   H13T12954   6.074   6.202   9.275  1.1622  0.0266  1.9555
  122OSM   C14S12955   6.254   6.181   9.158  0.1802  0.4434  0.1438
  122OSM   H14S12956   6.290   6.102   9.228 -2.5760 -0.8894  0.1236
  122OSM   H14T12957   6.346   6.241   9.138  0.5198 -0.9568 -2.7085
  122OSM   C15S12958   6.214   6.104   9.028 -0.3184  0.1803 -0.2857
  122OSM   H15S12959   6.296   6.038   8.993 -0.4076 -0.2778  0.3595
  122OSM   H15T12960   6.186   6.173   8.946  0.7534  1.1521  0.1645
  122OSM   C16S12961   6.087   6.014   9.045 -0.3027  0.1331  0.3597
  122OSM   H16S12962   5.992   6.071   9.055 -0.0471  1.0487 -2.1982
  122OSM   H16T12963   6.101   5.946   9.132 -0.6176 -0.3860  0.0040
  122OSM   C17S12964   6.067   5.922   8.927  0.1033  0.1556  0.7175
  122OSM   H17S12965   5.984   5.857   8.962  0.7505 -0.7609  0.5568
  122OSM   H17T12966   6.160   5.862   8.918  0.6141  0.6529  2.5217
  122OSM   C18S12967   6.023   5.987   8.794 -0.2011  0.0823 -0.3971
  122OSM   H18S12968   6.029   5.901   8.723 -0.7871 -0.8041  0.6208
  122OSM   H18T12969   6.082   6.073   8.754 -0.0180  0.3381  0.4275
  122OSM   H18U12970   5.919   6.023   8.806 -1.1356 -2.3526 -0.9640
  122OSM    C1F12971   6.542   6.223  10.198 -0.0878 -0.1482 -0.3071
  122OSM     OF12972   6.534   6.105  10.228  0.1571  0.1161  0.3940
  122OSM    C2F12973   6.662   6.286  10.130  0.1748 -0.1719 -0.8472
  122OSM    H2F12974   6.705   6.357  10.203  1.2697 -1.7689  0.0910
  122OSM    H2G12975   6.625   6.335  10.038 -2.8159  1.2200  1.0021
  122OSM    C3F12976   6.782   6.185  10.091  0.0905  0.3361  0.2106
  122OSM    H3F12977   6.732   6.106  10.030  0.5405  0.5622 -0.4590
  122OSM    H3G12978   6.822   6.161  10.192 -0.3015  2.9806  1.0222
  122OSM    C4F12979   6.889   6.252  10.000  0.2415 -0.0350 -0.2775
  122OSM    H4F12980   6.949   6.327  10.055 -0.9902 -0.1885  1.3291
  122OSM    H4G12981   6.831   6.315   9.929  0.7009 -0.4611 -1.0339
  122OSM    C5F12982   6.980   6.158   9.919 -1.0859 -0.0640 -0.0853
  122OSM    H5F12983   7.044   6.228   9.862 -0.9527 -0.6733 -0.6929
  122OSM    H5G12984   6.912   6.109   9.845  0.7578 -1.9509 -0.5674
  122OSM    C6F12985   7.070   6.060  10.000 -0.0151 -0.9302 -0.2962
  122OSM    H6F12986   7.012   5.998  10.071  0.4758 -2.0352 -0.8440
  122OSM    H6G12987   7.147   6.119  10.053 -0.3495  1.0740 -1.9695
  122OSM    C7F12988   7.145   5.972   9.898 -0.1664  0.1188  0.1703
  122OSM    H7F12989   7.081   5.932   9.817 -1.8032  3.7675 -0.4215
  122OSM    H7G12990   7.188   5.884   9.951  1.4373  1.2175  0.7598
  122OSM    C8F12991   7.270   6.046   9.844  0.1761  1.0447 -0.4519
  122OSM    H8F12992   7.332   6.095   9.923 -3.0573  4.0489  0.3584
  122OSM    H8G12993   7.229   6.129   9.782  1.1887  1.2644 -0.8324
  122OSM    C9F12994   7.358   5.949   9.767 -0.0479 -0.3261  0.1598
  122OSM    H9F12995   7.395   5.866   9.829 -0.1666 -0.2902  0.2791
  122OSM   C10F12996   7.419   5.965   9.644  0.1412  0.3891 -0.2856
  122OSM   H10F12997   7.473   5.879   9.602  0.4531  0.8605 -0.8503
  122OSM   C11F12998   7.395   6.085   9.553  0.2588  0.0560  0.2551
  122OSM   H11F12999   7.341   6.171   9.598  2.7342  2.8074 -1.8300
  122OSM   H11G13000   7.347   6.069   9.454 -1.7414  0.4588  1.1316
  122OSM   C12F13001   7.528   6.153   9.520 -0.6242 -0.6110  0.4473
  122OSM   H12F13002   7.588   6.066   9.484 -1.7840 -1.0998 -0.3431
  122OSM   H12G13003   7.585   6.190   9.608  1.3570 -1.4721 -0.4561
  122OSM   C13F13004   7.528   6.256   9.400  0.3381  0.1718  0.0544
  122OSM   H13F13005   7.474   6.351   9.420  0.4660 -0.0604  1.5672
  122OSM   H13G13006   7.463   6.212   9.321 -0.9759  0.4536  0.9627
  122OSM   C14F13007   7.660   6.284   9.335  0.6989  0.7359 -0.7362
  122OSM   H14F13008   7.719   6.190   9.330 -0.2850 -0.1529  2.6640
  122OSM   H14G13009   7.715   6.357   9.398  1.5330  0.6418 -1.3472
  122OSM   C15F13010   7.654   6.343   9.191 -0.1362 -0.0361  0.2386
  122OSM   H15F13011   7.703   6.269   9.125 -1.9447 -1.5607  0.5552
  122OSM   H15G13012   7.722   6.430   9.180  0.8782 -0.8423 -0.0176
  122OSM   C16F13013   7.513   6.377   9.132  0.0934 -0.1518 -0.1678
  122OSM   H16F13014   7.464   6.467   9.175  0.8293  0.6161 -0.9061
  122OSM   H16G13015   7.446   6.292   9.153  2.9477 -2.3975  0.2314
  122OSM   C17F13016   7.530   6.395   8.975 -0.4546 -0.1992  0.0407
  122OSM   H17F13017   7.589   6.307   8.940  0.5055  0.3399  0.2730
  122OSM   H17G13018   7.577   6.492   8.951 -0.9942  1.0486  3.7200
  122OSM   C18F13019   7.398   6.401   8.898  0.0150 -0.3049  0.7876
  122OSM   H18F13020   7.337   6.492   8.917  1.6136  0.3257  3.1956
  122OSM   H18G13021   7.336   6.309   8.905 -2.2107  0.8558 -2.3750
  122OSM   H18H13022   7.434   6.418   8.795  1.9665  0.5826  1.5902
  123OSM      N13023   2.925   4.601   6.184  0.0402 -0.5803  0.1983
  123OSM    C1513024   2.877   4.699   6.077 -0.8943  0.5780 -0.0449
  123OSM   H15A13025   2.922   4.792   6.110  3.1880 -0.7282 -1.6063
  123OSM   H15B13026   2.771   4.714   6.070 -1.1664 -1.3203 -0.0991
  123OSM   H15C13027   2.928   4.683   5.983  1.0944  0.8640  0.9533
  123OSM    C1413028   2.838   4.628   6.304 -0.1388 -0.1958 -0.0993
  123OSM   H14A13029   2.864   4.572   6.392 -0.1711 -0.6301 -0.3638
  123OSM   H14B13030   2.732   4.623   6.281 -0.3130 -0.9404  0.8303
  123OSM   H14C13031   2.866   4.727   6.338 -2.2131  1.3189 -2.6274
  123OSM    C1313032   2.890   4.461   6.155 -0.2415 -0.0890  0.3736
  123OSM   H13A13033   2.912   4.400   6.242  0.0511 -1.6239 -0.7532
  123OSM   H13B13034   2.936   4.425   6.064 -1.8817 -1.1964 -0.0606
  123OSM   H13C13035   2.787   4.449   6.125 -0.3333  1.2007  0.1437
  123OSM    C1213036   3.072   4.611   6.226 -0.1184  0.2306  0.9208
  123OSM   H12A13037   3.124   4.597   6.132 -3.5534  0.9290 -1.2149
  123OSM   H12B13038   3.089   4.535   6.301  0.5962  0.6644  1.1945
  123OSM    C1113039   3.119   4.742   6.292  0.1878 -0.1445  0.3573
  123OSM   H11A13040   3.222   4.716   6.325  1.7946 -0.2089 -4.2747
  123OSM   H11B13041   3.064   4.780   6.380 -1.2938  0.1021 -0.6626
  123OSM      P13042   3.253   4.894   6.123 -0.4151 -0.0556 -0.4780
  123OSM    O1313043   3.323   4.780   6.058 -0.1160 -0.5427  0.0286
  123OSM    O1413044   3.235   5.010   6.031 -0.6238  0.2164  0.2214
  123OSM    O1113045   3.348   4.935   6.249  0.0469 -0.3694  0.2679
  123OSM    O1213046   3.118   4.846   6.197 -0.9931  0.7379  0.0912
  123OSM    C1S13047   3.312   5.003   6.363 -0.2233 -0.3474 -0.8230
  123OSM    H1S13048   3.202   5.006   6.371 -0.3214 -0.6874 -1.9571
  123OSM    H1T13049   3.361   5.103   6.373  2.2333 -1.4308 -1.6649
  123OSM     NF13050   3.327   4.975   6.615 -0.6070 -0.0506 -0.2271
  123OSM    HNF13051   3.403   4.988   6.678  0.3880 -2.4815 -0.8372
  123OSM    C2S13052   3.376   4.927   6.485 -0.4323 -0.1426  0.0906
  123OSM    H2S13053   3.341   4.822   6.492  2.2993 -0.9880  1.5858
  123OSM    C3S13054   3.532   4.916   6.469  0.5671  0.4633  1.0526
  123OSM    H3S13055   3.566   5.021   6.454 -0.2957  0.6341  0.3067
  123OSM     O313056   3.578   4.838   6.356 -0.1434 -0.2916 -0.5662
  123OSM    HO313057   3.498   4.814   6.311 -0.0221  2.0083 -2.1074
  123OSM    C4S13058   3.597   4.857   6.595 -0.0713 -0.4778  0.2212
  123OSM    H4S13059   3.598   4.748   6.604 -0.6797 -0.5504 -0.5767
  123OSM    C5S13060   3.662   4.933   6.677  0.2551  0.3288 -0.6516
  123OSM    H5S13061   3.689   5.037   6.653 -0.6497  1.3595  2.6270
  123OSM    C6S13062   3.729   4.895   6.804 -0.1252  0.1311 -0.0204
  123OSM    H6S13063   3.693   4.962   6.884 -1.0213 -0.7299  0.3167
  123OSM    H6T13064   3.836   4.918   6.783 -0.6381  1.6277 -1.1173
  123OSM    C7S13065   3.720   4.749   6.866 -0.0720  0.9084  0.5570
  123OSM    H7S13066   3.750   4.674   6.791 -2.2396  0.6784 -0.1134
  123OSM    H7T13067   3.617   4.729   6.903 -0.2591 -1.5904 -1.2237
  123OSM    C8S13068   3.808   4.734   6.997 -0.4026 -0.1014  0.2166
  123OSM    H8S13069   3.914   4.763   6.982 -0.1193 -1.2379 -0.0310
  123OSM    H8T13070   3.802   4.629   7.032 -1.3236  0.1217  0.7536
  123OSM    C9S13071   3.760   4.830   7.107  0.2483 -0.3676  0.0617
  123OSM    H9S13072   3.650   4.849   7.110 -0.3372 -3.5891  2.5797
  123OSM    H9T13073   3.816   4.922   7.081 -0.2991 -0.1550 -0.3699
  123OSM   C10S13074   3.808   4.777   7.241 -0.2547  1.0613  0.3404
  123OSM   H10S13075   3.917   4.769   7.223 -0.1504 -1.4070  1.9281
  123OSM   H10T13076   3.779   4.672   7.258 -0.0699  1.0902  0.8340
  123OSM   C11S13077   3.777   4.868   7.362 -0.3222  0.3996  0.2141
  123OSM   H11S13078   3.668   4.868   7.382 -0.0689 -1.4712  1.6503
  123OSM   H11T13079   3.815   4.972   7.353  1.0976 -0.1318 -0.1172
  123OSM   C12S13080   3.850   4.818   7.488 -0.2478  0.9989  0.5791
  123OSM   H12S13081   3.954   4.802   7.451  0.2181  4.0914  0.4668
  123OSM   H12T13082   3.811   4.719   7.520 -2.3966  2.0695  1.3396
  123OSM   C13S13083   3.851   4.913   7.603  0.2138  0.3438  0.5280
  123OSM   H13S13084   3.747   4.949   7.618 -0.1467 -0.6236  0.3818
  123OSM   H13T13085   3.904   5.007   7.575  0.5137  0.4975  1.5997
  123OSM   C14S13086   3.915   4.848   7.726  0.2754 -0.2685 -0.1395
  123OSM   H14S13087   4.016   4.812   7.695 -0.6750 -1.1957 -2.2646
  123OSM   H14T13088   3.856   4.762   7.764 -2.5615  1.1665 -1.1903
  123OSM   C15S13089   3.943   4.947   7.845 -0.1465  0.7786  0.5038
  123OSM   H15S13090   4.011   5.028   7.811  0.9468 -0.7160 -0.9343
  123OSM   H15T13091   3.997   4.898   7.929 -0.6169 -1.0742 -0.2531
  123OSM   C16S13092   3.818   5.000   7.917  0.1492 -0.1113 -0.2024
  123OSM   H16S13093   3.772   4.904   7.951 -2.2279  0.9226 -0.3846
  123OSM   H16T13094   3.751   5.055   7.848  1.0581 -0.3667 -1.3072
  123OSM   C17S13095   3.854   5.086   8.045  0.0468  0.6007  0.4917
  123OSM   H17S13096   3.909   5.173   8.003  1.0561  0.6824  1.9661
  123OSM   H17T13097   3.908   5.023   8.118  1.2272  0.7021 -0.2876
  123OSM   C18S13098   3.729   5.128   8.117 -0.6184 -0.1935  0.3401
  123OSM   H18S13099   3.656   5.175   8.048 -1.0681  1.4522  1.9123
  123OSM   H18T13100   3.752   5.210   8.188 -2.9457 -0.1070  1.0375
  123OSM   H18U13101   3.667   5.045   8.158 -0.1325 -2.9236 -4.0896
  123OSM    C1F13102   3.200   4.985   6.659  0.4834  0.2887 -0.2441
  123OSM     OF13103   3.101   5.025   6.589 -0.4266 -0.5754 -0.4905
  123OSM    C2F13104   3.182   4.930   6.796  0.1005  0.1540  0.0660
  123OSM    H2F13105   3.107   4.848   6.790 -0.0753  0.2281  1.2151
  123OSM    H2G13106   3.150   5.006   6.870 -0.5056 -1.1750  1.1923
  123OSM    C3F13107   3.314   4.863   6.851 -0.6304 -0.6047  0.6672
  123OSM    H3F13108   3.398   4.931   6.876  0.4135 -0.3357 -3.1718
  123OSM    H3G13109   3.341   4.786   6.775 -1.3211 -1.2744  1.0906
  123OSM    C4F13110   3.298   4.785   6.985 -0.1814  0.0582 -0.6981
  123OSM    H4F13111   3.390   4.723   6.991 -0.4434 -0.4629 -1.8887
  123OSM    H4G13112   3.211   4.716   6.990  0.4646 -0.9082 -2.3747
  123OSM    C5F13113   3.303   4.869   7.120  0.2477 -0.3610  0.9221
  123OSM    H5F13114   3.215   4.936   7.122 -0.1815 -0.8772 -0.3734
  123OSM    H5G13115   3.392   4.932   7.100 -1.0211  0.3662 -2.7653
  123OSM    C6F13116   3.319   4.783   7.242 -0.1170  0.7692 -0.4797
  123OSM    H6F13117   3.399   4.705   7.236 -1.5280 -0.6690 -0.8540
  123OSM    H6G13118   3.224   4.730   7.263  0.6312 -0.5885 -0.4056
  123OSM    C7F13119   3.336   4.865   7.370  0.0965  0.1412 -0.0510
  123OSM    H7F13120   3.263   4.948   7.355 -1.4647 -1.1861 -0.0280
  123OSM    H7G13121   3.435   4.915   7.370 -0.2285  0.7935  0.9749
  123OSM    C8F13122   3.296   4.809   7.501 -0.5615 -0.6349 -0.0061
  123OSM    H8F13123   3.201   4.752   7.501 -1.3362  0.6442 -0.9056
  123OSM    H8G13124   3.286   4.905   7.557  0.1946 -0.0464 -0.8706
  123OSM    C9F13125   3.414   4.715   7.550  0.6217 -0.3379 -0.0382
  123OSM    H9F13126   3.429   4.621   7.494 -0.7889 -1.2038  1.0207
  123OSM   C10F13127   3.492   4.749   7.646 -0.2277 -0.2960  0.1707
  123OSM   H10F13128   3.579   4.686   7.673  0.4111  0.2845 -0.5214
  123OSM   C11F13129   3.484   4.882   7.718 -0.0732  1.0106 -0.0453
  123OSM   H11F13130   3.461   4.962   7.644 -2.2730 -1.1340 -1.7772
  123OSM   H11G13131   3.588   4.899   7.753  0.3534 -1.2474 -0.1537
  123OSM   C12F13132   3.384   4.884   7.832  0.4441 -0.6720  0.3986
  123OSM   H12F13133   3.282   4.860   7.797  0.5138  1.4807 -1.4030
  123OSM   H12G13134   3.378   4.993   7.851 -1.9618 -0.9805  1.6120
  123OSM   C13F13135   3.423   4.795   7.952  0.4532  0.3710  0.0304
  123OSM   H13F13136   3.507   4.845   8.004  0.5983  1.9945 -1.7248
  123OSM   H13G13137   3.461   4.694   7.926  0.7933  0.3505  0.5847
  123OSM   C14F13138   3.307   4.784   8.054 -0.4647  0.2891  0.1142
  123OSM   H14F13139   3.213   4.775   7.996  0.5733  0.2496 -1.6245
  123OSM   H14G13140   3.314   4.885   8.099 -1.8552 -0.0162  1.0010
  123OSM   C15F13141   3.338   4.670   8.156 -0.2936 -0.3203 -0.0715
  123OSM   H15F13142   3.449   4.665   8.157 -0.2707  0.1793  0.1811
  123OSM   H15G13143   3.315   4.574   8.104 -0.6821  1.0097 -2.4486
  123OSM   C16F13144   3.260   4.690   8.283 -0.3109 -0.1097  0.0788
  123OSM   H16F13145   3.154   4.704   8.254  0.4016  1.3339 -1.8695
  123OSM   H16G13146   3.299   4.781   8.332 -1.6595  0.6254 -0.2101
  123OSM   C17F13147   3.286   4.571   8.377 -0.3960 -1.4064 -0.5188
  123OSM   H17F13148   3.232   4.486   8.330 -1.0936 -0.5858 -1.2182
  123OSM   H17G13149   3.230   4.607   8.466  0.2757  1.7417 -1.3024
  123OSM   C18F13150   3.438   4.543   8.403  0.3131  0.2479  0.5976
  123OSM   H18F13151   3.443   4.458   8.474 -0.7677 -1.8464 -1.7352
  123OSM   H18G13152   3.486   4.635   8.442 -1.4688  1.9772 -1.1913
  123OSM   H18H13153   3.502   4.506   8.319 -0.2372 -2.0447  1.1537
  124OSM      N13154   5.713   2.711   6.211 -0.8532  0.3425  0.3324
  124OSM    C1513155   5.744   2.624   6.102  0.8160 -0.0383  0.3013
  124OSM   H15A13156   5.852   2.622   6.093  0.8482  0.4737  0.5689
  124OSM   H15B13157   5.713   2.670   6.009  1.7491  0.7787  0.3829
  124OSM   H15C13158   5.704   2.524   6.106  0.6018 -0.0162 -0.9964
  124OSM    C1413159   5.770   2.850   6.172  0.1950  0.2520  0.1004
  124OSM   H14A13160   5.876   2.835   6.160  0.2531  0.3033  0.5612
  124OSM   H14B13161   5.738   2.930   6.236  1.4058  0.3215  0.6241
  124OSM   H14C13162   5.738   2.880   6.073  0.4305  1.3612  0.3608
  124OSM    C1313163   5.566   2.733   6.217 -0.2037  0.1227  0.0864
  124OSM   H13A13164   5.521   2.638   6.191 -1.4913 -0.2606  3.5454
  124OSM   H13B13165   5.529   2.803   6.143  0.0508  0.8010  0.5947
  124OSM   H13C13166   5.531   2.762   6.315 -0.5325  1.7745 -0.5028
  124OSM    C1213167   5.775   2.673   6.345 -0.7587  0.6481 -0.2350
  124OSM   H12A13168   5.735   2.578   6.376 -0.2862  0.1252 -1.2048
  124OSM   H12B13169   5.747   2.749   6.417  0.2905  1.2191 -0.4172
  124OSM    C1113170   5.929   2.663   6.352  0.0566  0.2493  0.5175
  124OSM   H11A13171   5.956   2.662   6.460 -2.5923  0.5262  1.2190
  124OSM   H11B13172   5.966   2.757   6.307 -1.6715  0.1043 -1.2639
  124OSM      P13173   5.950   2.394   6.336 -0.0877  0.1393  0.0775
  124OSM    O1313174   5.838   2.334   6.259 -0.1782  0.1435 -0.0173
  124OSM    O1413175   6.074   2.316   6.335 -0.5522  0.2443 -0.1316
  124OSM    O1113176   5.904   2.412   6.488 -0.0627  0.4015  0.4182
  124OSM    O1213177   5.978   2.542   6.291  0.0883 -0.7073 -0.5413
  124OSM    C1S13178   6.015   2.415   6.581 -0.1524 -0.4465 -0.5316
  124OSM    H1S13179   6.095   2.485   6.548  1.1023 -1.6630 -0.0766
  124OSM    H1T13180   6.063   2.317   6.596 -0.1067 -0.5218 -1.1453
  124OSM     NF13181   6.089   2.441   6.808  0.5191 -0.5318 -0.3793
  124OSM    HNF13182   6.092   2.356   6.859 -0.8565 -0.8979 -0.9071
  124OSM    C2S13183   5.973   2.460   6.728  0.8677  0.1567 -0.1287
  124OSM    H2S13184   5.943   2.565   6.712  0.7135 -0.1053 -1.6563
  124OSM    C3S13185   5.843   2.386   6.783 -0.7702  0.0133 -0.1416
  124OSM    H3S13186   5.872   2.280   6.804 -1.0028  0.2910  1.7309
  124OSM     O313187   5.728   2.389   6.693  0.0451 -0.4282  0.5413
  124OSM    HO313188   5.766   2.418   6.610 -0.3928 -1.5312 -0.0632
  124OSM    C4S13189   5.798   2.434   6.925 -0.3025  0.3726 -0.3532
  124OSM    H4S13190   5.860   2.398   7.008  1.5077 -0.1549 -1.8900
  124OSM    C5S13191   5.693   2.512   6.961  0.0402 -0.4856 -0.0632
  124OSM    H5S13192   5.614   2.531   6.887  0.8528 -0.3418 -0.9070
  124OSM    C6S13193   5.661   2.548   7.106 -0.4362 -0.3913  0.3836
  124OSM    H6S13194   5.574   2.617   7.098 -1.5675 -1.7577  0.4447
  124OSM    H6T13195   5.755   2.593   7.143 -0.0147 -2.2128  1.6023
  124OSM    C7S13196   5.618   2.431   7.198 -0.3377  0.7352 -0.0182
  124OSM    H7S13197   5.686   2.343   7.188 -0.7913  0.4441 -0.6048
  124OSM    H7T13198   5.528   2.387   7.150  0.7878 -1.0651 -0.5433
  124OSM    C8S13199   5.595   2.463   7.347  0.0675 -0.2227 -0.3313
  124OSM    H8S13200   5.556   2.371   7.395 -0.0836 -0.1054 -0.2274
  124OSM    H8T13201   5.510   2.534   7.354  0.8233  0.6119  0.6218
  124OSM    C9S13202   5.720   2.507   7.430 -0.1794  0.1674  0.0299
  124OSM    H9S13203   5.792   2.561   7.366  0.5905  1.4009  1.9013
  124OSM    H9T13204   5.782   2.419   7.458 -1.6661 -0.8984  0.0547
  124OSM   C10S13205   5.680   2.584   7.554 -0.1302  0.5990 -0.6977
  124OSM   H10S13206   5.618   2.512   7.611 -0.3635  0.5797 -0.9745
  124OSM   H10T13207   5.619   2.673   7.529  1.8424  1.6152 -2.0049
  124OSM   C11S13208   5.790   2.636   7.651 -0.1206  0.0049  0.2263
  124OSM   H11S13209   5.754   2.723   7.709 -0.8669 -0.4857  0.5023
  124OSM   H11T13210   5.888   2.655   7.603  0.0047  0.6424  0.7234
  124OSM   C12S13211   5.824   2.530   7.754  0.5322  0.3932 -0.5246
  124OSM   H12S13212   5.888   2.453   7.704  0.1003  0.6378 -1.4622
  124OSM   H12T13213   5.729   2.488   7.793 -0.0281  1.0562 -1.1767
  124OSM   C13S13214   5.909   2.579   7.883  0.4838  0.6491 -0.0854
  124OSM   H13S13215   5.839   2.634   7.949  0.2128 -0.2690  0.3988
  124OSM   H13T13216   5.989   2.647   7.844  0.3105  0.7449 -0.2735
  124OSM   C14S13217   5.971   2.464   7.966  0.2838 -0.1025  0.3391
  124OSM   H14S13218   6.062   2.431   7.911  0.6633 -0.1205  0.9660
  124OSM   H14T13219   5.906   2.374   7.972  0.3657 -0.4376 -2.8340
  124OSM   C15S13220   6.033   2.495   8.107  0.1692 -0.0638  0.6438
  124OSM   H15S13221   5.944   2.539   8.155 -1.9959 -3.2505 -0.3277
  124OSM   H15T13222   6.111   2.573   8.093  1.3339 -1.4436 -0.7077
  124OSM   C16S13223   6.093   2.367   8.172 -0.8674  0.6249 -0.4961
  124OSM   H16S13224   6.164   2.328   8.097  1.3932  4.1105 -0.3200
  124OSM   H16T13225   6.019   2.285   8.179  0.3214 -0.3200  1.6185
  124OSM   C17S13226   6.150   2.387   8.309  0.3505 -0.0715 -0.3502
  124OSM   H17S13227   6.080   2.442   8.376 -0.8636 -1.4663 -0.4526
  124OSM   H17T13228   6.246   2.443   8.300  0.7986 -1.0136 -1.5360
  124OSM   C18S13229   6.187   2.252   8.372  0.5593  0.2240 -0.9955
  124OSM   H18S13230   6.099   2.184   8.375  0.5850  0.1861 -1.1167
  124OSM   H18T13231   6.222   2.284   8.472  0.7963 -0.5141 -0.8390
  124OSM   H18U13232   6.275   2.206   8.321  2.0412 -0.7179  2.2880
  124OSM    C1F13233   6.196   2.514   6.796  0.1355 -0.4542  0.5657
  124OSM     OF13234   6.193   2.618   6.732  0.0406 -0.4244  0.5079
  124OSM    C2F13235   6.328   2.462   6.840  0.3716  0.1367  0.0880
  124OSM    H2F13236   6.385   2.450   6.745  2.5701 -1.3921  1.5499
  124OSM    H2G13237   6.314   2.362   6.887 -0.4774  0.6083  0.8529
  124OSM    C3F13238   6.400   2.569   6.928 -0.4239 -0.2911  0.3201
  124OSM    H3F13239   6.345   2.623   7.008  1.7659 -0.2406  1.8531
  124OSM    H3G13240   6.446   2.646   6.862  0.6560 -1.4336 -0.3009
  124OSM    C4F13241   6.526   2.507   7.003  0.1100 -0.0722  0.2241
  124OSM    H4F13242   6.570   2.447   6.920 -3.1594 -1.5067 -0.5764
  124OSM    H4G13243   6.490   2.435   7.080 -0.1381  1.7248  1.8265
  124OSM    C5F13244   6.619   2.608   7.070  0.4891 -0.3923  0.0554
  124OSM    H5F13245   6.693   2.540   7.119  0.7952 -0.4348 -0.4633
  124OSM    H5G13246   6.561   2.652   7.153  1.8244  0.4743  0.5527
  124OSM    C6F13247   6.676   2.723   6.993 -0.2502  0.7996 -0.5482
  124OSM    H6F13248   6.591   2.778   6.949 -0.6198  1.3067  0.7770
  124OSM    H6G13249   6.736   2.677   6.911 -1.7693 -0.0273 -1.2116
  124OSM    C7F13250   6.761   2.820   7.073 -0.6985 -0.0463  0.2465
  124OSM    H7F13251   6.800   2.888   6.995  0.1466 -1.8461 -0.9366
  124OSM    H7G13252   6.848   2.761   7.109 -1.5938 -0.6580  1.4492
  124OSM    C8F13253   6.691   2.891   7.186  1.0137  0.2427 -0.6409
  124OSM    H8F13254   6.670   2.806   7.254  1.8408 -0.2095 -0.9431
  124OSM    H8G13255   6.594   2.936   7.157  0.8616  0.6241  0.4371
  124OSM    C9F13256   6.790   2.983   7.259 -0.3083 -1.1059  0.5722
  124OSM    H9F13257   6.829   3.066   7.198 -1.3818 -0.9362  0.0994
  124OSM   C10F13258   6.829   2.964   7.384 -0.2348  0.3789 -1.0130
  124OSM   H10F13259   6.915   3.017   7.426 -0.7679  0.5711 -0.1341
  124OSM   C11F13260   6.793   2.850   7.475  0.0048  0.7657 -0.1944
  124OSM   H11F13261   6.838   2.754   7.443 -0.9075  0.5876 -0.9748
  124OSM   H11G13262   6.684   2.829   7.468 -0.0763  0.8455  0.7557
  124OSM   C12F13263   6.826   2.870   7.621 -0.5726 -0.5782  0.3541
  124OSM   H12F13264   6.932   2.901   7.628 -0.9830  1.2989 -1.1374
  124OSM   H12G13265   6.821   2.777   7.682  0.4851 -0.9820 -0.1589
  124OSM   C13F13266   6.738   2.971   7.694  0.1157 -0.8294  0.4356
  124OSM   H13F13267   6.637   2.936   7.665  0.3140  0.6200 -2.1810
  124OSM   H13G13268   6.756   3.072   7.651 -2.1144 -1.1473 -1.3343
  124OSM   C14F13269   6.731   2.972   7.850 -1.1124 -0.2731  0.8319
  124OSM   H14F13270   6.702   2.871   7.887 -0.0689 -0.6169  0.7199
  124OSM   H14G13271   6.659   3.050   7.882 -0.7271  0.6770 -0.5583
  124OSM   C15F13272   6.860   3.013   7.922 -1.0604  0.4937 -0.2156
  124OSM   H15F13273   6.896   3.103   7.868 -2.3721 -0.6830 -3.1614
  124OSM   H15G13274   6.944   2.942   7.910 -1.2031  0.6161 -2.0246
  124OSM   C16F13275   6.836   3.056   8.071 -0.7254 -0.0338  0.1808
  124OSM   H16F13276   6.759   3.137   8.073 -1.6987 -0.9582  0.4549
  124OSM   H16G13277   6.926   3.104   8.114  0.1880 -0.0962 -1.6657
  124OSM   C17F13278   6.798   2.944   8.173 -0.3119 -0.5780 -0.5791
  124OSM   H17F13279   6.875   2.864   8.171 -2.5376 -2.8087  0.4877
  124OSM   H17G13280   6.704   2.892   8.145 -0.8917  1.1009 -1.8463
  124OSM   C18F13281   6.781   2.995   8.318 -0.0857 -0.3034  0.4548
  124OSM   H18F13282   6.685   3.047   8.335 -0.1996 -0.0657 -0.8621
  124OSM   H18G13283   6.862   3.071   8.333 -0.1710  0.2745 -1.7835
  124OSM   H18H13284   6.790   2.903   8.379  1.3509 -0.6898 -0.3015
  125OSM      N13285   6.288   3.897   6.320 -0.3192 -0.3964  0.2540
  125OSM    C1513286   6.161   3.890   6.233  0.7650  0.7441 -0.4432
  125OSM   H15A13287   6.170   3.861   6.129 -0.3761 -1.1913 -0.0331
  125OSM   H15B13288   6.101   3.980   6.224  0.2853  0.4208 -0.4810
  125OSM   H15C13289   6.094   3.814   6.270  0.8865  1.0473  0.4217
  125OSM    C1413290   6.394   3.962   6.232 -0.0114  0.5726  0.1417
  125OSM   H14A13291   6.408   3.897   6.147  0.3265  0.1155  0.5467
  125OSM   H14B13292   6.489   3.962   6.281  0.3035  3.7042 -0.4208
  125OSM   H14C13293   6.373   4.064   6.203 -1.0929 -0.0000 -1.1784
  125OSM    C1313294   6.255   3.983   6.437 -0.0139  0.2763  0.3445
  125OSM   H13A13295   6.226   4.079   6.399  0.3692  1.4797  2.9668
  125OSM   H13B13296   6.340   3.993   6.503 -0.8621 -1.6261  1.7896
  125OSM   H13C13297   6.177   3.935   6.495  0.6238  0.1714  1.1284
  125OSM    C1213298   6.333   3.759   6.363  0.2907  0.4079 -0.2770
  125OSM   H12A13299   6.266   3.731   6.443  0.2955  1.4665  0.0947
  125OSM   H12B13300   6.425   3.779   6.416  1.2225  0.9157 -2.0423
  125OSM    C1113301   6.361   3.637   6.264  0.2576  0.3549  0.1190
  125OSM   H11A13302   6.275   3.634   6.193  2.3967 -1.3007 -2.5000
  125OSM   H11B13303   6.366   3.538   6.314  0.9412 -0.8030 -2.1752
  125OSM      P13304   6.609   3.634   6.235 -0.6021  0.6826  0.5130
  125OSM    O1313305   6.636   3.493   6.196  0.0287 -0.0169 -0.3722
  125OSM    O1413306   6.708   3.735   6.178 -0.1968 -0.2840  0.4621
  125OSM    O1113307   6.611   3.646   6.390  0.1732 -0.3973  0.1497
  125OSM    O1213308   6.476   3.671   6.186 -0.5893 -0.1827 -0.6213
  125OSM    C1S13309   6.686   3.736   6.466 -0.5686  0.6309 -0.6314
  125OSM    H1S13310   6.646   3.838   6.452  0.8634  1.2847 -0.1369
  125OSM    H1T13311   6.793   3.749   6.439 -0.3409  1.9456  0.8058
  125OSM     NF13312   6.699   3.824   6.701 -0.0101  0.0009 -0.2391
  125OSM    HNF13313   6.790   3.829   6.741 -1.7025 -0.1352  3.9101
  125OSM    C2S13314   6.671   3.707   6.618  0.1378 -0.1586 -0.2331
  125OSM    H2S13315   6.567   3.674   6.637  0.7949 -2.4933 -0.5700
  125OSM    C3S13316   6.759   3.581   6.652  0.3816 -0.3426 -0.2254
  125OSM    H3S13317   6.865   3.614   6.659  0.7747 -1.1996 -1.9572
  125OSM     O313318   6.766   3.486   6.546  0.3375  0.5857 -0.7879
  125OSM    HO313319   6.701   3.517   6.483 -2.8955 -4.6895 -0.2706
  125OSM    C4S13320   6.720   3.517   6.782  0.0970  0.0641  0.3415
  125OSM    H4S13321   6.756   3.575   6.868 -1.3344  1.5125 -0.0013
  125OSM    C5S13322   6.648   3.406   6.804  0.2787 -0.3043 -1.0883
  125OSM    H5S13323   6.595   3.358   6.721 -0.8842 -1.5240  0.3493
  125OSM    C6S13324   6.618   3.349   6.938  0.1442  0.1531 -0.4890
  125OSM    H6S13325   6.656   3.245   6.943  0.9384  0.5235  1.8857
  125OSM    H6T13326   6.507   3.352   6.942  0.2036  0.0827  2.9927
  125OSM    C7S13327   6.692   3.422   7.058 -0.5080 -0.0933  0.5242
  125OSM    H7S13328   6.676   3.532   7.064 -2.0734 -0.3659  1.6914
  125OSM    H7T13329   6.802   3.409   7.047 -0.2367  1.0593  1.6864
  125OSM    C8S13330   6.655   3.365   7.202 -0.4941 -0.6233 -0.1394
  125OSM    H8S13331   6.666   3.255   7.210  0.3109 -0.5951 -0.7005
  125OSM    H8T13332   6.549   3.381   7.231 -0.6155  0.1921 -1.0006
  125OSM    C9S13333   6.722   3.448   7.318  0.5106 -0.1505  0.1929
  125OSM    H9S13334   6.672   3.546   7.314  0.4321 -0.2430 -1.5049
  125OSM    H9T13335   6.831   3.448   7.295  0.4690  0.3869 -0.0093
  125OSM   C10S13336   6.690   3.392   7.459  0.3422 -0.1215  0.2725
  125OSM   H10S13337   6.723   3.286   7.463  0.1897 -0.2211 -0.9335
  125OSM   H10T13338   6.579   3.395   7.460  0.2368 -3.0559 -0.3716
  125OSM   C11S13339   6.741   3.471   7.576 -0.5464  0.5066  0.4335
  125OSM   H11S13340   6.667   3.554   7.583 -0.3129  0.5301  3.2516
  125OSM   H11T13341   6.836   3.525   7.554 -0.9837  0.5575 -1.3780
  125OSM   C12S13342   6.725   3.401   7.714  0.6268  0.0069 -1.2697
  125OSM   H12S13343   6.803   3.323   7.730  0.4666 -0.0382 -0.6973
  125OSM   H12T13344   6.629   3.345   7.719  0.2107  0.8670  0.5856
  125OSM   C13S13345   6.720   3.507   7.827 -0.1372 -0.3876 -0.0733
  125OSM   H13S13346   6.690   3.607   7.788  2.3757  0.4159 -0.0280
  125OSM   H13T13347   6.822   3.522   7.869 -0.6088  1.2089  0.5555
  125OSM   C14S13348   6.634   3.460   7.944  0.3222  0.5322 -0.7432
  125OSM   H14S13349   6.693   3.370   7.975 -0.0124  1.0940  1.6149
  125OSM   H14T13350   6.531   3.433   7.912 -0.1968  0.7210  0.7576
  125OSM   C15S13351   6.624   3.558   8.056 -0.1867  0.9128 -0.1990
  125OSM   H15S13352   6.530   3.562   8.116 -1.9411 -2.1946 -2.5868
  125OSM   H15T13353   6.600   3.650   7.999  0.8342  0.5981 -1.1436
  125OSM   C16S13354   6.737   3.556   8.145 -0.2587  0.2504 -0.1985
  125OSM   H16S13355   6.759   3.652   8.197  1.3092 -0.6842  0.8938
  125OSM   H16T13356   6.833   3.523   8.099 -1.8130 -2.5964 -1.4781
  125OSM   C17S13357   6.709   3.446   8.253  0.1908 -0.3176 -0.4818
  125OSM   H17S13358   6.647   3.367   8.206  0.3865 -0.5448 -0.3568
  125OSM   H17T13359   6.633   3.479   8.327 -1.7554 -2.9463 -1.2255
  125OSM   C18S13360   6.834   3.387   8.318 -0.8053  0.0748 -0.4580
  125OSM   H18S13361   6.905   3.460   8.362 -2.0419  1.2398 -0.3494
  125OSM   H18T13362   6.883   3.337   8.232 -0.1883  1.4243 -0.9000
  125OSM   H18U13363   6.807   3.307   8.391 -0.3384  0.4414  0.1171
  125OSM    C1F13364   6.639   3.935   6.689 -0.0177 -0.1997 -0.0647
  125OSM     OF13365   6.526   3.943   6.643  0.7780  0.8815  0.0411
  125OSM    C2F13366   6.707   4.062   6.729  0.2674  0.4186 -0.0859
  125OSM    H2F13367   6.723   4.111   6.631  1.7441  0.4493  0.1521
  125OSM    H2G13368   6.800   4.048   6.789 -0.4524 -1.7361  0.5667
  125OSM    C3F13369   6.615   4.150   6.817  0.2582  0.4899 -0.3730
  125OSM    H3F13370   6.511   4.152   6.778 -0.5374  0.2978  1.6964
  125OSM    H3G13371   6.646   4.257   6.823 -1.9304  1.0356  1.7795
  125OSM    C4F13372   6.623   4.107   6.958 -0.3078  0.5820 -0.6657
  125OSM    H4F13373   6.727   4.116   6.997 -0.5498 -3.4854  1.2151
  125OSM    H4G13374   6.598   3.998   6.958  0.7949  0.3142  0.3528
  125OSM    C5F13375   6.550   4.185   7.062  0.4936  0.6043  0.0450
  125OSM    H5F13376   6.441   4.163   7.057  0.7785 -1.4129  2.3168
  125OSM    H5G13377   6.563   4.292   7.033  0.0623  0.4751 -0.6512
  125OSM    C6F13378   6.606   4.179   7.213 -0.2486  0.0189 -0.3155
  125OSM    H6F13379   6.706   4.225   7.204  1.0230 -2.3477  1.1906
  125OSM    H6G13380   6.606   4.078   7.259 -0.9292 -0.3895 -1.1820
  125OSM    C7F13381   6.529   4.279   7.297  0.2865  0.5362  0.1726
  125OSM    H7F13382   6.419   4.261   7.296  0.1809  1.2183 -0.6903
  125OSM    H7G13383   6.536   4.382   7.257 -3.0220  0.9048  0.3947
  125OSM    C8F13384   6.559   4.284   7.449 -0.8173  0.0969 -0.5291
  125OSM    H8F13385   6.669   4.299   7.453 -0.5370 -2.1021  0.7736
  125OSM    H8G13386   6.558   4.187   7.504 -0.2898 -0.0129 -0.7097
  125OSM    C9F13387   6.495   4.403   7.511  0.2600 -0.3542  0.0701
  125OSM    H9F13388   6.500   4.494   7.450  0.1374  0.7686  1.6775
  125OSM   C10F13389   6.419   4.408   7.622 -0.2875  0.0381 -0.4375
  125OSM   H10F13390   6.371   4.505   7.643 -2.6834 -0.2800 -4.0580
  125OSM   C11F13391   6.390   4.292   7.713 -0.2124 -0.3592 -0.2684
  125OSM   H11F13392   6.417   4.195   7.668  1.2785 -1.1012  2.1452
  125OSM   H11G13393   6.280   4.288   7.732 -0.7203  2.1508 -2.2573
  125OSM   C12F13394   6.473   4.303   7.838 -0.1748 -0.1500  0.4839
  125OSM   H12F13395   6.457   4.399   7.891 -1.5133  0.8799 -1.7588
  125OSM   H12G13396   6.582   4.281   7.828  0.1475  1.4640  0.3964
  125OSM   C13F13397   6.424   4.179   7.923 -0.2270  0.5209 -0.3049
  125OSM   H13F13398   6.500   4.151   7.999 -0.7215 -0.6191 -0.2113
  125OSM   H13G13399   6.428   4.091   7.854  1.9613  0.9357 -0.7321
  125OSM   C14F13400   6.291   4.195   7.999 -0.2213 -0.5678  0.0183
  125OSM   H14F13401   6.266   4.098   8.048  2.2203 -1.2613 -0.0407
  125OSM   H14G13402   6.207   4.229   7.935 -0.6423 -1.5489  0.0309
  125OSM   C15F13403   6.289   4.306   8.115  0.4053  0.2623 -0.0505
  125OSM   H15F13404   6.312   4.399   8.060  0.4740  0.4095  0.2302
  125OSM   H15G13405   6.363   4.286   8.195  0.8013 -2.6994 -1.0701
  125OSM   C16F13406   6.154   4.315   8.187 -0.1783  0.0753 -0.0671
  125OSM   H16F13407   6.080   4.328   8.106  0.7059 -0.3310 -0.9445
  125OSM   H16G13408   6.146   4.410   8.246  1.7994 -0.2661  0.8131
  125OSM   C17F13409   6.119   4.190   8.276 -0.3542  0.0259  0.7095
  125OSM   H17F13410   6.184   4.186   8.366  0.8552  0.4428 -0.1514
  125OSM   H17G13411   6.141   4.099   8.217  0.8361  0.0680  1.0836
  125OSM   C18F13412   5.971   4.185   8.301 -0.8972 -0.1601 -0.6419
  125OSM   H18F13413   5.917   4.156   8.208  0.2122 -1.3301 -0.9381
  125OSM   H18G13414   5.941   4.285   8.337 -0.7943  0.6313 -2.6871
  125OSM   H18H13415   5.955   4.112   8.384  0.9600 -1.1701 -1.1405
  126OSM      N13416   4.362   4.078   6.628  0.2589 -0.0611 -0.0443
  126OSM    C1513417   4.264   4.183   6.673  0.1589  0.0632 -0.5994
  126OSM   H15A13418   4.170   4.141   6.705  0.0048  0.1140 -0.9871
  126OSM   H15B13419   4.253   4.260   6.599  3.1253  0.9517 -0.1982
  126OSM   H15C13420   4.299   4.236   6.760  1.1801 -1.7075  0.0972
  126OSM    C1413421   4.290   4.014   6.505 -0.1138  0.3455 -0.3205
  126OSM   H14A13422   4.349   3.926   6.483 -1.0700 -0.9620  2.2719
  126OSM   H14B13423   4.286   4.074   6.415 -1.9246  2.4070  1.1067
  126OSM   H14C13424   4.190   3.979   6.527  0.0474  0.6458  0.9161
  126OSM    C1313425   4.484   4.151   6.577  0.1852  0.3766 -0.0612
  126OSM   H13A13426   4.542   4.191   6.658  0.8095  0.0653 -0.3456
  126OSM   H13B13427   4.458   4.234   6.513  1.6367  0.1435 -0.9834
  126OSM   H13C13428   4.541   4.082   6.516  1.5186 -0.9494  2.6370
  126OSM    C1213429   4.382   3.979   6.740  0.2291  0.2342 -0.2501
  126OSM   H12A13430   4.293   3.919   6.756  0.3650 -0.1195 -0.8065
  126OSM   H12B13431   4.385   4.029   6.836 -1.5735 -1.9122  1.0030
  126OSM    C1113432   4.503   3.881   6.725 -0.9820  0.0178  0.7852
  126OSM   H11A13433   4.510   3.826   6.821 -0.2157  0.3077  0.9012
  126OSM   H11B13434   4.595   3.943   6.714 -1.3819  0.2569 -1.7199
  126OSM      P13435   4.415   3.647   6.616 -0.3594  0.2421  0.5713
  126OSM    O1313436   4.266   3.668   6.601  0.6860 -0.0205 -0.1573
  126OSM    O1413437   4.483   3.550   6.527 -0.0970 -0.0342  0.3945
  126OSM    O1113438   4.442   3.610   6.760 -0.0434 -0.7441  0.0668
  126OSM    O1213439   4.490   3.785   6.614 -0.2542 -0.1140 -0.1039
  126OSM    C1S13440   4.338   3.589   6.851 -0.5466 -0.0026  0.4422
  126OSM    H1S13441   4.263   3.521   6.805  2.0165 -1.8456 -1.1141
  126OSM    H1T13442   4.286   3.681   6.885 -1.0556 -0.3497  0.6171
  126OSM     NF13443   4.290   3.462   7.046  0.3097  0.1622 -0.1536
  126OSM    HNF13444   4.244   3.522   7.110 -0.1762 -1.7454  1.3401
  126OSM    C2S13445   4.392   3.515   6.967 -0.4468 -0.0423 -0.5268
  126OSM    H2S13446   4.462   3.432   6.941 -0.8098 -0.7317  0.6563
  126OSM    C3S13447   4.483   3.625   7.046 -0.2677  0.4583  0.1809
  126OSM    H3S13448   4.431   3.720   7.071 -0.4261  0.1065  1.1869
  126OSM     O313449   4.604   3.650   6.980  0.9129 -0.8565  0.0665
  126OSM    HO313450   4.583   3.666   6.888 -0.2107  0.8981  0.6198
  126OSM    C4S13451   4.517   3.579   7.188 -0.3615  0.0171  0.1679
  126OSM    H4S13452   4.448   3.626   7.260  1.7954 -0.6780  2.7602
  126OSM    C5S13453   4.620   3.487   7.226 -0.2421 -0.7119  0.8188
  126OSM    H5S13454   4.671   3.427   7.149  3.4311  0.3890  2.3016
  126OSM    C6S13455   4.646   3.441   7.368 -0.0667  0.8507  0.1857
  126OSM    H6S13456   4.739   3.495   7.398 -0.7037  1.8394  0.4111
  126OSM    H6T13457   4.666   3.332   7.361 -0.2585  0.8962 -1.1139
  126OSM    C7S13458   4.538   3.463   7.474 -0.1579  0.1531  0.0312
  126OSM    H7S13459   4.445   3.403   7.463  0.2441 -0.9338  2.2126
  126OSM    H7T13460   4.504   3.568   7.466 -0.5391  0.1379  1.3202
  126OSM    C8S13461   4.599   3.437   7.614  0.0743 -0.1961  0.3360
  126OSM    H8S13462   4.677   3.517   7.621 -1.0943  0.9838  0.1584
  126OSM    H8T13463   4.648   3.340   7.635  0.3284 -0.1483 -0.0302
  126OSM    C9S13464   4.504   3.473   7.729 -0.1920 -0.1425 -0.0251
  126OSM    H9S13465   4.419   3.402   7.733 -1.4882  1.4919  2.7343
  126OSM    H9T13466   4.463   3.569   7.692 -3.6156 -0.5677  2.4344
  126OSM   C10S13467   4.574   3.479   7.860  0.2404 -0.1204  0.0474
  126OSM   H10S13468   4.648   3.562   7.862  1.6820 -1.2417 -3.6572
  126OSM   H10T13469   4.622   3.379   7.852 -0.6589 -0.7033  1.7221
  126OSM   C11S13470   4.472   3.490   7.967  0.3584 -0.6004  0.6918
  126OSM   H11S13471   4.399   3.407   7.956  0.3926 -0.5703  0.2155
  126OSM   H11T13472   4.423   3.589   7.953 -1.5731 -1.4333  1.4618
  126OSM   C12S13473   4.533   3.507   8.118  0.1426  0.0533 -0.4494
  126OSM   H12S13474   4.605   3.591   8.107  0.1533  0.3940  2.0178
  126OSM   H12T13475   4.583   3.411   8.142  1.8273  0.9994 -0.0894
  126OSM   C13S13476   4.430   3.551   8.230 -0.5955 -0.0727 -0.3608
  126OSM   H13S13477   4.335   3.493   8.229  0.3973 -1.7087 -1.8607
  126OSM   H13T13478   4.398   3.654   8.203 -0.0142 -0.4110 -2.3837
  126OSM   C14S13479   4.491   3.557   8.368 -0.1378  0.5757  0.7754
  126OSM   H14S13480   4.418   3.631   8.407 -0.0335  1.4055 -0.5731
  126OSM   H14T13481   4.598   3.585   8.368  0.3180 -1.1021  1.6265
  126OSM   C15S13482   4.473   3.425   8.443 -0.6046  0.3119  0.1382
  126OSM   H15S13483   4.526   3.340   8.395 -1.7629 -1.1160  1.2965
  126OSM   H15T13484   4.368   3.390   8.458  0.3942 -2.3754  1.2385
  126OSM   C16S13485   4.533   3.440   8.586  0.0697  0.1072  0.2394
  126OSM   H16S13486   4.484   3.523   8.640 -0.9210  0.1624 -0.7202
  126OSM   H16T13487   4.644   3.448   8.589 -0.0168  1.8802 -0.5270
  126OSM   C17S13488   4.491   3.318   8.667  0.7817 -0.1502 -0.8221
  126OSM   H17S13489   4.542   3.225   8.635  0.0172 -1.3820  1.4699
  126OSM   H17T13490   4.381   3.307   8.659  0.8318 -0.9479 -0.3996
  126OSM   C18S13491   4.514   3.332   8.816 -1.0756  0.4032 -0.4285
  126OSM   H18S13492   4.466   3.425   8.853 -0.4517  0.4961  0.1562
  126OSM   H18T13493   4.624   3.332   8.832 -0.5599 -0.6346 -3.5637
  126OSM   H18U13494   4.469   3.247   8.871 -0.5628  1.3571  1.5096
  126OSM    C1F13495   4.227   3.346   7.017  0.0454 -0.1443  0.3008
  126OSM     OF13496   4.273   3.274   6.930 -0.7738  0.4787  0.3695
  126OSM    C2F13497   4.101   3.303   7.091 -0.0143 -0.5312  0.4596
  126OSM    H2F13498   4.092   3.374   7.176 -1.3123  0.4238 -0.4607
  126OSM    H2G13499   4.119   3.203   7.136 -1.3868 -1.3196 -0.7056
  126OSM    C3F13500   3.976   3.301   7.007 -0.4355 -0.2084 -0.0338
  126OSM    H3F13501   3.899   3.273   7.083 -0.6505  1.3801  0.3573
  126OSM    H3G13502   3.976   3.219   6.932 -0.3210 -0.1095 -0.1404
  126OSM    C4F13503   3.929   3.434   6.948 -0.4750 -0.4916  0.9054
  126OSM    H4F13504   3.823   3.428   6.915 -0.2011 -0.7784  0.0708
  126OSM    H4G13505   3.999   3.468   6.869 -1.9147  0.0719 -0.1566
  126OSM    C5F13506   3.920   3.548   7.049 -0.8905 -0.5188  0.1443
  126OSM    H5F13507   4.026   3.580   7.062 -0.6163 -0.6501 -1.6431
  126OSM    H5G13508   3.873   3.510   7.142  1.2638 -5.5014 -0.6502
  126OSM    C6F13509   3.831   3.660   6.999 -0.6724 -0.2999  0.0155
  126OSM    H6F13510   3.730   3.620   6.975 -1.3573  1.4411 -0.1002
  126OSM    H6G13511   3.866   3.690   6.898  0.5849  1.1021  0.8446
  126OSM    C7F13512   3.827   3.782   7.095  0.6555 -0.1133  0.2586
  126OSM    H7F13513   3.794   3.872   7.039  1.6138  0.2720  0.3094
  126OSM    H7G13514   3.933   3.800   7.123 -0.4067  1.0649  3.6520
  126OSM    C8F13515   3.744   3.768   7.227  0.4448  0.2471  0.1906
  126OSM    H8F13516   3.761   3.857   7.292 -1.6264 -1.1279  2.6781
  126OSM    H8G13517   3.787   3.679   7.277  0.9315  0.3765  0.0059
  126OSM    C9F13518   3.600   3.744   7.195  0.3272  0.1586  1.0413
  126OSM    H9F13519   3.576   3.648   7.148  0.6918  0.9023 -0.6896
  126OSM   C10F13520   3.494   3.828   7.212  0.7966 -0.5920  0.4590
  126OSM   H10F13521   3.393   3.800   7.180  0.0561  0.2730  2.0010
  126OSM   C11F13522   3.490   3.969   7.263  0.8906  0.4796  0.5571
  126OSM   H11F13523   3.418   4.030   7.205 -1.7585 -0.9111  2.2947
  126OSM   H11G13524   3.590   4.017   7.253  0.8774  0.1049 -1.5954
  126OSM   C12F13525   3.432   3.993   7.409  0.3482  0.7439 -0.8953
  126OSM   H12F13526   3.327   3.956   7.410  0.9438 -0.9922 -0.0277
  126OSM   H12G13527   3.423   4.103   7.417  0.7852  0.8908 -2.2541
  126OSM   C13F13528   3.508   3.921   7.527 -0.3470  0.2597  0.6388
  126OSM   H13F13529   3.612   3.959   7.521  0.2586 -1.2472  1.3547
  126OSM   H13G13530   3.512   3.816   7.492 -0.7011  0.5341 -0.2475
  126OSM   C14F13531   3.438   3.933   7.659  0.5674 -0.6148 -0.2307
  126OSM   H14F13532   3.359   3.855   7.669  0.5905 -0.8133 -1.4734
  126OSM   H14G13533   3.410   4.037   7.686  1.1762 -0.2126 -1.1225
  126OSM   C15F13534   3.519   3.894   7.778 -0.5753  0.1186  0.0995
  126OSM   H15F13535   3.497   3.943   7.875  0.9109  1.5296 -0.2402
  126OSM   H15G13536   3.620   3.935   7.752 -0.3257 -1.5482 -1.6178
  126OSM   C16F13537   3.528   3.745   7.802 -0.1858  0.5427 -0.0627
  126OSM   H16F13538   3.553   3.697   7.705  1.5674  1.6100 -0.1386
  126OSM   H16G13539   3.429   3.709   7.839  1.4975 -1.8170  2.4012
  126OSM   C17F13540   3.635   3.709   7.900 -0.3320 -0.5846  0.3511
  126OSM   H17F13541   3.724   3.761   7.857 -0.4185  0.9631  1.9827
  126OSM   H17G13542   3.646   3.599   7.912  1.3104 -0.3566  1.0728
  126OSM   C18F13543   3.605   3.766   8.044 -0.1540  0.0799 -0.0722
  126OSM   H18F13544   3.549   3.862   8.042 -0.1796  0.0667  0.0174
  126OSM   H18G13545   3.704   3.785   8.092 -0.9703  0.4421  1.5104
  126OSM   H18H13546   3.548   3.687   8.097 -2.0527 -0.4194 -2.7949
  127OSM      N13547   5.380   1.685   6.020  0.5455 -0.4868 -0.0537
  127OSM    C1513548   5.280   1.629   6.107  0.3940  0.2945 -0.3214
  127OSM   H15A13549   5.301   1.530   6.146 -3.5789  0.6325  3.0124
  127OSM   H15B13550   5.186   1.640   6.056  1.1307  1.0095 -1.5624
  127OSM   H15C13551   5.271   1.702   6.186 -0.1695  0.7253 -0.7825
  127OSM    C1413552   5.511   1.695   6.089 -0.3839 -0.0479  0.0059
  127OSM   H14A13553   5.554   1.596   6.085  2.4202  1.1493 -0.3414
  127OSM   H14B13554   5.498   1.734   6.189  0.2898 -0.8505  0.4112
  127OSM   H14C13555   5.576   1.766   6.040  2.4968 -3.6236 -1.5924
  127OSM    C1313556   5.394   1.602   5.899 -0.7913 -0.4771  0.5982
  127OSM   H13A13557   5.412   1.497   5.919 -1.5858 -0.7886 -0.2959
  127OSM   H13B13558   5.477   1.627   5.835 -0.4723  1.6577  1.8072
  127OSM   H13C13559   5.303   1.602   5.841  0.0528  3.3263 -0.8269
  127OSM    C1213560   5.334   1.825   5.987  0.0883  0.2820 -0.0932
  127OSM   H12A13561   5.389   1.850   5.898 -3.1026 -1.0534 -2.5554
  127OSM   H12B13562   5.361   1.896   6.064 -2.5344  1.0028  0.2374
  127OSM    C1113563   5.187   1.848   5.946  0.3820  0.2833 -0.1699
  127OSM   H11A13564   5.148   1.762   5.888  2.2192 -0.1878 -0.7379
  127OSM   H11B13565   5.191   1.934   5.876  0.7984 -0.9163 -1.6461
  127OSM      P13566   4.970   1.942   6.049  0.4283 -0.1944 -0.7123
  127OSM    O1313567   4.999   2.082   6.024 -0.5548  0.1033 -0.4818
  127OSM    O1413568   4.878   1.877   5.958  0.5220  0.5623 -0.1787
  127OSM    O1113569   4.920   1.921   6.198  0.2793  0.0591  0.1003
  127OSM    O1213570   5.110   1.872   6.056 -0.2726  0.9273 -0.7481
  127OSM    C1S13571   4.990   1.979   6.308  0.1199  0.2511 -0.0207
  127OSM    H1S13572   4.968   2.085   6.332  1.6193  0.5959 -0.1035
  127OSM    H1T13573   5.096   1.985   6.277  0.2463  0.1332  0.3921
  127OSM     NF13574   5.083   1.940   6.549 -0.1786 -0.5039 -0.5732
  127OSM    HNF13575   5.180   1.916   6.546 -0.2473 -1.0852  1.3423
  127OSM    C2S13576   4.997   1.882   6.435 -1.2275 -0.1271 -0.4364
  127OSM    H2S13577   4.891   1.879   6.469 -0.8988 -0.7846  0.5235
  127OSM    C3S13578   5.045   1.740   6.403  0.1023 -0.0458  0.4532
  127OSM    H3S13579   5.152   1.749   6.375 -0.7239  1.0734 -2.5536
  127OSM     O313580   4.986   1.678   6.293 -0.0178  0.0661 -0.1663
  127OSM    HO313581   4.952   1.758   6.253 -0.1252 -0.5186 -1.2634
  127OSM    C4S13582   5.021   1.656   6.524  0.3304  0.1380 -0.5817
  127OSM    H4S13583   5.098   1.682   6.599  0.8508 -1.7921 -0.4327
  127OSM    C5S13584   4.920   1.566   6.557 -0.7631 -0.1334  0.2450
  127OSM    H5S13585   4.865   1.519   6.474 -2.5411  1.6500  0.4044
  127OSM    C6S13586   4.917   1.498   6.692  0.1495  0.5456 -0.7170
  127OSM    H6S13587   4.813   1.507   6.730 -0.1017 -0.3735 -1.1766
  127OSM    H6T13588   4.980   1.547   6.769  0.3733 -0.8456  0.0024
  127OSM    C7S13589   4.959   1.356   6.689  0.2310 -0.5830  0.5075
  127OSM    H7S13590   5.064   1.352   6.655 -0.7517 -0.7182 -2.7604
  127OSM    H7T13591   4.909   1.295   6.610  1.1945 -1.4620  0.5755
  127OSM    C8S13592   4.929   1.280   6.818  0.2002  0.7070  0.7052
  127OSM    H8S13593   4.959   1.176   6.793 -3.3831 -0.1359 -0.3502
  127OSM    H8T13594   4.819   1.276   6.830  0.0162 -0.3264 -1.2310
  127OSM    C9S13595   4.986   1.333   6.957 -0.6839  0.2822  0.0739
  127OSM    H9S13596   4.936   1.425   6.993 -1.5853  0.1094 -0.7071
  127OSM    H9T13597   5.092   1.350   6.931 -0.6073 -1.9744 -1.2528
  127OSM   C10S13598   4.964   1.224   7.059 -0.3512 -0.5463 -0.1618
  127OSM   H10S13599   4.992   1.124   7.018  1.4379  0.1479 -0.6738
  127OSM   H10T13600   4.853   1.219   7.068 -0.3684 -1.8349 -0.9143
  127OSM   C11S13601   5.012   1.248   7.199  0.1731 -0.6053 -0.3812
  127OSM   H11S13602   4.979   1.351   7.222 -0.1289 -1.2522  2.1761
  127OSM   H11T13603   5.123   1.246   7.208  0.1384 -1.3273 -0.0437
  127OSM   C12S13604   4.971   1.142   7.303  0.3521  0.6215  0.3337
  127OSM   H12S13605   4.989   1.037   7.272  1.5056  0.5061  1.3360
  127OSM   H12T13606   4.861   1.151   7.314  0.4252  1.5667  0.3133
  127OSM   C13S13607   5.033   1.177   7.438 -0.0374 -0.3640 -0.9621
  127OSM   H13S13608   5.019   1.285   7.460  1.8418 -0.3308  0.2337
  127OSM   H13T13609   5.139   1.147   7.445  0.3931  1.5977  2.1162
  127OSM   C14S13610   4.963   1.097   7.553 -0.0268  0.3066  0.1018
  127OSM   H14S13611   4.985   0.989   7.540 -1.6497  0.0546 -0.6417
  127OSM   H14T13612   4.854   1.115   7.547  0.2841  2.4095  0.4039
  127OSM   C15S13613   5.020   1.137   7.697 -0.5070  0.5624  0.8057
  127OSM   H15S13614   5.031   1.248   7.693  0.2502  0.4556 -0.2124
  127OSM   H15T13615   5.117   1.088   7.715 -0.1641  1.3012  0.9931
  127OSM   C16S13616   4.923   1.088   7.813 -0.5879 -0.1106  0.1449
  127OSM   H16S13617   4.954   0.982   7.824  2.5379  0.6359 -0.8687
  127OSM   H16T13618   4.818   1.100   7.779 -0.5516  1.2370  0.4585
  127OSM   C17S13619   4.953   1.153   7.950 -0.2857  0.4656  0.4447
  127OSM   H17S13620   4.890   1.100   8.025  2.2809 -0.6058  1.8954
  127OSM   H17T13621   4.916   1.257   7.947 -1.3544  0.0744 -0.5172
  127OSM   C18S13622   5.096   1.161   7.983  0.2619  0.0029  0.5438
  127OSM   H18S13623   5.114   1.213   8.080  0.9650 -1.3777  1.1552
  127OSM   H18T13624   5.155   1.232   7.921  1.0138  0.1656  1.4366
  127OSM   H18U13625   5.149   1.064   7.995 -1.5918 -0.8034  2.5624
  127OSM    C1F13626   5.051   2.054   6.614  0.4817 -0.0654 -0.1200
  127OSM     OF13627   4.949   2.112   6.577 -0.0637 -0.2897 -0.4880
  127OSM    C2F13628   5.142   2.109   6.722  0.4331  0.5380  0.4337
  127OSM    H2F13629   5.167   2.216   6.705  0.0539  0.3650 -1.2622
  127OSM    H2G13630   5.238   2.053   6.720  1.1077  1.7158 -1.6099
  127OSM    C3F13631   5.072   2.102   6.860  0.5915  0.3743 -0.3090
  127OSM    H3F13632   5.004   2.016   6.882 -2.0772  2.3042 -0.7147
  127OSM    H3G13633   5.002   2.187   6.870  1.0270  0.9192 -1.8279
  127OSM    C4F13634   5.176   2.092   6.967  0.1419  1.0167  0.3353
  127OSM    H4F13635   5.228   2.185   6.996  1.9555 -0.3749  1.6923
  127OSM    H4G13636   5.262   2.028   6.938 -0.6335  1.2064 -2.5915
  127OSM    C5F13637   5.114   2.026   7.097  0.2160 -0.4289  0.2328
  127OSM    H5F13638   5.096   1.920   7.068 -1.7847  0.1261 -0.7034
  127OSM    H5G13639   5.018   2.081   7.090  1.5458  1.9461  0.1550
  127OSM    C6F13640   5.188   2.051   7.222 -0.0467 -0.4503 -0.0883
  127OSM    H6F13641   5.231   2.153   7.218  1.0735 -0.9106  0.0709
  127OSM    H6G13642   5.267   1.973   7.224  0.0123 -0.4457 -1.8362
  127OSM    C7F13643   5.099   2.051   7.353 -0.8355  0.0338 -0.8028
  127OSM    H7F13644   5.040   1.956   7.353 -0.8107  0.0152 -0.2038
  127OSM    H7G13645   5.026   2.133   7.337 -1.0390 -0.2871 -1.5527
  127OSM    C8F13646   5.176   2.065   7.482 -0.1779 -0.0041 -0.1722
  127OSM    H8F13647   5.115   2.079   7.574  1.8704 -1.6531  1.5004
  127OSM    H8G13648   5.232   2.160   7.480  1.0137 -0.6872  0.6338
  127OSM    C9F13649   5.265   1.949   7.497 -0.3825 -0.1822  0.8415
  127OSM    H9F13650   5.299   1.892   7.409  1.3876 -0.6513  1.8068
  127OSM   C10F13651   5.315   1.906   7.611  0.3596 -0.1902  0.1272
  127OSM   H10F13652   5.379   1.817   7.604  2.1333  1.0443  0.1953
  127OSM   C11F13653   5.295   1.958   7.748 -0.0704 -1.1930  0.4177
  127OSM   H11F13654   5.192   1.933   7.782  0.9680 -2.8230  2.4365
  127OSM   H11G13655   5.313   2.068   7.745  0.5467 -1.2161  2.5810
  127OSM   C12F13656   5.400   1.898   7.845 -0.7032 -0.3699  0.4461
  127OSM   H12F13657   5.498   1.891   7.794 -0.2282 -2.8772  1.6300
  127OSM   H12G13658   5.358   1.799   7.872 -1.6916 -0.7766 -2.3777
  127OSM   C13F13659   5.418   1.977   7.975 -0.2036 -0.3652  0.2649
  127OSM   H13F13660   5.481   2.066   7.954  1.7728 -1.6911  0.5158
  127OSM   H13G13661   5.473   1.913   8.047 -0.8011  1.8922  2.8070
  127OSM   C14F13662   5.292   2.030   8.035  0.4252 -0.3005  0.2950
  127OSM   H14F13663   5.203   1.964   8.035 -1.8300  2.6467 -0.4418
  127OSM   H14G13664   5.261   2.117   7.974  1.5664  0.1435  0.3308
  127OSM   C15F13665   5.315   2.081   8.178  0.7617 -0.1742 -0.2404
  127OSM   H15F13666   5.413   2.132   8.188  1.5971 -1.8972  0.6540
  127OSM   H15G13667   5.340   1.998   8.247  2.8971 -1.2974 -2.2926
  127OSM   C16F13668   5.193   2.175   8.234  0.1746  0.1717  0.3780
  127OSM   H16F13669   5.105   2.106   8.227  0.9597 -0.8061  0.0549
  127OSM   H16G13670   5.171   2.250   8.155  1.1417  1.6373  1.4765
  127OSM   C17F13671   5.210   2.242   8.363  0.4882 -0.3894  0.4381
  127OSM   H17F13672   5.132   2.318   8.386  0.1955 -0.4788 -0.2559
  127OSM   H17G13673   5.311   2.289   8.363  1.2363 -1.9340 -1.0552
  127OSM   C18F13674   5.193   2.135   8.468 -0.8449  0.3033  0.4105
  127OSM   H18F13675   5.265   2.052   8.450 -2.0811 -1.0529  1.5880
  127OSM   H18G13676   5.089   2.098   8.470 -1.3506  1.6899  0.0425
  127OSM   H18H13677   5.227   2.171   8.567  1.2689 -1.8600  0.5307
  128OSM      N13678   0.694   5.127   5.821  0.3754  0.3902 -0.2088
  128OSM    C1513679   0.664   4.993   5.767 -0.9801 -0.3899  0.5742
  128OSM   H15A13680   0.587   4.944   5.825 -1.6327  3.1110  2.7880
  128OSM   H15B13681   0.744   4.920   5.767 -1.1663 -0.6799 -3.1072
  128OSM   H15C13682   0.628   5.006   5.666 -2.4979 -0.8372  1.0493
  128OSM    C1413683   0.802   5.200   5.758  1.2020 -0.2132 -0.2213
  128OSM   H14A13684   0.809   5.300   5.797  3.1193 -0.0685 -0.8877
  128OSM   H14B13685   0.775   5.213   5.654  0.3478 -1.5145 -0.1785
  128OSM   H14C13686   0.897   5.151   5.772  1.8245  0.8668 -0.6501
  128OSM    C1313687   0.573   5.207   5.812  0.0950 -0.3943 -0.0612
  128OSM   H13A13688   0.488   5.140   5.817 -0.5147  0.3138 -0.6687
  128OSM   H13B13689   0.568   5.245   5.711  0.8180  1.2183  0.4908
  128OSM   H13C13690   0.572   5.290   5.881  1.8318 -0.0021 -0.4911
  128OSM    C1213691   0.719   5.112   5.971  0.2152  1.0233  0.1726
  128OSM   H12A13692   0.805   5.048   5.983 -1.0880 -1.3604 -2.5124
  128OSM   H12B13693   0.634   5.071   6.024 -0.5457  0.5367 -1.3822
  128OSM    C1113694   0.759   5.235   6.051  0.5857  0.1434  0.4077
  128OSM   H11A13695   0.864   5.257   6.019  1.1489 -2.4653  0.3649
  128OSM   H11B13696   0.752   5.203   6.157  0.9128  1.9685  1.0036
  128OSM      P13697   0.548   5.384   6.108 -0.4638 -0.0735  0.0400
  128OSM    O1313698   0.488   5.506   6.055 -0.1732 -0.3317  0.0889
  128OSM    O1413699   0.465   5.256   6.116 -0.0153 -0.0401  0.2609
  128OSM    O1113700   0.604   5.414   6.257  0.4070 -0.1359 -0.2811
  128OSM    O1213701   0.690   5.354   6.032  0.2398 -0.1485  0.2958
  128OSM    C1S13702   0.567   5.327   6.362 -0.2158  0.6673  0.4887
  128OSM    H1S13703   0.624   5.232   6.354 -1.3970  0.2020 -4.0720
  128OSM    H1T13704   0.459   5.299   6.365 -0.1308  0.1031 -1.0914
  128OSM     NF13705   0.571   5.307   6.604  0.0110  0.0339  0.0418
  128OSM    HNF13706   0.476   5.310   6.635 -0.2551  1.4976 -0.8798
  128OSM    C2S13707   0.601   5.398   6.489 -0.0665  0.1042 -0.1639
  128OSM    H2S13708   0.707   5.429   6.495 -1.1070  4.0266 -0.4465
  128OSM    C3S13709   0.532   5.542   6.500 -0.2190  0.3134 -0.2919
  128OSM    H3S13710   0.421   5.534   6.508 -0.0258 -1.3441  1.0464
  128OSM     O313711   0.572   5.629   6.389 -0.0919  0.0414 -0.0574
  128OSM    HO313712   0.622   5.559   6.345  1.8625  1.5095 -0.2230
  128OSM    C4S13713   0.573   5.627   6.622 -0.2378  0.0052 -0.3844
  128OSM    H4S13714   0.682   5.615   6.634  0.1856  2.6981 -1.3822
  128OSM    C5S13715   0.493   5.707   6.704  0.5143  0.0073  0.1312
  128OSM    H5S13716   0.388   5.724   6.673  0.8846  0.2019 -1.0105
  128OSM    C6S13717   0.548   5.790   6.811 -0.2069  0.8473  0.9453
  128OSM    H6S13718   0.658   5.778   6.806 -0.5670 -1.8581 -1.6805
  128OSM    H6T13719   0.501   5.754   6.905 -1.7171  0.4397  0.0410
  128OSM    C7S13720   0.512   5.940   6.790  0.4533  0.6245 -0.7363
  128OSM    H7S13721   0.404   5.956   6.773  0.1433 -0.8472 -0.2456
  128OSM    H7T13722   0.560   5.981   6.698 -0.6989  1.0327 -1.1658
  128OSM    C8S13723   0.557   6.033   6.902  0.3732  0.4282  0.0524
  128OSM    H8S13724   0.486   6.118   6.902  1.1373  1.0739 -1.4169
  128OSM    H8T13725   0.656   6.075   6.878 -0.2417  2.3298  0.7436
  128OSM    C9S13726   0.566   5.965   7.034  0.5561  0.5394 -0.4574
  128OSM    H9S13727   0.644   5.886   7.027 -1.2477 -1.2568 -0.6390
  128OSM    H9T13728   0.475   5.905   7.055  0.5257  1.2045  1.4249
  128OSM   C10S13729   0.604   6.054   7.139 -0.3820 -0.2640  0.1859
  128OSM   H10S13730   0.535   6.139   7.154  0.2040 -0.1107  2.2017
  128OSM   H10T13731   0.704   6.100   7.126 -1.2542  2.0451  1.4521
  128OSM   C11S13732   0.625   6.001   7.278 -0.1664 -0.0857  0.1415
  128OSM   H11S13733   0.702   5.925   7.252  0.9506  1.5676 -1.4442
  128OSM   H11T13734   0.526   5.958   7.304 -0.8070  0.1840 -1.7978
  128OSM   C12S13735   0.671   6.112   7.374  0.8242  0.5992 -0.3956
  128OSM   H12S13736   0.612   6.200   7.342 -0.5949 -0.1257  0.1943
  128OSM   H12T13737   0.775   6.141   7.348  1.4910  0.2123  1.7012
  128OSM   C13S13738   0.662   6.070   7.528  0.2078 -0.3077  0.1157
  128OSM   H13S13739   0.716   5.974   7.541  1.5582  0.3891 -0.2052
  128OSM   H13T13740   0.556   6.042   7.542  0.3039 -1.6066 -1.4873
  128OSM   C14S13741   0.723   6.161   7.636 -0.6226 -0.1361  0.4336
  128OSM   H14S13742   0.689   6.266   7.622  0.4562  0.4696  2.1800
  128OSM   H14T13743   0.833   6.166   7.626 -0.6395  1.2818  0.8817
  128OSM   C15S13744   0.683   6.114   7.775 -0.3836 -0.0187 -0.1309
  128OSM   H15S13745   0.690   6.004   7.788 -1.7222 -0.2947 -1.5912
  128OSM   H15T13746   0.578   6.143   7.794  0.3603  0.5030  3.6070
  128OSM   C16S13747   0.772   6.176   7.889 -0.1778  0.1148  0.0599
  128OSM   H16S13748   0.779   6.286   7.875 -0.4467  0.0755 -0.3829
  128OSM   H16T13749   0.876   6.142   7.873 -0.1643 -0.1639  0.7245
  128OSM   C17S13750   0.730   6.117   8.027 -0.5513  0.6838  0.3002
  128OSM   H17S13751   0.725   6.008   8.008 -2.4696  0.7649  0.1868
  128OSM   H17T13752   0.625   6.145   8.052 -0.4921  1.2813 -0.1112
  128OSM   C18S13753   0.824   6.152   8.144 -0.3253 -0.3748 -0.0946
  128OSM   H18S13754   0.928   6.173   8.112 -1.5432  2.9780 -2.0861
  128OSM   H18T13755   0.809   6.077   8.224  0.8041 -1.3262 -0.7453
  128OSM   H18U13756   0.789   6.241   8.199  0.6610  0.3967 -0.7092
  128OSM    C1F13757   0.646   5.191   6.622 -0.2212 -1.1345 -0.4596
  128OSM     OF13758   0.758   5.176   6.567  0.6235 -0.1831 -0.4468
  128OSM    C2F13759   0.584   5.088   6.709 -0.4138  0.5227  0.0296
  128OSM    H2F13760   0.539   5.010   6.644  0.5729 -0.5389  0.5950
  128OSM    H2G13761   0.499   5.136   6.762 -0.0342 -0.8121  1.8700
  128OSM    C3F13762   0.682   5.020   6.807  0.1572  0.0598  0.1967
  128OSM    H3F13763   0.760   5.089   6.845  1.6566 -0.6684 -1.5010
  128OSM    H3G13764   0.739   4.942   6.752  0.1917  1.2504 -1.4941
  128OSM    C4F13765   0.622   4.961   6.941  0.2648  0.1013  0.1479
  128OSM    H4F13766   0.539   4.896   6.907  0.5580 -1.1273  1.7504
  128OSM    H4G13767   0.576   5.034   7.011  0.0462 -1.1996  1.3963
  128OSM    C5F13768   0.717   4.875   7.026 -0.0288 -0.2122 -0.4766
  128OSM    H5F13769   0.771   4.947   7.092 -1.0422 -0.0472  0.1891
  128OSM    H5G13770   0.783   4.807   6.968 -2.8217 -2.5900 -0.9477
  128OSM    C6F13771   0.636   4.777   7.114  0.3556  0.5312 -0.2630
  128OSM    H6F13772   0.565   4.720   7.051  1.2749  0.4996 -1.2767
  128OSM    H6G13773   0.576   4.840   7.183  0.1564  1.7243 -1.5111
  128OSM    C7F13774   0.718   4.688   7.217 -0.6910 -0.2082  0.0231
  128OSM    H7F13775   0.787   4.755   7.272 -0.2328 -1.1764  0.6266
  128OSM    H7G13776   0.781   4.613   7.164  0.4632  0.2083  0.7863
  128OSM    C8F13777   0.628   4.602   7.314  0.4666 -0.3311  0.5165
  128OSM    H8F13778   0.560   4.543   7.249 -0.2195 -0.1068  1.0317
  128OSM    H8G13779   0.579   4.687   7.367  3.1337  0.2351  2.1958
  128OSM    C9F13780   0.715   4.514   7.410 -0.2663  0.3695 -0.1212
  128OSM    H9F13781   0.770   4.429   7.367 -0.2625  1.4248 -2.2375
  128OSM   C10F13782   0.729   4.526   7.537 -0.2756 -0.2218  0.5291
  128OSM   H10F13783   0.803   4.464   7.589  1.2898 -0.6244 -2.0994
  128OSM   C11F13784   0.669   4.628   7.632 -1.1408 -0.1765 -0.3102
  128OSM   H11F13785   0.584   4.675   7.579 -0.1996  0.9820 -0.8265
  128OSM   H11G13786   0.752   4.700   7.651  0.0660 -1.6899  0.2804
  128OSM   C12F13787   0.633   4.574   7.770 -0.5208  0.0450  0.3459
  128OSM   H12F13788   0.719   4.524   7.819 -1.4906 -0.8492  1.1657
  128OSM   H12G13789   0.553   4.498   7.760 -2.2857  1.2494  4.0874
  128OSM   C13F13790   0.590   4.678   7.876  0.5337  0.2931 -0.2713
  128OSM   H13F13791   0.507   4.739   7.835  0.8229  0.1553 -1.0574
  128OSM   H13G13792   0.677   4.744   7.902 -1.3803  2.5846  0.4906
  128OSM   C14F13793   0.522   4.612   7.999  0.0035  0.0526 -0.5389
  128OSM   H14F13794   0.595   4.595   8.080  0.5373  2.3651 -0.4914
  128OSM   H14G13795   0.477   4.516   7.965  2.2745 -0.8039 -1.1670
  128OSM   C15F13796   0.406   4.694   8.056  0.4737 -0.3414 -0.4417
  128OSM   H15F13797   0.319   4.727   7.995 -0.1290 -0.3778  0.3963
  128OSM   H15G13798   0.458   4.781   8.099  0.4671 -0.4121 -0.2944
  128OSM   C16F13799   0.354   4.618   8.181  0.6219 -0.2632  0.5247
  128OSM   H16F13800   0.438   4.607   8.252  0.3375 -2.4639  0.5540
  128OSM   H16G13801   0.318   4.515   8.158  0.9400 -0.3772  0.5274
  128OSM   C17F13802   0.248   4.691   8.262  0.9422  0.1449 -0.4035
  128OSM   H17F13803   0.287   4.790   8.294  0.7637  0.0715  0.0530
  128OSM   H17G13804   0.228   4.628   8.351  1.0453  0.0710 -0.4326
  128OSM   C18F13805   0.117   4.710   8.192 -0.6374  0.2972  0.1030
  128OSM   H18F13806   0.039   4.738   8.266 -1.0009  0.5084 -0.3587
  128OSM   H18G13807   0.090   4.612   8.146 -0.6267  0.3485 -0.0129
  128OSM   H18H13808   0.123   4.787   8.112 -1.7760 -0.6043 -0.8835
  129OSM      N13809   4.786   2.318   6.251  0.0387  0.1891 -0.4630
  129OSM    C1513810   4.833   2.319   6.389 -0.1746  0.0942 -0.0018
  129OSM   H15A13811   4.926   2.270   6.414 -1.1051 -2.0081 -0.5899
  129OSM   H15B13812   4.759   2.275   6.453  0.9147 -2.1731 -0.2789
  129OSM   H15C13813   4.847   2.419   6.429 -0.9102  0.2828 -0.2079
  129OSM    C1413814   4.674   2.412   6.234 -0.1241 -0.5371  0.3957
  129OSM   H14A13815   4.697   2.506   6.281  0.0030  0.3393 -1.3643
  129OSM   H14B13816   4.586   2.363   6.274 -1.4935 -0.0229 -1.8894
  129OSM   H14C13817   4.639   2.428   6.133 -0.2194  1.2160  0.6937
  129OSM    C1313818   4.901   2.356   6.171  0.7030 -0.1928 -0.1850
  129OSM   H13A13819   4.991   2.298   6.177  0.4688 -0.4659  0.7938
  129OSM   H13B13820   4.924   2.460   6.189 -1.8786  0.1648  1.3353
  129OSM   H13C13821   4.871   2.352   6.067  1.2057 -2.2213 -0.2719
  129OSM    C1213822   4.735   2.180   6.215  0.6856  0.1322 -0.1392
  129OSM   H12A13823   4.820   2.115   6.200  0.7388 -0.1820  1.4150
  129OSM   H12B13824   4.677   2.191   6.124 -0.2247 -1.8575  0.1581
  129OSM    C1113825   4.628   2.113   6.306 -0.4169  0.3580 -0.9459
  129OSM   H11A13826   4.677   2.100   6.405 -0.6668 -0.6466 -0.9398
  129OSM   H11B13827   4.614   2.009   6.268 -2.4183  0.3347 -0.2282
  129OSM      P13828   4.376   2.112   6.368  0.2882  0.1337  0.1325
  129OSM    O1313829   4.263   2.208   6.378  0.0995 -0.1050 -0.6195
  129OSM    O1413830   4.367   1.995   6.275 -0.4937 -0.2496 -0.1643
  129OSM    O1113831   4.405   2.060   6.514 -0.2648  0.1471  0.9450
  129OSM    O1213832   4.511   2.180   6.327 -0.4388 -0.7318 -0.4399
  129OSM    C1S13833   4.478   2.138   6.608  0.5907  0.5399 -0.7540
  129OSM    H1S13834   4.418   2.220   6.653  1.6702  1.2989 -0.6856
  129OSM    H1T13835   4.568   2.182   6.561  0.7691  1.0121  0.0298
  129OSM     NF13836   4.585   2.124   6.822  0.0853  0.0554  0.6821
  129OSM    HNF13837   4.680   2.154   6.818  0.7634 -2.1187 -0.1943
  129OSM    C2S13838   4.517   2.043   6.720 -0.2260  0.2821 -0.6939
  129OSM    H2S13839   4.426   1.990   6.754  0.2092 -0.5655 -0.8228
  129OSM    C3S13840   4.601   1.926   6.660 -0.1993 -0.4140  0.8952
  129OSM    H3S13841   4.683   1.964   6.594 -0.5399  1.2598  1.4125
  129OSM     O313842   4.534   1.828   6.572  0.2487  0.2452 -0.0401
  129OSM    HO313843   4.444   1.859   6.566 -0.4044 -1.4744  0.6079
  129OSM    C4S13844   4.653   1.840   6.776 -0.0314  0.0841 -0.1411
  129OSM    H4S13845   4.586   1.783   6.843 -0.9191  1.1118 -0.1437
  129OSM    C5S13846   4.782   1.812   6.812 -1.2831  0.7682  0.1786
  129OSM    H5S13847   4.870   1.846   6.756 -0.4665 -2.6959 -0.7607
  129OSM    C6S13848   4.831   1.731   6.932  0.4169 -0.1884 -0.1034
  129OSM    H6S13849   4.940   1.750   6.939  0.8700 -2.3141 -1.0363
  129OSM    H6T13850   4.817   1.623   6.909  0.8209 -0.2591 -0.0295
  129OSM    C7S13851   4.762   1.758   7.072 -0.4355 -0.0815  0.3131
  129OSM    H7S13852   4.664   1.710   7.053 -0.3773 -0.3678  0.7181
  129OSM    H7T13853   4.744   1.867   7.083 -0.2912  0.3424 -3.1515
  129OSM    C8S13854   4.839   1.697   7.188 -0.3455 -0.1687  0.3238
  129OSM    H8S13855   4.923   1.763   7.217 -1.6266  2.1654 -1.0868
  129OSM    H8T13856   4.875   1.598   7.151 -2.3569 -0.7401 -0.2095
  129OSM    C9S13857   4.753   1.691   7.320  0.2752 -0.0666  0.1824
  129OSM    H9S13858   4.785   1.622   7.401  0.5383 -0.3610 -0.1698
  129OSM    H9T13859   4.654   1.651   7.290  0.8280 -1.3539  0.0422
  129OSM   C10S13860   4.733   1.828   7.390  0.3835 -0.0346 -0.5429
  129OSM   H10S13861   4.662   1.881   7.323  0.5347  0.3809 -0.3722
  129OSM   H10T13862   4.829   1.882   7.399  0.6785 -0.3927 -1.4287
  129OSM   C11S13863   4.660   1.822   7.530 -0.2003 -0.3759 -0.5038
  129OSM   H11S13864   4.724   1.757   7.592 -0.8586  0.2141  0.8104
  129OSM   H11T13865   4.568   1.761   7.519  0.0500 -0.6252 -1.2637
  129OSM   C12S13866   4.629   1.959   7.583 -0.3267  0.3527  0.1520
  129OSM   H12S13867   4.586   2.017   7.498 -1.4271  0.4087  0.7500
  129OSM   H12T13868   4.715   2.011   7.630  0.7948 -0.9094 -0.4440
  129OSM   C13S13869   4.531   1.951   7.698  0.4118  0.0438  0.3131
  129OSM   H13S13870   4.578   1.887   7.776  0.0429  0.6515  1.0395
  129OSM   H13T13871   4.436   1.900   7.671 -0.6838  1.9809  0.4410
  129OSM   C14S13872   4.484   2.085   7.764 -0.2535  0.7055 -0.0606
  129OSM   H14S13873   4.423   2.143   7.691 -0.2873  1.8753  0.8832
  129OSM   H14T13874   4.564   2.158   7.790 -1.0125  0.6798  2.4869
  129OSM   C15S13875   4.394   2.068   7.887  0.2224 -0.4265 -0.8278
  129OSM   H15S13876   4.449   2.010   7.965  1.4660  1.7822 -0.0125
  129OSM   H15T13877   4.298   2.021   7.857 -0.2370 -0.9882  1.4110
  129OSM   C16S13878   4.349   2.209   7.935 -0.1575 -0.0629  0.1399
  129OSM   H16S13879   4.282   2.256   7.860 -2.0545 -0.7662  1.3572
  129OSM   H16T13880   4.435   2.280   7.932  0.8168 -1.2242 -5.0018
  129OSM   C17S13881   4.271   2.212   8.067  0.1281 -0.1680  0.0328
  129OSM   H17S13882   4.248   2.319   8.086  0.6685  0.1601 -1.1038
  129OSM   H17T13883   4.346   2.167   8.135 -0.0402  2.5350  2.1078
  129OSM   C18S13884   4.142   2.146   8.047 -0.1620 -0.1015 -0.2035
  129OSM   H18S13885   4.075   2.184   7.967  2.4175  1.3650 -1.7414
  129OSM   H18T13886   4.081   2.159   8.138  0.0353 -1.0339  0.0621
  129OSM   H18U13887   4.161   2.037   8.039  1.5482 -0.0790  2.9045
  129OSM    C1F13888   4.516   2.171   6.918 -0.1035  0.0882 -0.8406
  129OSM     OF13889   4.395   2.160   6.914 -0.8187 -0.1179 -0.3987
  129OSM    C2F13890   4.585   2.245   7.023  0.1812 -0.1621  0.0432
  129OSM    H2F13891   4.606   2.342   6.973 -0.3463 -0.7308 -1.3073
  129OSM    H2G13892   4.680   2.193   7.049  0.4077  0.9929  1.5819
  129OSM    C3F13893   4.491   2.268   7.146 -0.1747 -0.2173 -0.1304
  129OSM    H3F13894   4.472   2.170   7.194 -0.6100 -0.8626 -1.5875
  129OSM    H3G13895   4.393   2.313   7.120  0.0104  0.1239 -0.2598
  129OSM    C4F13896   4.554   2.354   7.266 -0.7343 -0.5982  0.5415
  129OSM    H4F13897   4.475   2.367   7.343 -1.9402  0.7062 -0.8697
  129OSM    H4G13898   4.575   2.452   7.219  0.8158 -1.8005 -1.3379
  129OSM    C5F13899   4.689   2.309   7.320 -0.1460  0.0636  0.1519
  129OSM    H5F13900   4.768   2.325   7.243  0.2879 -1.9884  0.1412
  129OSM    H5G13901   4.679   2.199   7.331  0.2543 -0.0550 -0.5860
  129OSM    C6F13902   4.734   2.397   7.439  0.1768  0.2969 -0.1217
  129OSM    H6F13903   4.702   2.503   7.429 -0.3921  0.4397  2.8566
  129OSM    H6G13904   4.844   2.392   7.436  0.1093 -0.9461 -1.0497
  129OSM    C7F13905   4.696   2.339   7.571 -0.4879 -0.1359  0.2285
  129OSM    H7F13906   4.734   2.235   7.582 -0.7266 -0.3329 -0.7649
  129OSM    H7G13907   4.586   2.333   7.562 -0.4633  0.2406 -0.3306
  129OSM    C8F13908   4.727   2.411   7.700 -0.0395 -0.6759  0.1341
  129OSM    H8F13909   4.693   2.347   7.784  0.3491  1.2754  1.7914
  129OSM    H8G13910   4.674   2.509   7.697 -0.5983 -0.9472  0.9943
  129OSM    C9F13911   4.875   2.443   7.716  0.0367 -0.1606 -0.8559
  129OSM    H9F13912   4.904   2.542   7.680 -0.8661 -0.1752 -1.6376
  129OSM   C10F13913   4.961   2.370   7.788 -0.1298 -0.4760 -0.2276
  129OSM   H10F13914   5.064   2.407   7.803 -0.3106 -1.1860  3.0743
  129OSM   C11F13915   4.926   2.251   7.871 -0.0070 -0.2963 -0.3128
  129OSM   H11F13916   5.004   2.174   7.857 -1.0088 -1.3802  0.0497
  129OSM   H11G13917   4.828   2.207   7.846 -0.1147 -0.7179  0.8202
  129OSM   C12F13918   4.922   2.286   8.027 -0.1861 -0.0858  0.0211
  129OSM   H12F13919   5.016   2.342   8.049 -1.0058  2.4689 -2.6381
  129OSM   H12G13920   4.920   2.190   8.081  1.2685 -0.7428 -1.0579
  129OSM   C13F13921   4.812   2.385   8.065 -0.1494  0.1450 -0.2120
  129OSM   H13F13922   4.714   2.334   8.052  0.8902 -2.8637  3.0267
  129OSM   H13G13923   4.798   2.473   7.999  0.0227 -0.6272 -1.2741
  129OSM   C14F13924   4.816   2.445   8.205  0.4160  0.6899 -0.8402
  129OSM   H14F13925   4.731   2.511   8.231 -0.0040  0.8941 -2.6698
  129OSM   H14G13926   4.901   2.510   8.233 -0.8975  1.2638  2.0117
  129OSM   C15F13927   4.812   2.333   8.306  0.0677  0.5720 -0.1468
  129OSM   H15F13928   4.904   2.272   8.293 -0.7729 -0.4373 -1.4351
  129OSM   H15G13929   4.732   2.261   8.279 -1.0047  2.9261 -3.5894
  129OSM   C16F13930   4.797   2.390   8.443 -0.7009 -0.0439 -0.9809
  129OSM   H16F13931   4.692   2.424   8.453 -1.8456 -3.6471  0.0178
  129OSM   H16G13932   4.862   2.480   8.448 -0.9518  0.3003 -3.2722
  129OSM   C17F13933   4.825   2.299   8.566 -0.0411 -0.4055  0.0650
  129OSM   H17F13934   4.767   2.347   8.648 -1.5728 -1.6713 -0.2469
  129OSM   H17G13935   4.935   2.307   8.573 -0.1127  2.2220 -1.4095
  129OSM   C18F13936   4.779   2.155   8.570 -0.0718  0.1604 -0.2186
  129OSM   H18F13937   4.828   2.101   8.654 -4.1380  0.1725  2.3077
  129OSM   H18G13938   4.816   2.110   8.475  0.6085  3.1140 -1.4161
  129OSM   H18H13939   4.668   2.154   8.579  0.1286 -2.0654  2.6879
  130OSM      N13940   0.694   4.284   6.021 -0.3448  0.1483  0.3987
  130OSM    C1513941   0.724   4.257   5.878  0.2269 -0.7080  0.2670
  130OSM   H15A13942   0.642   4.301   5.823  0.8875 -0.0427 -0.2079
  130OSM   H15B13943   0.722   4.150   5.870  1.6979 -0.5873 -2.4494
  130OSM   H15C13944   0.824   4.289   5.851  0.4396 -0.1897  1.6184
  130OSM    C1413945   0.675   4.430   6.029  0.1455  0.2442  0.1804
  130OSM   H14A13946   0.643   4.456   6.129  1.5481 -1.1203  1.0018
  130OSM   H14B13947   0.602   4.472   5.962 -1.0858 -1.7663  0.2447
  130OSM   H14C13948   0.775   4.470   6.022 -0.5923  2.0581 -0.2278
  130OSM    C1313949   0.563   4.226   6.050 -0.0835 -0.7365 -0.2529
  130OSM   H13A13950   0.537   4.229   6.155 -4.7776 -2.5550 -1.2553
  130OSM   H13B13951   0.552   4.120   6.032 -1.2071 -0.5262 -0.8089
  130OSM   H13C13952   0.487   4.283   6.000  1.0217  0.1085 -1.0064
  130OSM    C1213953   0.784   4.232   6.124 -0.6203  0.0091 -0.3209
  130OSM   H12A13954   0.766   4.126   6.132  2.5051 -0.6785 -1.6496
  130OSM   H12B13955   0.761   4.271   6.222  0.5046  2.0528 -0.8427
  130OSM    C1113956   0.939   4.260   6.117  0.1163 -0.5822 -0.1905
  130OSM   H11A13957   0.965   4.231   6.013 -1.0056 -0.2631 -0.5638
  130OSM   H11B13958   0.992   4.193   6.188  1.4311 -0.3122 -0.8876
  130OSM      P13959   1.072   4.475   6.055 -0.6130  0.2215  0.0671
  130OSM    O1313960   1.192   4.396   6.040 -0.3325  0.1622  0.1768
  130OSM    O1413961   1.021   4.538   5.926  0.1327  0.0498 -0.1739
  130OSM    O1113962   1.112   4.603   6.137 -0.5038 -0.0565 -0.7421
  130OSM    O1213963   0.959   4.401   6.139 -0.2278  0.0416 -0.3591
  130OSM    C1S13964   1.031   4.637   6.254 -0.3684  0.3069 -0.2913
  130OSM    H1S13965   0.922   4.620   6.238 -0.7910  1.5411  1.1415
  130OSM    H1T13966   1.037   4.747   6.267  1.0436  0.1954  0.0469
  130OSM     NF13967   0.990   4.600   6.494 -0.2290 -0.4786 -0.5644
  130OSM    HNF13968   1.034   4.637   6.575  0.6120 -1.3196 -0.6324
  130OSM    C2S13969   1.075   4.555   6.382  0.7549 -0.8919  0.3363
  130OSM    H2S13970   1.051   4.449   6.362 -0.5919 -0.8012  1.4060
  130OSM    C3S13971   1.226   4.585   6.408 -0.3198  0.3145  0.1825
  130OSM    H3S13972   1.237   4.694   6.422  1.7529 -0.1275  2.2595
  130OSM     O313973   1.314   4.552   6.301 -0.0449 -0.4581 -0.1669
  130OSM    HO313974   1.254   4.579   6.231 -2.5293  0.1934  2.1243
  130OSM    C4S13975   1.272   4.510   6.535  0.3624 -0.0509  0.9629
  130OSM    H4S13976   1.237   4.553   6.630  2.2258  3.2629  0.2217
  130OSM    C5S13977   1.357   4.403   6.549  0.5053  0.4310 -0.6431
  130OSM    H5S13978   1.408   4.362   6.460 -2.5180  1.4528 -2.9166
  130OSM    C6S13979   1.394   4.354   6.692 -0.4035  0.2534 -0.1693
  130OSM    H6S13980   1.503   4.333   6.701 -1.1834 -3.3987  1.7619
  130OSM    H6T13981   1.349   4.253   6.706 -2.0030  0.4986 -3.0384
  130OSM    C7S13982   1.349   4.447   6.814  0.2348  0.0688 -0.3766
  130OSM    H7S13983   1.239   4.435   6.812  0.2590 -0.6932  1.9351
  130OSM    H7T13984   1.366   4.556   6.802 -0.1832  0.0180 -1.4690
  130OSM    C8S13985   1.408   4.408   6.944  0.1177 -0.3949  0.1252
  130OSM    H8S13986   1.519   4.409   6.941  0.0894  1.4254 -0.8559
  130OSM    H8T13987   1.375   4.303   6.963 -0.2455 -0.2628  0.2263
  130OSM    C9S13988   1.363   4.496   7.055 -0.5855  0.1344 -0.0637
  130OSM    H9S13989   1.253   4.503   7.042 -0.4282  0.9651 -0.9865
  130OSM    H9T13990   1.415   4.593   7.039 -2.4973  1.1549 -0.2869
  130OSM   C10S13991   1.395   4.457   7.200  0.9101  0.3262 -0.5763
  130OSM   H10S13992   1.339   4.364   7.226 -0.9188  1.0551 -1.7696
  130OSM   H10T13993   1.350   4.542   7.255  2.7400  0.3399  0.9346
  130OSM   C11S13994   1.537   4.420   7.227 -0.0696  0.6947  0.0670
  130OSM   H11S13995   1.602   4.506   7.198 -0.4393  0.5455 -1.2576
  130OSM   H11T13996   1.561   4.328   7.169 -1.0506  0.0978  0.5940
  130OSM   C12S13997   1.560   4.386   7.371 -0.0759  0.6642 -0.2619
  130OSM   H12S13998   1.658   4.336   7.382 -2.1166 -3.2548  0.9666
  130OSM   H12T13999   1.480   4.315   7.402  2.4958 -1.8500  0.8612
  130OSM   C13S14000   1.550   4.502   7.473  0.8994  0.0616 -0.2281
  130OSM   H13S14001   1.444   4.535   7.468  0.8198 -0.4208 -2.2525
  130OSM   H13T14002   1.615   4.585   7.437  1.6372  0.2400  1.4516
  130OSM   C14S14003   1.596   4.467   7.617 -0.6888 -0.0832 -0.5285
  130OSM   H14S14004   1.676   4.541   7.642  0.6544 -1.3659 -0.9590
  130OSM   H14T14005   1.646   4.368   7.613 -2.9499 -1.4341  2.6982
  130OSM   C15S14006   1.476   4.464   7.708 -0.0610 -0.3950  0.7656
  130OSM   H15S14007   1.421   4.376   7.668 -0.0278  0.5769 -1.4824
  130OSM   H15T14008   1.421   4.561   7.708  0.5550  0.0248 -2.9938
  130OSM   C16S14009   1.517   4.430   7.856 -0.3833 -0.5056  0.4858
  130OSM   H16S14010   1.604   4.491   7.889 -1.1320  0.9190 -0.1420
  130OSM   H16T14011   1.549   4.324   7.858  1.6164  0.0878  1.3755
  130OSM   C17S14012   1.410   4.463   7.947  0.3562 -0.5197  0.0177
  130OSM   H17S14013   1.316   4.427   7.900 -0.7236 -0.8246  2.3501
  130OSM   H17T14014   1.391   4.573   7.946  0.7686 -0.4251  1.4920
  130OSM   C18S14015   1.434   4.416   8.094  0.1762 -0.0175 -0.3571
  130OSM   H18S14016   1.348   4.461   8.149  2.3011  2.2006  1.2278
  130OSM   H18T14017   1.530   4.450   8.137 -1.1728 -0.6467  3.3508
  130OSM   H18U14018   1.431   4.305   8.096  1.6470 -0.0440  0.6356
  130OSM    C1F14019   0.861   4.581   6.500 -0.2160  0.8537  0.4641
  130OSM     OF14020   0.809   4.504   6.420  0.0027  0.7977 -0.1799
  130OSM    C2F14021   0.785   4.642   6.610  0.3225 -0.0006  0.3355
  130OSM    H2F14022   0.744   4.743   6.588 -1.0981 -0.3823  1.1675
  130OSM    H2G14023   0.854   4.652   6.697  1.5506 -2.2946 -0.3246
  130OSM    C3F14024   0.676   4.552   6.664  0.0845  0.0609 -0.4291
  130OSM    H3F14025   0.740   4.468   6.700  0.3603  0.6834  0.5417
  130OSM    H3G14026   0.609   4.502   6.591 -2.9370  2.4993  0.5749
  130OSM    C4F14027   0.594   4.625   6.769  0.0602 -0.1921 -0.4871
  130OSM    H4F14028   0.534   4.708   6.728  1.1910  0.9764  0.1937
  130OSM    H4G14029   0.663   4.677   6.839 -1.2725  0.2940  0.4865
  130OSM    C5F14030   0.504   4.524   6.846  0.2616  0.5284  0.0270
  130OSM    H5F14031   0.454   4.460   6.769  0.1636  1.0007 -0.3014
  130OSM    H5G14032   0.427   4.576   6.906  0.0325  0.7431 -0.4482
  130OSM    C6F14033   0.581   4.419   6.931 -0.4758 -0.4734  0.4046
  130OSM    H6F14034   0.651   4.477   6.995  2.0251 -2.8723 -0.0795
  130OSM    H6G14035   0.643   4.358   6.862 -0.7123 -1.1565  0.7910
  130OSM    C7F14036   0.497   4.320   7.018 -0.6461  0.6721 -0.4770
  130OSM    H7F14037   0.424   4.261   6.958 -2.6717  1.3081  1.2922
  130OSM    H7G14038   0.434   4.373   7.094 -0.0817 -0.1931  0.5973
  130OSM    C8F14039   0.587   4.222   7.094 -0.3322  0.6376 -0.0132
  130OSM    H8F14040   0.642   4.275   7.175 -0.3554  2.8635 -1.3918
  130OSM    H8G14041   0.657   4.179   7.019 -1.6980  0.8375 -1.4260
  130OSM    C9F14042   0.516   4.101   7.145 -0.1337 -0.0879 -0.2126
  130OSM    H9F14043   0.450   4.052   7.071  0.6332 -3.1804  1.1253
  130OSM   C10F14044   0.539   4.044   7.266  0.2950 -0.0465  0.1461
  130OSM   H10F14045   0.497   3.950   7.306  0.1903  0.3758  1.0249
  130OSM   C11F14046   0.637   4.089   7.369  0.4786  0.6650  0.2402
  130OSM   H11F14047   0.689   4.185   7.353  0.2023  0.5969 -1.1262
  130OSM   H11G14048   0.714   4.009   7.373  1.8999  2.1065  3.6223
  130OSM   C12F14049   0.558   4.101   7.506 -0.2707 -1.3322 -0.1487
  130OSM   H12F14050   0.509   4.006   7.534 -2.0151 -0.1140  1.0001
  130OSM   H12G14051   0.490   4.187   7.488  0.2569 -0.9212 -0.1760
  130OSM   C13F14052   0.658   4.132   7.620  0.4970 -0.6703  0.1840
  130OSM   H13F14053   0.720   4.221   7.599 -1.5092  0.5071 -0.9309
  130OSM   H13G14054   0.725   4.044   7.634 -0.2089 -0.8820  2.4908
  130OSM   C14F14055   0.587   4.148   7.754  0.5126 -0.7912  0.7002
  130OSM   H14F14056   0.507   4.074   7.774 -0.5297  0.4670  1.2436
  130OSM   H14G14057   0.545   4.251   7.761  0.3184 -0.8532  0.4389
  130OSM   C15F14058   0.683   4.148   7.873  0.0063 -0.0250 -0.2890
  130OSM   H15F14059   0.762   4.223   7.851 -0.5518  0.0445 -2.0995
  130OSM   H15G14060   0.732   4.049   7.880 -1.3759 -0.8393 -1.9329
  130OSM   C16F14061   0.613   4.203   8.002 -0.0225 -0.4635 -0.0661
  130OSM   H16F14062   0.541   4.125   8.035 -3.0262  0.9235 -3.1056
  130OSM   H16G14063   0.565   4.298   7.974 -0.6815 -0.8941 -0.4040
  130OSM   C17F14064   0.714   4.231   8.115 -0.2836 -0.7327 -0.0099
  130OSM   H17F14065   0.810   4.274   8.078  0.0974 -0.7860  0.9111
  130OSM   H17G14066   0.739   4.130   8.154  1.5152  0.5520  2.2784
  130OSM   C18F14067   0.650   4.323   8.223 -0.4632 -0.1750 -1.4063
  130OSM   H18F14068   0.541   4.307   8.239 -0.2868  1.0163  1.2783
  130OSM   H18G14069   0.665   4.430   8.196  0.3957  0.3386  0.9592
  130OSM   H18H14070   0.714   4.312   8.313 -0.2421  0.3042 -1.5024
  131OSM      N14071   5.245   0.780   5.767 -0.2059  0.2236 -0.2532
  131OSM    C1514072   5.231   0.873   5.655  0.3262 -0.6358  0.3863
  131OSM   H15A14073   5.164   0.957   5.667  1.7819  1.0669 -2.6515
  131OSM   H15B14074   5.203   0.816   5.568  2.2570 -0.3101 -0.4859
  131OSM   H15C14075   5.330   0.914   5.637  0.8227 -1.1629  1.8991
  131OSM    C1414076   5.362   0.693   5.743 -0.9340  0.5750 -0.4128
  131OSM   H14A14077   5.347   0.614   5.671 -3.2211 -0.6005  1.2852
  131OSM   H14B14078   5.408   0.658   5.835 -1.6120  0.9080  0.0597
  131OSM   H14C14079   5.430   0.763   5.697 -1.7698  1.7835  0.1511
  131OSM    C1314080   5.272   0.872   5.886 -0.5982  0.0250 -0.1775
  131OSM   H13A14081   5.192   0.945   5.885 -1.0965 -0.4697  1.3804
  131OSM   H13B14082   5.370   0.917   5.880 -1.1235  1.3752  0.8972
  131OSM   H13C14083   5.270   0.811   5.975 -0.3521  0.1137 -0.1123
  131OSM    C1214084   5.123   0.693   5.788  0.2592  0.7707  0.0223
  131OSM   H12A14085   5.129   0.623   5.706  0.5315 -0.8573  1.4028
  131OSM   H12B14086   5.022   0.730   5.777 -0.3902 -0.7007  0.7828
  131OSM    C1114087   5.120   0.603   5.917 -0.6755 -0.4926  0.4825
  131OSM   H11A14088   5.196   0.524   5.904 -0.4804 -0.3423  0.7168
  131OSM   H11B14089   5.022   0.550   5.918 -1.3216  0.6674  3.0857
  131OSM      P14090   5.014   0.741   6.119 -0.0529 -0.1763  0.0500
  131OSM    O1314091   5.054   0.772   6.257 -0.4062 -0.5109 -0.0915
  131OSM    O1414092   4.944   0.838   6.031 -0.1767 -0.4344 -0.5353
  131OSM    O1114093   4.902   0.623   6.141  0.5339 -0.1857  0.5636
  131OSM    O1214094   5.136   0.673   6.041 -0.7169 -0.5193  0.1134
  131OSM    C1S14095   4.954   0.507   6.209 -0.1599  0.0230 -0.0506
  131OSM    H1S14096   5.064   0.496   6.202 -0.1897 -0.5740  0.3929
  131OSM    H1T14097   4.916   0.408   6.175 -0.8317  0.1531  0.3169
  131OSM     NF14098   4.971   0.390   6.427 -0.1274 -0.2489 -0.4154
  131OSM    HNF14099   4.902   0.326   6.461 -0.8308  0.5639 -0.2828
  131OSM    C2S14100   4.912   0.504   6.357 -0.7421  0.2579  0.3563
  131OSM    H2S14101   4.938   0.601   6.404 -0.6134 -0.1428  1.1225
  131OSM    C3S14102   4.753   0.507   6.370  0.0885 -0.1842  0.0241
  131OSM    H3S14103   4.723   0.408   6.330  1.9039  0.4753 -3.1400
  131OSM     O314104   4.695   0.592   6.277  0.9941  0.1764 -0.5896
  131OSM    HO314105   4.763   0.597   6.209 -0.3024  0.1142 -1.9267
  131OSM    C4S14106   4.720   0.536   6.515 -0.6175  0.4192 -0.2974
  131OSM    H4S14107   4.754   0.633   6.552  1.1234 -0.1403 -0.3947
  131OSM    C5S14108   4.667   0.451   6.602 -0.4487 -0.1657 -0.0534
  131OSM    H5S14109   4.638   0.353   6.562  0.1832 -1.1777  1.9366
  131OSM    C6S14110   4.635   0.481   6.748 -0.3690  0.4977  0.2079
  131OSM    H6S14111   4.525   0.490   6.767 -0.4551  1.6941 -0.7722
  131OSM    H6T14112   4.677   0.583   6.763  1.4737  0.0178 -1.5688
  131OSM    C7S14113   4.697   0.393   6.852 -1.3078 -0.0640  0.2359
  131OSM    H7S14114   4.642   0.407   6.947 -1.7962 -1.6380  0.1923
  131OSM    H7T14115   4.806   0.404   6.866 -1.2211 -1.2237  0.5175
  131OSM    C8S14116   4.674   0.245   6.811 -0.4405 -0.0596  0.4537
  131OSM    H8S14117   4.750   0.234   6.730  0.9865  0.1332  1.7297
  131OSM    H8T14118   4.570   0.222   6.780 -1.2462  1.7987  1.7062
  131OSM    C9S14119   4.723   0.154   6.929 -0.9489 -0.6846 -0.3691
  131OSM    H9S14120   4.798   0.201   6.996 -1.3611  0.5153 -0.7249
  131OSM    H9T14121   4.785   0.074   6.884  0.5327  1.3501 -2.0063
  131OSM   C10S14122   4.606   0.107   7.008 -0.2915 -0.0581 -0.1495
  131OSM   H10S14123   4.534   0.066   6.934 -2.7066 -0.0844  2.1356
  131OSM   H10T14124   4.562   0.197   7.055  0.3879 -0.6171  1.6227
  131OSM   C11S14125   4.635   0.013   7.121  0.5863 -0.0328 -0.5187
  131OSM   H11S14126   4.531   0.016   7.162  0.8099 -1.4663  0.1796
  131OSM   H11T14127   4.705   0.051   7.198  1.2170 -2.2421  0.0334
  131OSM   C12S14128   4.665  -0.131   7.091 -0.3397 -0.7313  0.0420
  131OSM   H12S14129   4.769  -0.151   7.057 -0.2714  1.1682 -0.8941
  131OSM   H12T14130   4.601  -0.162   7.006  0.1358  1.5135 -1.1512
  131OSM   C13S14131   4.620  -0.223   7.202 -1.0679  0.1821 -0.3168
  131OSM   H13S14132   4.513  -0.207   7.227 -1.2490 -2.2751  0.6436
  131OSM   H13T14133   4.675  -0.200   7.297 -1.6442  0.0494  0.0504
  131OSM   C14S14134   4.654  -0.369   7.158  0.4064  0.2277 -0.2080
  131OSM   H14S14135   4.741  -0.383   7.090  0.4783 -1.6139  0.2433
  131OSM   H14T14136   4.561  -0.410   7.113  0.2288 -0.0205  0.3822
  131OSM   C15S14137   4.666  -0.455   7.283 -0.4369  0.5321 -1.1387
  131OSM   H15S14138   4.648  -0.562   7.262  0.8138  0.2652 -0.9277
  131OSM   H15T14139   4.582  -0.429   7.350 -1.1083 -1.2559 -1.2610
  131OSM   C16S14140   4.792  -0.442   7.379  0.6489  0.1267  1.0147
  131OSM   H16S14141   4.812  -0.336   7.404 -0.2589  0.5600 -0.0785
  131OSM   H16T14142   4.888  -0.480   7.337  0.3909  0.7230 -0.1196
  131OSM   C17S14143   4.769  -0.496   7.520  0.1326 -0.0752  0.3863
  131OSM   H17S14144   4.769  -0.607   7.514 -0.3220 -0.0162 -0.8049
  131OSM   H17T14145   4.663  -0.473   7.544 -0.6211 -0.5339 -2.3242
  131OSM   C18S14146   4.861  -0.451   7.636  0.3692 -0.0159  0.1593
  131OSM   H18S14147   4.951  -0.516   7.631 -0.7355 -1.6879  1.5602
  131OSM   H18T14148   4.815  -0.462   7.736  0.0296  0.4050  0.0499
  131OSM   H18U14149   4.896  -0.345   7.629  0.2424 -0.0516 -1.0911
  131OSM    C1F14150   5.098   0.364   6.460  0.5538 -0.3469  0.1235
  131OSM     OF14151   5.186   0.450   6.444 -0.3188 -0.0525  0.5616
  131OSM    C2F14152   5.133   0.232   6.516 -0.2953 -0.3193  0.0009
  131OSM    H2F14153   5.179   0.161   6.445  1.5550  0.2732  0.5583
  131OSM    H2G14154   5.043   0.193   6.567  1.2364 -1.0248  2.2714
  131OSM    C3F14155   5.214   0.260   6.640 -0.1839 -0.0212  0.3758
  131OSM    H3F14156   5.153   0.331   6.699 -0.6251 -0.3843  0.3624
  131OSM    H3G14157   5.312   0.309   6.623 -0.4054  0.4500  0.4666
  131OSM    C4F14158   5.238   0.130   6.722  0.6922 -0.0612 -0.7251
  131OSM    H4F14159   5.321   0.084   6.664  0.0145 -0.5447 -1.3138
  131OSM    H4G14160   5.143   0.074   6.722  1.0069 -0.6041  0.0819
  131OSM    C5F14161   5.276   0.148   6.864 -0.1775 -0.4139 -1.0848
  131OSM    H5F14162   5.226   0.239   6.905  1.3370  0.1542 -0.4614
  131OSM    H5G14163   5.384   0.176   6.867 -0.1309 -0.4094 -2.8020
  131OSM    C6F14164   5.238   0.028   6.949  0.4561  0.3030 -0.0727
  131OSM    H6F14165   5.281  -0.070   6.919 -2.0503 -0.7383 -0.3461
  131OSM    H6G14166   5.128   0.013   6.948  0.6156 -0.8658 -1.0794
  131OSM    C7F14167   5.272   0.054   7.096  0.3480  0.3671 -0.3215
  131OSM    H7F14168   5.213  -0.013   7.162  1.2031 -2.4492 -2.3718
  131OSM    H7G14169   5.233   0.156   7.117 -0.1941  0.2074 -0.5541
  131OSM    C8F14170   5.418   0.042   7.123 -0.2288  0.1919  0.9129
  131OSM    H8F14171   5.452   0.120   7.195  1.5275  1.2181 -0.9359
  131OSM    H8G14172   5.480   0.052   7.031 -1.2842  0.6960  0.2557
  131OSM    C9F14173   5.445  -0.095   7.181 -0.4922  0.1939  0.7326
  131OSM    H9F14174   5.433  -0.185   7.118 -1.5120  0.3612  0.6897
  131OSM   C10F14175   5.470  -0.120   7.309 -0.2414 -0.2713 -0.0916
  131OSM   H10F14176   5.491  -0.226   7.329 -0.5839 -0.4681 -0.7543
  131OSM   C11F14177   5.474  -0.030   7.423  0.4515  0.7990 -1.2219
  131OSM   H11F14178   5.441   0.076   7.420 -0.1198  0.7011  0.7418
  131OSM   H11G14179   5.574  -0.026   7.471  0.2616 -0.3126 -0.7065
  131OSM   C12F14180   5.377  -0.064   7.544  0.0688  0.7927  0.0539
  131OSM   H12F14181   5.415  -0.002   7.629 -2.3171  0.2808  1.5447
  131OSM   H12G14182   5.388  -0.173   7.563  2.1996  0.8896 -0.5304
  131OSM   C13F14183   5.232  -0.025   7.516 -0.3402 -0.4944 -0.2791
  131OSM   H13F14184   5.233   0.037   7.424  3.3702 -0.2009 -0.1298
  131OSM   H13G14185   5.194   0.042   7.597 -0.2532  1.8000 -2.0787
  131OSM   C14F14186   5.136  -0.142   7.488 -0.3425 -0.0379 -0.1238
  131OSM   H14F14187   5.136  -0.224   7.563 -1.9834 -1.4099 -1.6080
  131OSM   H14G14188   5.180  -0.190   7.398 -1.2166 -1.8979  0.4383
  131OSM   C15F14189   4.993  -0.097   7.466 -0.1279  0.0049  0.8904
  131OSM   H15F14190   4.934  -0.169   7.405  0.4052  1.7611 -1.7441
  131OSM   H15G14191   4.999  -0.007   7.402  0.0020  0.0739  1.0004
  131OSM   C16F14192   4.924  -0.060   7.600 -0.2705  0.4761  0.2423
  131OSM   H16F14193   4.980   0.023   7.648 -0.9476 -1.6578  5.0941
  131OSM   H16G14194   4.914  -0.135   7.682 -2.9129  1.1555  0.5747
  131OSM   C17F14195   4.783  -0.001   7.578  0.2008  0.4319  0.2750
  131OSM   H17F14196   4.748   0.018   7.682 -1.3601  1.2013 -0.3682
  131OSM   H17G14197   4.729  -0.087   7.532  0.2896  1.7346 -2.3989
  131OSM   C18F14198   4.772   0.120   7.489 -0.0597  0.6158  0.4176
  131OSM   H18F14199   4.852   0.193   7.513  2.1481 -1.2122 -1.2054
  131OSM   H18G14200   4.667   0.157   7.499 -0.0739  0.3216  1.5085
  131OSM   H18H14201   4.790   0.089   7.384  0.4109 -0.2404  0.7511
  132OSM      N14202   0.425   2.314   6.108 -0.3664 -0.3271  0.8164
  132OSM    C1514203   0.441   2.171   6.127 -0.6081  0.0669  0.0088
  132OSM   H15A14204   0.537   2.139   6.091 -1.8703 -1.7861 -1.8663
  132OSM   H15B14205   0.363   2.129   6.065 -0.3747  3.4025 -2.6885
  132OSM   H15C14206   0.424   2.144   6.231  0.1201  0.3767  0.2109
  132OSM    C1414207   0.550   2.379   6.157 -0.0462 -0.0724  0.3388
  132OSM   H14A14208   0.533   2.481   6.187 -0.2729 -0.1056  0.3236
  132OSM   H14B14209   0.631   2.373   6.085 -2.0150  0.5444 -1.9879
  132OSM   H14C14210   0.586   2.321   6.241  2.0058 -0.8570 -1.0188
  132OSM    C1314211   0.403   2.344   5.962  0.5932 -0.0798 -0.5693
  132OSM   H13A14212   0.482   2.308   5.898 -0.6875 -2.2716 -0.9627
  132OSM   H13B14213   0.401   2.451   5.951 -3.0578 -0.0532 -0.2151
  132OSM   H13C14214   0.310   2.305   5.923 -0.2932  2.6258 -1.2993
  132OSM    C1214215   0.321   2.368   6.204  0.1240  0.7157  0.0893
  132OSM   H12A14216   0.221   2.341   6.171 -0.4698  0.0073  2.3541
  132OSM   H12B14217   0.324   2.476   6.204  1.2690  0.6807 -0.2324
  132OSM    C1114218   0.324   2.329   6.352 -0.0309 -0.1313 -0.0448
  132OSM   H11A14219   0.278   2.411   6.411  0.3714 -0.0377  0.1410
  132OSM   H11B14220   0.430   2.314   6.382 -0.2977 -0.6460  0.6606
  132OSM      P14221   0.113   2.166   6.346  0.1137  0.0772 -0.1462
  132OSM    O1314222   0.066   2.251   6.231 -0.2298 -0.2831  0.7467
  132OSM    O1414223   0.104   2.018   6.321  0.4180  0.0910  0.2576
  132OSM    O1114224   0.048   2.214   6.490  0.5506  0.2067 -0.4078
  132OSM    O1214225   0.267   2.199   6.372 -0.0800  0.2184  0.8271
  132OSM    C1S14226   0.078   2.127   6.607  0.7236  0.2930  0.5365
  132OSM    H1S14227   0.122   2.030   6.576 -0.5201  0.4172 -1.6383
  132OSM    H1T14228  -0.013   2.097   6.663 -0.2253 -0.0998 -1.1917
  132OSM     NF14229   0.216   2.116   6.808  1.0978 -0.0276  0.3193
  132OSM    HNF14230   0.177   2.141   6.897  0.5415  0.8586 -0.1598
  132OSM    C2S14231   0.178   2.208   6.700  0.6903 -0.2481 -0.7857
  132OSM    H2S14232   0.271   2.239   6.648 -0.6969  1.5675 -2.2498
  132OSM    C3S14233   0.101   2.339   6.751  0.1412 -0.9073 -0.1675
  132OSM    H3S14234   0.004   2.311   6.798 -1.4342  0.2690 -2.6451
  132OSM     O314235   0.061   2.433   6.657 -0.1770  0.1427  0.1090
  132OSM    HO314236   0.058   2.390   6.571 -1.2469  0.9958 -0.2809
  132OSM    C4S14237   0.201   2.403   6.848  0.3666 -0.2106  0.5606
  132OSM    H4S14238   0.307   2.385   6.822  0.6384  0.9304  0.8346
  132OSM    C5S14239   0.160   2.460   6.967 -0.1624  0.5930 -0.6349
  132OSM    H5S14240   0.058   2.437   7.001 -1.1297  1.0052 -3.1102
  132OSM    C6S14241   0.263   2.507   7.070  0.2856  0.3859 -0.2976
  132OSM    H6S14242   0.278   2.617   7.068  0.8636  0.3891  2.3178
  132OSM    H6T14243   0.362   2.458   7.078 -0.1615 -0.7328 -1.4491
  132OSM    C7S14244   0.204   2.469   7.214  0.0350 -0.0105 -0.2809
  132OSM    H7S14245   0.225   2.362   7.231  0.1494 -0.4309 -2.7760
  132OSM    H7T14246   0.093   2.476   7.216  0.0175 -0.5766  0.6721
  132OSM    C8S14247   0.269   2.553   7.325  0.1372  1.1133  1.0262
  132OSM    H8S14248   0.230   2.657   7.327  1.2543  1.5471  0.4023
  132OSM    H8T14249   0.376   2.560   7.297  0.5384 -0.1922  2.1812
  132OSM    C9S14250   0.244   2.496   7.463 -0.2036  0.1438 -0.6910
  132OSM    H9S14251   0.287   2.394   7.467  0.4502  0.3942 -1.3553
  132OSM    H9T14252   0.140   2.485   7.501  0.1471 -1.5991 -0.2105
  132OSM   C10S14253   0.323   2.571   7.571  0.4912  0.2184  0.1795
  132OSM   H10S14254   0.285   2.673   7.598 -0.5819 -1.1023  4.0776
  132OSM   H10T14255   0.423   2.594   7.529  1.2727  0.1863  1.9458
  132OSM   C11S14256   0.339   2.492   7.699 -0.3995  0.7591  0.2976
  132OSM   H11S14257   0.390   2.395   7.680  1.1258  1.4390  0.8449
  132OSM   H11T14258   0.240   2.481   7.748 -0.3000  0.6832  0.4849
  132OSM   C12S14259   0.436   2.563   7.798  0.3071 -0.0577  0.1835
  132OSM   H12S14260   0.494   2.635   7.736  2.3075 -1.6145  0.1946
  132OSM   H12T14261   0.510   2.485   7.826  0.6223  0.3536  0.5028
  132OSM   C13S14262   0.379   2.636   7.917  0.4981 -0.2314  0.3002
  132OSM   H13S14263   0.338   2.552   7.976  1.4714 -1.7240 -1.1192
  132OSM   H13T14264   0.296   2.705   7.889 -0.5257 -1.6191 -0.1167
  132OSM   C14S14265   0.488   2.704   7.998 -0.6564 -0.8385 -1.1291
  132OSM   H14S14266   0.541   2.789   7.949  2.4138 -2.9654 -1.6107
  132OSM   H14T14267   0.565   2.625   8.009 -0.6742 -0.4750  2.1136
  132OSM   C15S14268   0.449   2.749   8.143 -0.0888 -0.2369 -0.2948
  132OSM   H15S14269   0.382   2.671   8.186 -1.3139  1.3620  0.7767
  132OSM   H15T14270   0.382   2.838   8.146 -3.7354 -2.8238 -0.4860
  132OSM   C16S14271   0.569   2.760   8.233  0.2424 -0.2164  0.4164
  132OSM   H16S14272   0.647   2.830   8.196  1.0567  0.3299  3.0503
  132OSM   H16T14273   0.623   2.662   8.229 -1.5685 -1.2831  1.3700
  132OSM   C17S14274   0.538   2.785   8.377  0.7921 -0.2238 -0.9915
  132OSM   H17S14275   0.450   2.720   8.397  0.5620  0.0089 -1.2485
  132OSM   H17T14276   0.505   2.888   8.403 -0.6788 -0.6816 -0.9993
  132OSM   C18S14277   0.653   2.749   8.477  0.1884  0.6496 -0.3746
  132OSM   H18S14278   0.749   2.802   8.466 -0.1851  1.7821  1.5491
  132OSM   H18T14279   0.669   2.639   8.472  2.2843  0.9296 -0.2495
  132OSM   H18U14280   0.613   2.755   8.581  0.2495 -2.5342 -0.1178
  132OSM    C1F14281   0.289   2.013   6.798 -0.2817 -1.0369  0.1538
  132OSM     OF14282   0.334   1.982   6.689  0.2454 -0.6779  0.0713
  132OSM    C2F14283   0.315   1.934   6.924 -0.1687 -0.1907 -0.6238
  132OSM    H2F14284   0.423   1.907   6.925  0.4352  2.0802  0.8095
  132OSM    H2G14285   0.257   1.840   6.922  1.2116 -1.0438 -1.5468
  132OSM    C3F14286   0.295   2.006   7.055  0.5642 -0.4719 -0.9243
  132OSM    H3F14287   0.187   2.018   7.079  0.9166 -0.4262  0.7612
  132OSM    H3G14288   0.334   2.110   7.048  1.1956 -0.6182  0.2214
  132OSM    C4F14289   0.366   1.938   7.177 -0.4271 -0.0508  0.4570
  132OSM    H4F14290   0.342   2.016   7.252  0.7974  0.8339 -0.0550
  132OSM    H4G14291   0.476   1.943   7.161 -0.5399 -0.1821 -0.3766
  132OSM    C5F14292   0.309   1.807   7.222  0.0453  0.3826  0.8075
  132OSM    H5F14293   0.319   1.730   7.142  0.3555  1.9996 -0.7475
  132OSM    H5G14294   0.200   1.825   7.240  0.8824  3.0249  3.7433
  132OSM    C6F14295   0.375   1.762   7.354  0.7760  0.1555  0.4465
  132OSM    H6F14296   0.379   1.852   7.419 -1.3684 -0.4363  1.4241
  132OSM    H6G14297   0.475   1.723   7.324  1.5251  1.8291  0.7177
  132OSM    C7F14298   0.296   1.661   7.436  0.8963  0.3343  0.4626
  132OSM    H7F14299   0.191   1.696   7.420  1.6178  0.6627 -4.2419
  132OSM    H7G14300   0.319   1.664   7.544 -0.3256  2.6389  0.7144
  132OSM    C8F14301   0.320   1.517   7.386  0.7732  0.2651  0.1139
  132OSM    H8F14302   0.416   1.489   7.433  1.4097 -0.1518 -1.4096
  132OSM    H8G14303   0.333   1.512   7.276  2.0640  1.0867  0.2272
  132OSM    C9F14304   0.207   1.423   7.420  0.0162  0.1329  0.3910
  132OSM    H9F14305   0.134   1.412   7.339 -0.9583  2.0822  0.9682
  132OSM   C10F14306   0.194   1.339   7.523  0.7357 -0.0934 -0.5196
  132OSM   H10F14307   0.096   1.289   7.522  0.6770 -0.3707  4.5215
  132OSM   C11F14308   0.293   1.319   7.641 -0.5152 -0.2463 -0.1320
  132OSM   H11F14309   0.279   1.405   7.710  0.6212  1.3771 -1.8893
  132OSM   H11G14310   0.398   1.310   7.607 -0.5336  2.3503 -0.9828
  132OSM   C12F14311   0.273   1.194   7.723 -0.4786  0.1757 -0.2200
  132OSM   H12F14312   0.266   1.105   7.656  0.8191 -0.0110 -0.1228
  132OSM   H12G14313   0.171   1.198   7.766 -0.3088  0.0585  0.1964
  132OSM   C13F14314   0.381   1.174   7.829  0.4296  0.1244 -0.9597
  132OSM   H13F14315   0.363   1.243   7.915  2.0852 -1.4902  0.7386
  132OSM   H13G14316   0.482   1.210   7.804  0.7014  1.1834  1.5105
  132OSM   C14F14317   0.392   1.027   7.862  1.0585 -0.1927 -0.2517
  132OSM   H14F14318   0.426   0.967   7.775  0.2077 -0.1239 -0.6398
  132OSM   H14G14319   0.288   0.991   7.880  1.1555  0.2390  1.2873
  132OSM   C15F14320   0.471   0.994   7.984  0.1595 -0.3013 -0.2358
  132OSM   H15F14321   0.577   1.003   7.954  0.2230 -0.1057  0.0499
  132OSM   H15G14322   0.460   0.885   8.005  1.8440 -0.4737 -0.2328
  132OSM   C16F14323   0.440   1.076   8.113  0.2738  0.4887  0.7459
  132OSM   H16F14324   0.332   1.075   8.137 -0.0754  0.3947 -0.8234
  132OSM   H16G14325   0.484   1.177   8.098  2.8188 -0.5495  0.8157
  132OSM   C17F14326   0.517   1.013   8.233 -0.1282 -0.4610  0.0306
  132OSM   H17F14327   0.626   1.017   8.209 -0.2738  0.2693 -0.5039
  132OSM   H17G14328   0.480   0.910   8.251  1.2753 -1.0512 -0.4105
  132OSM   C18F14329   0.493   1.102   8.356  0.5941  0.2922  0.1525
  132OSM   H18F14330   0.550   1.061   8.442  0.6751  0.5094  0.2030
  132OSM   H18G14331   0.385   1.105   8.381  0.8978  1.1994  1.3875
  132OSM   H18H14332   0.527   1.206   8.334 -0.9743 -0.0769 -4.4953
  133OSM      N14333   1.004   1.628   6.216 -0.2435  1.2944  0.1339
  133OSM    C1514334   0.974   1.590   6.073 -0.0255  0.4143 -0.2174
  133OSM   H15A14335   1.063   1.594   6.011  0.1366  0.6591  0.0338
  133OSM   H15B14336   0.901   1.653   6.024 -1.2067 -1.1792 -0.5643
  133OSM   H15C14337   0.932   1.490   6.066  1.5473 -0.3358  0.7405
  133OSM    C1414338   0.887   1.599   6.301 -0.4701  0.2303  0.0691
  133OSM   H14A14339   0.918   1.641   6.395  1.5324  0.6454 -0.7443
  133OSM   H14B14340   0.872   1.492   6.311  1.5118  0.1387  2.3855
  133OSM   H14C14341   0.802   1.652   6.262 -0.1498  0.5417 -0.2066
  133OSM    C1314342   1.118   1.539   6.267  0.3396  0.3624 -0.0707
  133OSM   H13A14343   1.196   1.560   6.196 -1.1475  0.1984 -1.8015
  133OSM   H13B14344   1.095   1.433   6.265 -1.2210  0.6942 -1.0172
  133OSM   H13C14345   1.143   1.560   6.370 -1.2104 -1.2929  0.6820
  133OSM    C1214346   1.043   1.774   6.231  0.1261 -0.6310 -0.1984
  133OSM   H12A14347   1.143   1.794   6.198  0.7273 -0.6677  1.5390
  133OSM   H12B14348   1.033   1.802   6.335 -2.7075 -1.5396 -0.1680
  133OSM    C1114349   0.949   1.882   6.164  0.1731 -0.4012  0.3145
  133OSM   H11A14350   0.946   1.848   6.059 -0.9373 -2.3020  0.9406
  133OSM   H11B14351   0.987   1.987   6.161 -0.7705 -0.0397  0.6777
  133OSM      P14352   0.689   1.895   6.152  0.0239 -0.1458 -0.2485
  133OSM    O1314353   0.706   1.985   6.035  0.5086  0.1043 -0.1931
  133OSM    O1414354   0.635   1.756   6.128  0.3676 -0.2035 -0.1245
  133OSM    O1114355   0.600   1.965   6.261 -0.1432  0.0702 -0.0433
  133OSM    O1214356   0.826   1.891   6.229  1.1772  0.0957 -0.2803
  133OSM    C1S14357   0.566   1.901   6.387  1.2404  0.1706  0.0681
  133OSM    H1S14358   0.581   1.791   6.388 -3.5929 -0.6514 -2.7103
  133OSM    H1T14359   0.457   1.918   6.400  0.9146 -1.1468 -0.8621
  133OSM     NF14360   0.587   1.889   6.628  0.5631 -0.4281  0.8063
  133OSM    HNF14361   0.497   1.913   6.662  0.9688 -0.5631  1.9757
  133OSM    C2S14362   0.635   1.964   6.509  0.6993  0.5934  0.0111
  133OSM    H2S14363   0.745   1.948   6.506  0.6318  0.1545 -0.2172
  133OSM    C3S14364   0.612   2.118   6.507  0.1217 -0.8586 -0.8491
  133OSM    H3S14365   0.505   2.138   6.486 -0.3772 -1.5425  0.9167
  133OSM     O314366   0.683   2.193   6.404  0.0555  0.2829 -0.1083
  133OSM    HO314367   0.718   2.125   6.346 -0.5116 -0.5841  0.5472
  133OSM    C4S14368   0.649   2.189   6.633 -0.1653  0.1313  0.2031
  133OSM    H4S14369   0.755   2.181   6.659 -0.4459  1.7839  1.9259
  133OSM    C5S14370   0.579   2.265   6.713 -0.1308 -0.0889  0.2226
  133OSM    H5S14371   0.470   2.271   6.700 -0.2648 -1.8358  0.3943
  133OSM    C6S14372   0.648   2.328   6.831  0.7812  0.6885  0.6500
  133OSM    H6S14373   0.612   2.433   6.827  0.0171  0.3923 -0.2326
  133OSM    H6T14374   0.758   2.318   6.815  0.5988  1.5747 -1.4275
  133OSM    C7S14375   0.597   2.259   6.957 -0.2188 -0.1309 -0.0440
  133OSM    H7S14376   0.625   2.152   6.948 -1.1258 -0.6450  2.6320
  133OSM    H7T14377   0.489   2.285   6.969  0.0916  2.2809 -2.0548
  133OSM    C8S14378   0.655   2.310   7.093  0.0955 -0.7072  0.0888
  133OSM    H8S14379   0.625   2.417   7.090 -0.9517 -0.9917  0.0825
  133OSM    H8T14380   0.765   2.301   7.089 -0.0224 -1.9589 -0.7006
  133OSM    C9S14381   0.595   2.245   7.220  0.0503  0.4228  0.0266
  133OSM    H9S14382   0.634   2.141   7.226 -2.3197 -0.5155 -0.2358
  133OSM    H9T14383   0.484   2.241   7.216  0.1506 -2.7247 -0.4186
  133OSM   C10S14384   0.639   2.335   7.348 -0.0738 -0.3458  0.0597
  133OSM   H10S14385   0.608   2.441   7.344  0.4822 -0.1698  0.2846
  133OSM   H10T14386   0.750   2.332   7.350 -0.0894 -1.7912 -0.3913
  133OSM   C11S14387   0.593   2.277   7.482 -0.1170 -0.4682 -0.0179
  133OSM   H11S14388   0.628   2.172   7.491  0.8091 -0.0682  1.1900
  133OSM   H11T14389   0.482   2.285   7.493 -0.2000  0.5568 -1.3745
  133OSM   C12S14390   0.649   2.342   7.607  0.0183 -0.5158  0.0794
  133OSM   H12S14391   0.601   2.290   7.692 -0.9833  0.0463 -0.1400
  133OSM   H12T14392   0.599   2.440   7.624  1.0579  0.0093  0.1744
  133OSM   C13S14393   0.800   2.341   7.621  0.5017 -0.6593  1.3555
  133OSM   H13S14394   0.848   2.374   7.527 -4.3213 -0.1232 -1.0532
  133OSM   H13T14395   0.826   2.237   7.650  0.6313 -1.3739 -1.2159
  133OSM   C14S14396   0.859   2.417   7.738 -0.0387  0.0100 -0.3072
  133OSM   H14S14397   0.831   2.524   7.725  2.0612  0.5852 -0.1454
  133OSM   H14T14398   0.969   2.404   7.742  0.0645  0.9717  0.0980
  133OSM   C15S14399   0.814   2.363   7.878 -0.3722  0.0593 -1.2710
  133OSM   H15S14400   0.859   2.263   7.894 -0.0522  0.7148  2.2223
  133OSM   H15T14401   0.703   2.358   7.883 -0.2463 -2.3157 -0.6508
  133OSM   C16S14402   0.861   2.451   7.995  0.5365  0.3839 -0.4769
  133OSM   H16S14403   0.855   2.558   7.965  0.1014  1.0017  1.7269
  133OSM   H16T14404   0.961   2.417   8.028  1.0065 -0.4100 -2.6216
  133OSM   C17S14405   0.768   2.443   8.119 -0.2904 -0.1736  0.0514
  133OSM   H17S14406   0.659   2.465   8.112  0.1197  2.3146  0.8397
  133OSM   H17T14407   0.804   2.511   8.198 -0.0076 -0.0583 -0.1761
  133OSM   C18S14408   0.768   2.301   8.176  0.0374 -0.6389 -0.0565
  133OSM   H18S14409   0.859   2.246   8.143  0.5728  0.9171 -1.2577
  133OSM   H18T14410   0.683   2.244   8.132 -0.1174 -0.0132 -0.5877
  133OSM   H18U14411   0.756   2.297   8.286  1.7453 -2.1153  0.0996
  133OSM    C1F14412   0.645   1.772   6.656 -0.5639 -0.8054 -0.3770
  133OSM     OF14413   0.761   1.758   6.619  0.6190  0.1623  0.5460
  133OSM    C2F14414   0.568   1.677   6.749 -0.2929  0.0837  0.6551
  133OSM    H2F14415   0.464   1.716   6.743 -1.8651 -3.6200  2.2718
  133OSM    H2G14416   0.604   1.687   6.854  0.1174 -0.2812  0.5482
  133OSM    C3F14417   0.560   1.534   6.707 -1.0574 -0.1455 -1.0050
  133OSM    H3F14418   0.661   1.487   6.704 -1.0534 -0.1317 -1.0824
  133OSM    H3G14419   0.527   1.527   6.601 -0.9173  0.0980 -1.0642
  133OSM    C4F14420   0.484   1.434   6.801 -0.6915 -0.3799 -0.5422
  133OSM    H4F14421   0.502   1.331   6.763  3.1118 -0.2112  0.5311
  133OSM    H4G14422   0.374   1.450   6.804 -0.2091  3.0857  1.2213
  133OSM    C5F14423   0.534   1.425   6.944 -0.0375  0.4989 -0.1604
  133OSM    H5F14424   0.508   1.515   7.003 -1.0493 -0.1787  0.4392
  133OSM    H5G14425   0.645   1.428   6.949  0.0154  0.5585 -1.2669
  133OSM    C6F14426   0.474   1.301   7.010  0.2727  0.1533  0.2606
  133OSM    H6F14427   0.478   1.206   6.953 -2.6729  0.3695 -0.3603
  133OSM    H6G14428   0.365   1.321   7.009 -0.1877 -2.2822  0.1445
  133OSM    C7F14429   0.519   1.283   7.152 -0.2992 -0.4618 -0.3776
  133OSM    H7F14430   0.513   1.382   7.203 -1.4851  1.4379 -3.9374
  133OSM    H7G14431   0.625   1.250   7.155 -0.1273 -0.0361 -1.4955
  133OSM    C8F14432   0.427   1.185   7.233  0.0458 -0.0306 -0.3176
  133OSM    H8F14433   0.321   1.205   7.208  0.0102  0.9991  0.6340
  133OSM    H8G14434   0.435   1.198   7.343 -0.3579 -2.3241  0.0061
  133OSM    C9F14435   0.454   1.040   7.202 -0.2398  0.2525 -0.0241
  133OSM    H9F14436   0.474   1.021   7.096 -1.2612  1.7387 -0.4983
  133OSM   C10F14437   0.471   0.934   7.284 -0.2495 -0.0121  0.0406
  133OSM   H10F14438   0.512   0.844   7.235  0.7531 -1.2677  3.0658
  133OSM   C11F14439   0.452   0.927   7.432 -0.0641  0.1953 -0.4483
  133OSM   H11F14440   0.404   0.834   7.470  1.0752  0.8468  2.7391
  133OSM   H11G14441   0.400   1.019   7.464  0.6199 -0.3000  2.2885
  133OSM   C12F14442   0.590   0.919   7.511  0.5778 -0.6123  0.5479
  133OSM   H12F14443   0.586   0.931   7.621  0.6847 -1.3576  0.6368
  133OSM   H12G14444   0.658   1.003   7.485 -0.4495 -0.3018 -1.1756
  133OSM   C13F14445   0.655   0.780   7.482  0.0305 -0.2585  0.1993
  133OSM   H13F14446   0.698   0.791   7.381 -1.3087  2.3716 -0.1270
  133OSM   H13G14447   0.572   0.708   7.469  0.5530 -0.7606 -0.4231
  133OSM   C14F14448   0.756   0.724   7.580 -0.1553 -0.1968  0.1155
  133OSM   H14F14449   0.721   0.733   7.685 -0.9903 -2.1574  0.0402
  133OSM   H14G14450   0.853   0.776   7.570  0.3205 -1.5313 -2.5619
  133OSM   C15F14451   0.777   0.575   7.555  0.0694  0.7562 -0.0547
  133OSM   H15F14452   0.684   0.514   7.566  2.3227 -2.8947 -0.4622
  133OSM   H15G14453   0.836   0.535   7.640  1.4036  2.1163 -0.3142
  133OSM   C16F14454   0.857   0.536   7.431 -0.3460 -0.2407  0.0978
  133OSM   H16F14455   0.825   0.586   7.337 -2.6124 -1.2217  0.3218
  133OSM   H16G14456   0.865   0.426   7.424  2.5834 -0.0351 -0.6321
  133OSM   C17F14457   1.004   0.595   7.428  0.5836  0.2471  0.7576
  133OSM   H17F14458   1.000   0.704   7.450 -1.5784  0.3146  0.1433
  133OSM   H17G14459   1.051   0.571   7.331 -0.1457  0.7601  0.2765
  133OSM   C18F14460   1.097   0.532   7.535  0.3652 -0.0021  0.1107
  133OSM   H18F14461   1.054   0.536   7.637 -2.8245 -3.9395 -0.9593
  133OSM   H18G14462   1.196   0.578   7.517  0.5319 -1.2128 -2.3067
  133OSM   H18H14463   1.097   0.423   7.515 -2.2141 -0.2035  1.0456
  134OSM      N14464   1.731   5.528   6.491 -0.3307  0.8013 -0.3784
  134OSM    C1514465   1.875   5.478   6.472  0.0456  0.6286  0.0446
  134OSM   H15A14466   1.900   5.454   6.369  2.3172 -2.3198  1.1948
  134OSM   H15B14467   1.884   5.385   6.526 -0.2664 -0.9803 -2.5941
  134OSM   H15C14468   1.944   5.554   6.508  0.3633  1.0413 -1.3783
  134OSM    C1414469   1.733   5.582   6.631 -0.1141  0.4306 -0.2114
  134OSM   H14A14470   1.772   5.510   6.700 -2.8563  0.5387  1.5386
  134OSM   H14B14471   1.633   5.609   6.661 -0.2411 -0.3028  0.0341
  134OSM   H14C14472   1.800   5.666   6.623  0.6240  0.1480  2.7868
  134OSM    C1314473   1.699   5.647   6.400 -0.0596 -0.8930 -0.2741
  134OSM   H13A14474   1.772   5.726   6.399 -0.2695 -0.6926 -3.2810
  134OSM   H13B14475   1.607   5.683   6.444  0.6179 -0.2501  0.6311
  134OSM   H13C14476   1.692   5.617   6.297  1.1915 -2.2639  0.0187
  134OSM    C1214477   1.630   5.413   6.483 -0.2189  0.2116  0.5749
  134OSM   H12A14478   1.631   5.373   6.382  1.7763  0.7192  0.3795
  134OSM   H12B14479   1.530   5.446   6.509 -0.4864  1.0633 -1.4044
  134OSM    C1114480   1.657   5.285   6.561  0.2155  0.7268  0.5730
  134OSM   H11A14481   1.569   5.217   6.561  0.1315  0.7907 -1.4897
  134OSM   H11B14482   1.661   5.300   6.671 -0.8129  0.6624  0.6262
  134OSM      P14483   1.746   5.103   6.414  0.0017  0.1521 -0.0640
  134OSM    O1314484   1.653   5.149   6.312  0.3140 -0.1476  0.3547
  134OSM    O1414485   1.868   5.035   6.357  0.0146 -0.2347 -0.1233
  134OSM    O1114486   1.675   4.997   6.502 -0.5312  0.8049 -0.1370
  134OSM    O1214487   1.775   5.220   6.516 -0.9266 -0.7365 -0.0179
  134OSM    C1S14488   1.724   4.960   6.635 -0.6205  0.0119 -0.0436
  134OSM    H1S14489   1.665   5.027   6.703 -1.1501  2.2254 -2.6002
  134OSM    H1T14490   1.833   4.972   6.652 -0.3308 -2.3378 -0.1052
  134OSM     NF14491   1.719   4.780   6.808 -0.6602  0.4242 -0.2918
  134OSM    HNF14492   1.811   4.748   6.830 -0.6661  0.3603 -0.3606
  134OSM    C2S14493   1.680   4.809   6.672  0.5831 -0.9004 -0.2937
  134OSM    H2S14494   1.569   4.805   6.665  0.6348  0.6569 -2.7406
  134OSM    C3S14495   1.738   4.711   6.560  0.1976 -0.4462 -0.3350
  134OSM    H3S14496   1.841   4.750   6.543 -0.6678  1.7750 -0.6095
  134OSM     O314497   1.680   4.725   6.435 -0.0754  0.0705  0.6828
  134OSM    HO314498   1.625   4.803   6.446 -0.2445 -0.0224  0.4905
  134OSM    C4S14499   1.725   4.568   6.606  0.2347 -1.0009  0.0349
  134OSM    H4S14500   1.632   4.547   6.661 -0.0379  0.1195  0.0094
  134OSM    C5S14501   1.817   4.473   6.571 -0.1624  0.1013  0.3590
  134OSM    H5S14502   1.904   4.503   6.510 -2.3651 -0.0622 -2.9614
  134OSM    C6S14503   1.804   4.329   6.600 -0.0884  0.5809 -0.7591
  134OSM    H6S14504   1.814   4.273   6.505  0.9322  0.2197 -0.4353
  134OSM    H6T14505   1.704   4.311   6.645  0.1585 -0.3959 -0.6062
  134OSM    C7S14506   1.922   4.278   6.685  0.2193  0.2052  0.5462
  134OSM    H7S14507   2.016   4.328   6.652  0.1839  0.7726  1.2859
  134OSM    H7T14508   1.923   4.168   6.667  0.5251  0.4958 -1.3771
  134OSM    C8S14509   1.913   4.323   6.827  0.5263  0.5661  0.0751
  134OSM    H8S14510   1.823   4.277   6.874  0.6911 -0.2202 -0.3640
  134OSM    H8T14511   1.906   4.434   6.829  0.8982  0.6584 -2.1811
  134OSM    C9S14512   2.038   4.284   6.907 -0.2274  0.5844  0.1429
  134OSM    H9S14513   2.122   4.344   6.866  0.8909  0.2515  1.8871
  134OSM    H9T14514   2.052   4.174   6.901  0.3288  0.4372  3.1387
  134OSM   C10S14515   2.037   4.324   7.056 -0.1852 -0.2244  0.7115
  134OSM   H10S14516   2.009   4.431   7.061 -1.3301 -0.4602 -0.3055
  134OSM   H10T14517   2.142   4.307   7.090  0.2250  1.6155  0.4136
  134OSM   C11S14518   1.949   4.238   7.139 -0.7303 -0.2353  0.3585
  134OSM   H11S14519   1.978   4.133   7.160 -1.9138 -0.4367  1.0832
  134OSM   H11T14520   1.844   4.253   7.105 -0.7597 -0.4117  0.3724
  134OSM   C12S14521   1.951   4.293   7.284  0.4075  0.1164  0.5970
  134OSM   H12S14522   1.849   4.272   7.321  0.0051  1.3873  0.2289
  134OSM   H12T14523   1.951   4.404   7.279  0.3280  0.1261  0.8247
  134OSM   C13S14524   2.069   4.248   7.369 -0.7229  0.4220  0.8739
  134OSM   H13S14525   2.160   4.268   7.308 -1.1080  0.1447  0.1928
  134OSM   H13T14526   2.061   4.139   7.388 -0.3068  0.0827 -0.7673
  134OSM   C14S14527   2.082   4.326   7.495 -0.1089 -0.0916 -0.6202
  134OSM   H14S14528   2.081   4.435   7.473  1.1051 -0.2286 -1.4427
  134OSM   H14T14529   2.179   4.305   7.545 -0.9151 -2.0107  0.1805
  134OSM   C15S14530   1.973   4.289   7.599  0.5841  0.2013  0.8282
  134OSM   H15S14531   1.967   4.180   7.617  0.6863 -0.3543 -2.2687
  134OSM   H15T14532   1.872   4.308   7.557  0.7488 -4.0361 -1.7757
  134OSM   C16S14533   1.993   4.370   7.730  0.1453 -0.6870 -0.0271
  134OSM   H16S14534   2.010   4.480   7.721 -1.9759 -0.2505  0.9736
  134OSM   H16T14535   2.092   4.335   7.766 -0.3684 -0.4210  1.6789
  134OSM   C17S14536   1.893   4.361   7.849  0.1924  0.2374  0.7224
  134OSM   H17S14537   1.881   4.259   7.891  0.4782  0.5637  1.6072
  134OSM   H17T14538   1.795   4.393   7.808  1.2442  0.4928 -1.6662
  134OSM   C18S14539   1.933   4.444   7.969 -0.2721 -0.7496 -0.5849
  134OSM   H18S14540   1.861   4.414   8.049  0.4411 -1.6046 -0.2489
  134OSM   H18T14541   1.929   4.553   7.952  0.0770 -1.0328 -2.5837
  134OSM   H18U14542   2.037   4.420   7.998  0.0591  0.7020 -0.5657
  134OSM    C1F14543   1.637   4.812   6.913 -0.1886  0.4200 -0.0603
  134OSM     OF14544   1.522   4.856   6.898 -0.0923  0.5539  0.2479
  134OSM    C2F14545   1.689   4.792   7.057  0.0058 -0.0854 -0.0158
  134OSM    H2F14546   1.798   4.815   7.054  0.1382 -0.7917 -0.7065
  134OSM    H2G14547   1.674   4.684   7.076 -0.1151  0.2120  1.6795
  134OSM    C3F14548   1.619   4.895   7.157 -0.5031 -0.3482  0.1111
  134OSM    H3F14549   1.510   4.902   7.135 -0.7892 -0.1911  1.5096
  134OSM    H3G14550   1.663   4.997   7.147 -1.2422  0.0283  0.6500
  134OSM    C4F14551   1.637   4.869   7.307 -0.2126  0.8530 -0.0869
  134OSM    H4F14552   1.576   4.786   7.350  1.3655 -0.7744 -0.9408
  134OSM    H4G14553   1.599   4.956   7.365  1.7517  1.1096  0.8678
  134OSM    C5F14554   1.783   4.861   7.373  0.3104  1.0429 -0.2287
  134OSM    H5F14555   1.854   4.945   7.359  2.0891 -0.6093 -1.4435
  134OSM    H5G14556   1.831   4.768   7.334 -0.1490  0.3180  0.9243
  134OSM    C6F14557   1.766   4.841   7.525  0.0339  0.0700 -0.4253
  134OSM    H6F14558   1.701   4.756   7.556  0.3656  1.0726  3.2233
  134OSM    H6G14559   1.733   4.933   7.577  0.3957 -0.5635  0.9334
  134OSM    C7F14560   1.905   4.822   7.587 -0.5259 -0.4411  0.7058
  134OSM    H7F14561   1.956   4.921   7.577  2.8103 -2.0992  0.4958
  134OSM    H7G14562   1.969   4.752   7.530 -0.0526 -0.5967  1.4173
  134OSM    C8F14563   1.896   4.776   7.736  0.2340  0.7658  0.5568
  134OSM    H8F14564   1.978   4.703   7.753 -0.5483  0.1245  1.6082
  134OSM    H8G14565   1.797   4.726   7.737  0.4402  0.2637 -1.5394
  134OSM    C9F14566   1.900   4.885   7.838  0.2716 -0.1332  0.0943
  134OSM    H9F14567   1.993   4.942   7.826  0.6897 -0.4991  1.5374
  134OSM   C10F14568   1.814   4.916   7.933 -0.3232 -0.3591  0.3452
  134OSM   H10F14569   1.835   5.006   7.993 -2.2569 -0.8950  1.9060
  134OSM   C11F14570   1.691   4.840   7.968 -0.3446  0.0214  0.1684
  134OSM   H11F14571   1.672   4.756   7.898 -2.1862  1.8569 -1.6203
  134OSM   H11G14572   1.603   4.908   7.962  0.0108  0.6488  1.7312
  134OSM   C12F14573   1.693   4.795   8.118  0.5305 -0.3896  0.1391
  134OSM   H12F14574   1.727   4.881   8.179 -0.4714 -0.8813  1.4155
  134OSM   H12G14575   1.770   4.716   8.132  1.8784  0.5143 -1.9086
  134OSM   C13F14576   1.556   4.754   8.171 -0.5345  0.7154  0.4681
  134OSM   H13F14577   1.527   4.663   8.115 -0.8880  1.5323 -0.7096
  134OSM   H13G14578   1.482   4.833   8.146  0.6808  1.5365 -0.5764
  134OSM   C14F14579   1.548   4.730   8.323  0.3103  0.1430 -0.4531
  134OSM   H14F14580   1.600   4.817   8.368 -0.8163  1.4469 -1.6478
  134OSM   H14G14581   1.614   4.642   8.337  0.8286  0.8325  1.5492
  134OSM   C15F14582   1.408   4.699   8.363 -0.0083 -0.3111  0.4394
  134OSM   H15F14583   1.365   4.608   8.316 -3.1225  0.7314  1.1717
  134OSM   H15G14584   1.337   4.781   8.341  1.6091  0.4503 -2.0983
  134OSM   C16F14585   1.417   4.660   8.514 -0.6318  0.1482 -0.2487
  134OSM   H16F14586   1.434   4.756   8.568 -0.3236 -0.1739  0.2314
  134OSM   H16G14587   1.516   4.610   8.519 -1.3153 -1.4322 -1.9069
  134OSM   C17F14588   1.308   4.574   8.566  0.2273 -0.3507 -0.7877
  134OSM   H17F14589   1.291   4.479   8.509 -0.6010 -0.6366 -0.0708
  134OSM   H17G14590   1.209   4.621   8.548 -0.1628 -1.0809 -0.5997
  134OSM   C18F14591   1.315   4.559   8.716  0.1880 -0.1498 -0.1616
  134OSM   H18F14592   1.342   4.654   8.766  1.1845 -0.1838 -0.6325
  134OSM   H18G14593   1.397   4.494   8.754 -1.7466 -1.7114  1.4909
  134OSM   H18H14594   1.225   4.506   8.755 -0.1408 -1.5345 -2.6646
  135OSM      N14595   1.560   4.884   6.054  0.1596 -0.3453 -0.4906
  135OSM    C1514596   1.565   4.758   6.124  0.2381  0.9256 -0.3652
  135OSM   H15A14597   1.469   4.719   6.151  0.8662 -1.9085 -2.0670
  135OSM   H15B14598   1.606   4.753   6.223 -1.5674 -1.1323  0.3030
  135OSM   H15C14599   1.606   4.676   6.067  0.1409  0.4123  0.2977
  135OSM    C1414600   1.687   4.941   6.003  0.3350 -0.1758 -0.3176
  135OSM   H14A14601   1.682   4.977   5.902 -2.9270  0.6268  0.0445
  135OSM   H14B14602   1.763   4.864   6.008  0.5140 -0.0727 -1.4699
  135OSM   H14C14603   1.713   5.032   6.056  1.7432 -0.7661  0.0337
  135OSM    C1314604   1.461   4.856   5.940  0.0497  0.4402 -0.1293
  135OSM   H13A14605   1.376   4.803   5.981  0.1189  0.0593 -0.4759
  135OSM   H13B14606   1.498   4.802   5.854 -1.8656  2.2011 -2.1640
  135OSM   H13C14607   1.430   4.947   5.891 -1.5287 -0.0483 -0.0883
  135OSM    C1214608   1.492   4.988   6.138  0.5250  0.6694 -0.1317
  135OSM   H12A14609   1.473   5.077   6.080  2.3235  1.1397 -0.0280
  135OSM   H12B14610   1.563   5.020   6.213 -0.1639 -1.2639  1.3748
  135OSM    C1114611   1.361   4.954   6.207 -0.1698  0.0924 -0.4076
  135OSM   H11A14612   1.389   4.885   6.290  0.7149  0.1306 -0.6709
  135OSM   H11B14613   1.292   4.902   6.137 -1.2608  3.4519 -1.9614
  135OSM      P14614   1.187   5.074   6.358 -0.2034 -0.0076 -0.1956
  135OSM    O1314615   1.172   5.209   6.419 -0.2957 -0.8598 -0.1642
  135OSM    O1414616   1.069   5.023   6.290 -0.0446  0.5150  0.4097
  135OSM    O1114617   1.234   4.977   6.462  0.2975  0.0373  0.8192
  135OSM    O1214618   1.297   5.077   6.251  0.0096 -0.2315  0.1732
  135OSM    C1S14619   1.318   5.019   6.570  0.0089  0.2847 -0.3864
  135OSM    H1S14620   1.353   5.123   6.556  1.8422 -0.4147 -1.0283
  135OSM    H1T14621   1.408   4.955   6.569  0.5192  0.9715  0.6334
  135OSM     NF14622   1.340   5.044   6.814 -0.3767 -0.1745  0.2442
  135OSM    HNF14623   1.409   4.978   6.840  0.2043  0.4302  0.2713
  135OSM    C2S14624   1.249   5.000   6.712  0.6185 -0.1104  0.3271
  135OSM    H2S14625   1.160   5.066   6.710  1.4146  1.0174  1.4698
  135OSM    C3S14626   1.217   4.850   6.732 -0.4043  0.0301 -0.1134
  135OSM    H3S14627   1.308   4.793   6.700  1.0142  1.6288  0.9804
  135OSM     O314628   1.115   4.803   6.648  0.1767  0.1739 -0.0415
  135OSM    HO314629   1.117   4.855   6.568 -1.4338  1.0780  0.4766
  135OSM    C4S14630   1.198   4.816   6.885  0.5443 -0.2738 -0.3504
  135OSM    H4S14631   1.284   4.771   6.936  2.1599  2.1582 -0.8023
  135OSM    C5S14632   1.079   4.821   6.955  0.1191  0.3315  0.1462
  135OSM    H5S14633   0.991   4.865   6.906 -1.7113 -0.0271  3.0009
  135OSM    C6S14634   1.055   4.795   7.099 -0.0873  0.7059 -0.4911
  135OSM    H6S14635   1.002   4.698   7.113  0.4670  0.5044  0.2850
  135OSM    H6T14636   0.981   4.873   7.125 -0.6120 -0.4682  1.6379
  135OSM    C7S14637   1.178   4.806   7.196  0.5068 -0.4589  0.9618
  135OSM    H7S14638   1.224   4.907   7.193 -0.2850 -0.0982  0.7262
  135OSM    H7T14639   1.258   4.736   7.162  0.7322 -0.4479  1.4656
  135OSM    C8S14640   1.135   4.767   7.341  0.1655  0.1181  0.3067
  135OSM    H8S14641   1.100   4.662   7.337 -0.0302  0.2527 -3.1438
  135OSM    H8T14642   1.046   4.828   7.367  0.6475  0.2350  1.7094
  135OSM    C9S14643   1.253   4.788   7.439  0.1470 -0.1663 -0.0518
  135OSM    H9S14644   1.251   4.898   7.450 -0.1201 -0.2893  1.2166
  135OSM    H9T14645   1.357   4.763   7.406  0.1303  0.8113 -0.8718
  135OSM   C10S14646   1.237   4.715   7.573 -0.1326  0.4477  0.4417
  135OSM   H10S14647   1.334   4.737   7.623  0.3008 -2.1198  0.7879
  135OSM   H10T14648   1.219   4.606   7.562 -0.7330  0.4608  1.2658
  135OSM   C11S14649   1.129   4.769   7.665  0.3129  0.9812  0.2827
  135OSM   H11S14650   1.045   4.795   7.597 -0.0477 -0.7870  0.0297
  135OSM   H11T14651   1.161   4.862   7.718  1.3117 -0.9446  3.1755
  135OSM   C12S14652   1.086   4.664   7.761  0.2750  1.3176 -0.2721
  135OSM   H12S14653   1.170   4.592   7.778  0.3898  1.6908  0.7535
  135OSM   H12T14654   1.008   4.602   7.712 -0.9506  1.7492  1.0802
  135OSM   C13S14655   1.029   4.699   7.893  0.0311 -0.3549  0.0873
  135OSM   H13S14656   0.923   4.728   7.879  0.3956  0.7530 -0.4309
  135OSM   H13T14657   1.089   4.786   7.926 -1.3618  0.8303 -0.4771
  135OSM   C14S14658   1.049   4.586   8.001 -0.0346  0.0882 -0.6789
  135OSM   H14S14659   1.155   4.590   8.034 -0.2279  0.8167 -0.1315
  135OSM   H14T14660   1.041   4.492   7.942 -0.7065  0.3896 -1.0710
  135OSM   C15S14661   0.947   4.574   8.112  0.2285 -0.0151 -0.4729
  135OSM   H15S14662   0.974   4.485   8.172 -0.2991  1.5715  2.1744
  135OSM   H15T14663   0.843   4.579   8.073 -0.0163  0.4112  0.2266
  135OSM   C16S14664   0.954   4.686   8.220 -0.3017  0.4342  0.1329
  135OSM   H16S14665   0.931   4.779   8.164  1.8296  0.3012 -1.0362
  135OSM   H16T14666   1.063   4.692   8.239 -0.3633 -2.5404  1.7769
  135OSM   C17S14667   0.870   4.667   8.346 -0.5866 -0.1822 -0.5780
  135OSM   H17S14668   0.888   4.564   8.381  2.1170  0.8820  1.3607
  135OSM   H17T14669   0.763   4.673   8.317 -0.9777  0.0740  0.8885
  135OSM   C18S14670   0.901   4.774   8.456 -0.4217  0.2061 -0.3429
  135OSM   H18S14671   0.821   4.764   8.531 -0.7044  1.2247 -0.5116
  135OSM   H18T14672   0.898   4.877   8.415  0.1660  0.7543  0.9998
  135OSM   H18U14673   1.005   4.759   8.493 -0.6854 -0.8239 -0.0039
  135OSM    C1F14674   1.358   5.169   6.841  0.2151  0.0706 -0.0663
  135OSM     OF14675   1.277   5.254   6.802  0.5201  0.6078  0.0284
  135OSM    C2F14676   1.488   5.206   6.921 -0.4466 -0.4981  0.5776
  135OSM    H2F14677   1.555   5.254   6.846  0.5850 -0.0381  1.7862
  135OSM    H2G14678   1.548   5.115   6.942 -0.1550 -0.4660 -0.1036
  135OSM    C3F14679   1.463   5.288   7.045 -0.0885 -0.4215 -0.3932
  135OSM    H3F14680   1.399   5.379   7.034  0.7562 -0.0958 -2.8680
  135OSM    H3G14681   1.561   5.329   7.077 -0.7038  3.2485 -2.8782
  135OSM    C4F14682   1.400   5.212   7.158 -0.8417  0.4725  0.2180
  135OSM    H4F14683   1.480   5.139   7.179  1.8508  2.8339 -1.5140
  135OSM    H4G14684   1.310   5.151   7.137 -0.3928  0.0430 -0.4467
  135OSM    C5F14685   1.403   5.278   7.297  0.2278  0.7028 -0.1851
  135OSM    H5F14686   1.337   5.367   7.285 -1.5110 -0.6674 -1.1538
  135OSM    H5G14687   1.500   5.312   7.340 -0.4019 -0.1489  1.9595
  135OSM    C6F14688   1.341   5.181   7.392 -0.6805  0.3677 -0.1101
  135OSM    H6F14689   1.400   5.086   7.393 -1.9455 -0.4303  0.6889
  135OSM    H6G14690   1.234   5.164   7.372 -0.5534 -1.1622  0.4369
  135OSM    C7F14691   1.344   5.240   7.533 -0.1398  0.1847 -0.6072
  135OSM    H7F14692   1.259   5.195   7.588  0.6670  1.6205  1.9165
  135OSM    H7G14693   1.316   5.347   7.532 -0.3768  0.1217 -0.6301
  135OSM    C8F14694   1.474   5.207   7.607 -0.1200 -0.7851  0.0131
  135OSM    H8F14695   1.464   5.280   7.690 -2.3048  0.5658 -1.4012
  135OSM    H8G14696   1.569   5.245   7.562 -0.2938  1.3113  1.3610
  135OSM    C9F14697   1.484   5.068   7.654 -0.3349 -0.1473 -0.3257
  135OSM    H9F14698   1.519   4.997   7.578  4.3645  0.3580  1.1843
  135OSM   C10F14699   1.432   5.012   7.769  0.3172  0.1681 -0.5504
  135OSM   H10F14700   1.440   4.902   7.773 -1.1137 -0.1926 -5.1501
  135OSM   C11F14701   1.365   5.095   7.884 -0.1914  0.4693  0.1198
  135OSM   H11F14702   1.359   5.205   7.874 -0.4299  0.4579  0.1439
  135OSM   H11G14703   1.434   5.077   7.969 -0.4403 -1.4138 -0.0456
  135OSM   C12F14704   1.232   5.035   7.930  0.9519  0.1934 -0.0017
  135OSM   H12F14705   1.240   4.927   7.954 -1.0435 -0.0656 -0.4501
  135OSM   H12G14706   1.144   5.051   7.864  0.0205 -3.5484  0.2547
  135OSM   C13F14707   1.198   5.101   8.062  0.2816  0.3960 -0.6593
  135OSM   H13F14708   1.190   5.210   8.046 -0.6120  0.4636  0.1690
  135OSM   H13G14709   1.289   5.101   8.125 -0.7814 -1.3599  0.9486
  135OSM   C14F14710   1.092   5.041   8.153  0.2178  0.0252  0.6522
  135OSM   H14F14711   1.110   4.937   8.188 -2.0779  0.4040  3.0917
  135OSM   H14G14712   0.998   5.028   8.095 -1.4945  0.0871  3.3362
  135OSM   C15F14713   1.052   5.118   8.275  0.3121  0.0056  0.2608
  135OSM   H15F14714   1.145   5.117   8.335  1.7663 -3.9128 -1.8894
  135OSM   H15G14715   0.980   5.058   8.335 -0.7392  0.1187 -0.8600
  135OSM   C16F14716   1.010   5.263   8.252  0.9843 -0.5047 -0.4813
  135OSM   H16F14717   0.946   5.262   8.161 -3.0986 -0.4073  2.2637
  135OSM   H16G14718   1.106   5.318   8.239  0.1984  0.4685 -2.5819
  135OSM   C17F14719   0.926   5.334   8.361  0.3192  0.1322  0.3192
  135OSM   H17F14720   0.915   5.443   8.341  1.6041  0.0099 -1.0979
  135OSM   H17G14721   0.983   5.334   8.457  0.6231  1.9152  0.1632
  135OSM   C18F14722   0.788   5.270   8.381  0.3531  0.8152 -0.0582
  135OSM   H18F14723   0.781   5.249   8.489 -1.6798  0.2880 -0.2705
  135OSM   H18G14724   0.773   5.171   8.333 -1.8502  0.8871  0.4642
  135OSM   H18H14725   0.708   5.331   8.334  1.2662  0.9509 -1.4830
  136OSM      N14726   5.757   5.558   5.733 -1.1074  0.0394 -0.1505
  136OSM    C1514727   5.666   5.518   5.629 -0.1290 -0.5237 -0.4436
  136OSM   H15A14728   5.562   5.511   5.660  0.4958  0.2471  1.9288
  136OSM   H15B14729   5.688   5.420   5.588  2.8475  0.4878 -1.3283
  136OSM   H15C14730   5.688   5.579   5.543  0.0456 -2.2640 -1.6744
  136OSM    C1414731   5.900   5.527   5.691 -0.2503 -0.1296  0.0266
  136OSM   H14A14732   5.914   5.575   5.596 -0.5463 -0.0729  0.0089
  136OSM   H14B14733   5.913   5.420   5.689 -1.9461 -0.3821  1.3293
  136OSM   H14C14734   5.967   5.578   5.759 -0.8891  0.2624  0.3703
  136OSM    C1314735   5.737   5.701   5.761  0.2574 -0.6167 -0.3516
  136OSM   H13A14736   5.632   5.728   5.757  0.8144  2.1656  2.2595
  136OSM   H13B14737   5.789   5.758   5.684 -0.2744  0.9352  0.4193
  136OSM   H13C14738   5.764   5.724   5.863  0.6401  0.9963 -0.7995
  136OSM    C1214739   5.714   5.475   5.852 -0.7444  0.3086  0.4404
  136OSM   H12A14740   5.733   5.371   5.827  1.6910  0.8975 -0.2956
  136OSM   H12B14741   5.607   5.483   5.857 -0.6471  0.6643  2.2963
  136OSM    C1114742   5.775   5.509   5.987 -0.1100  0.2501 -0.2875
  136OSM   H11A14743   5.730   5.438   6.059  1.2374 -1.1878 -0.8349
  136OSM   H11B14744   5.742   5.612   6.014 -1.5952 -0.0349 -0.9694
  136OSM      P14745   6.015   5.577   6.056 -0.0412  0.1569 -0.3454
  136OSM    O1314746   6.146   5.512   6.076 -0.1332  0.2214 -0.7539
  136OSM    O1414747   6.022   5.709   5.988 -0.6667  0.7002  0.2084
  136OSM    O1114748   5.945   5.595   6.194 -0.1115  0.1687 -0.6350
  136OSM    O1214749   5.918   5.482   5.979 -0.1451 -0.3810  0.1939
  136OSM    C1S14750   5.956   5.511   6.306 -0.3981 -0.2325  0.2633
  136OSM    H1S14751   6.063   5.488   6.327 -0.1197  0.1657 -0.6793
  136OSM    H1T14752   5.895   5.418   6.307 -1.4207  0.4135 -0.7149
  136OSM     NF14753   5.947   5.513   6.554 -0.0672 -0.0635 -0.0301
  136OSM    HNF14754   5.875   5.448   6.579  0.9127 -1.8022 -1.5624
  136OSM    C2S14755   5.907   5.587   6.435  0.2547  0.5749  0.3178
  136OSM    H2S14756   5.960   5.684   6.426 -0.4165  0.9671  0.5125
  136OSM    C3S14757   5.756   5.607   6.423 -0.2058  0.0365  0.6910
  136OSM    H3S14758   5.701   5.511   6.409 -2.4260  1.2544  0.9528
  136OSM     O314759   5.727   5.687   6.309 -0.4556 -0.7044  0.2388
  136OSM    HO314760   5.791   5.669   6.241 -1.5541 -1.4361 -0.6149
  136OSM    C4S14761   5.697   5.664   6.556 -0.1827  0.2162 -0.5910
  136OSM    H4S14762   5.658   5.590   6.628  0.4125  0.1007 -0.3858
  136OSM    C5S14763   5.670   5.788   6.594 -0.0153 -0.3096 -0.2486
  136OSM    H5S14764   5.692   5.870   6.524  1.8881 -1.1243 -0.6275
  136OSM    C6S14765   5.613   5.826   6.727  0.1549 -0.6627 -0.6991
  136OSM    H6S14766   5.502   5.828   6.728  0.1634 -0.3544  0.9742
  136OSM    H6T14767   5.644   5.930   6.751 -2.2078 -0.2461  0.6967
  136OSM    C7S14768   5.675   5.742   6.833 -0.6237 -0.6953 -1.3668
  136OSM    H7S14769   5.786   5.738   6.827 -0.4106  0.7418  1.1592
  136OSM    H7T14770   5.636   5.638   6.825 -0.0992 -0.8008 -2.6874
  136OSM    C8S14771   5.634   5.789   6.979  0.6574  0.4179  0.3559
  136OSM    H8S14772   5.527   5.812   6.999  0.0284 -1.1342 -1.0150
  136OSM    H8T14773   5.692   5.882   6.997 -0.7676  1.5065 -0.6148
  136OSM    C9S14774   5.679   5.692   7.088  0.1077  0.6152 -0.0110
  136OSM    H9S14775   5.785   5.657   7.089 -0.7800 -2.4547 -2.6687
  136OSM    H9T14776   5.625   5.596   7.082 -0.0717  0.7358 -0.3848
  136OSM   C10S14777   5.648   5.742   7.232 -0.8859 -0.5984 -0.5780
  136OSM   H10S14778   5.684   5.661   7.299 -1.9094 -0.4504  0.1659
  136OSM   H10T14779   5.538   5.744   7.250 -0.5488 -2.2291  1.9163
  136OSM   C11S14780   5.714   5.869   7.280  0.4468  0.3538 -0.5568
  136OSM   H11S14781   5.678   5.958   7.225 -1.2047 -0.1800 -0.3584
  136OSM   H11T14782   5.819   5.866   7.243 -0.1647  1.7941 -2.4614
  136OSM   C12S14783   5.715   5.907   7.429 -0.9984 -0.2768  0.1449
  136OSM   H12S14784   5.785   5.848   7.491 -0.5360  0.9982  0.8713
  136OSM   H12T14785   5.614   5.888   7.472 -0.9052  0.6873  0.8178
  136OSM   C13S14786   5.756   6.050   7.437  0.5146 -0.0777 -0.6404
  136OSM   H13S14787   5.684   6.110   7.379  0.7646  0.6911 -0.1752
  136OSM   H13T14788   5.856   6.052   7.388 -0.2942  0.5930 -2.2820
  136OSM   C14S14789   5.758   6.107   7.579  0.4627  0.4955 -0.1962
  136OSM   H14S14790   5.817   6.052   7.655  1.4298  1.3878 -0.2872
  136OSM   H14T14791   5.652   6.092   7.609 -0.8525  0.2636 -4.5639
  136OSM   C15S14792   5.816   6.245   7.580 -0.1517  0.4435 -0.5819
  136OSM   H15S14793   5.795   6.300   7.486 -1.2841 -1.3914 -1.4226
  136OSM   H15T14794   5.927   6.235   7.586 -0.2338  0.2982  1.0106
  136OSM   C16S14795   5.753   6.338   7.688  0.0720  0.1642  0.1549
  136OSM   H16S14796   5.761   6.292   7.789 -0.0451 -2.8636 -1.1557
  136OSM   H16T14797   5.643   6.331   7.671  0.1525  0.6535 -0.6051
  136OSM   C17S14798   5.795   6.483   7.677  0.1255  0.4409 -0.7351
  136OSM   H17S14799   5.790   6.511   7.569 -0.2806  1.0673 -0.5554
  136OSM   H17T14800   5.898   6.505   7.713  0.0979 -1.0689  0.2725
  136OSM   C18S14801   5.699   6.568   7.753 -0.4638  0.5610 -1.1102
  136OSM   H18S14802   5.596   6.572   7.711 -1.3283 -0.7697  0.8063
  136OSM   H18T14803   5.734   6.673   7.756 -0.3299  0.5001 -0.4589
  136OSM   H18U14804   5.701   6.532   7.858 -0.7417 -0.4161 -1.4330
  136OSM    C1F14805   6.073   5.507   6.593  0.3908 -0.1313 -0.3389
  136OSM     OF14806   6.171   5.554   6.531  0.5187 -0.9350  0.3162
  136OSM    C2F14807   6.098   5.437   6.728  0.7687  0.1096  0.6281
  136OSM    H2F14808   6.184   5.483   6.782 -0.2633  0.0064  2.3968
  136OSM    H2G14809   6.120   5.331   6.702 -1.8360  0.0842 -1.6700
  136OSM    C3F14810   5.989   5.453   6.838 -0.3822  0.0261 -0.2149
  136OSM    H3F14811   5.899   5.403   6.795 -1.7512  0.2617  2.2991
  136OSM    H3G14812   5.978   5.563   6.849 -2.3887 -0.2364  0.6492
  136OSM    C4F14813   6.006   5.383   6.974  0.0393 -0.4555 -0.3132
  136OSM    H4F14814   6.031   5.275   6.970  0.6005 -0.2621 -3.0726
  136OSM    H4G14815   5.907   5.394   7.023 -0.3393 -1.3833 -0.8492
  136OSM    C5F14816   6.107   5.455   7.065  0.0208  0.5647 -0.0870
  136OSM    H5F14817   6.108   5.562   7.037 -0.6921  0.2718 -1.2729
  136OSM    H5G14818   6.207   5.408   7.048 -0.2772 -0.4660  0.9210
  136OSM    C6F14819   6.061   5.437   7.210 -0.0377 -0.1697  0.3848
  136OSM    H6F14820   6.048   5.331   7.242  0.2005 -0.5800 -0.8535
  136OSM    H6G14821   5.960   5.479   7.232 -0.2035  0.1675 -0.9695
  136OSM    C7F14822   6.151   5.508   7.314 -0.1654  0.2680  0.5769
  136OSM    H7F14823   6.183   5.608   7.278  1.1906 -0.3088  0.1193
  136OSM    H7G14824   6.244   5.446   7.313 -0.5216 -0.2686 -0.0384
  136OSM    C8F14825   6.091   5.531   7.452 -0.1406 -0.1034 -0.4084
  136OSM    H8F14826   6.068   5.427   7.485 -0.2498  0.9904  3.1659
  136OSM    H8G14827   5.999   5.593   7.449 -0.2071 -0.0125  2.2196
  136OSM    C9F14828   6.184   5.593   7.540  0.0165  0.3674  0.8537
  136OSM    H9F14829   6.258   5.528   7.588  0.3400 -1.0494 -1.5303
  136OSM   C10F14830   6.189   5.714   7.581  0.1309  0.0448 -0.1317
  136OSM   H10F14831   6.256   5.743   7.664  0.5832 -2.6943  0.5043
  136OSM   C11F14832   6.098   5.828   7.534  0.6733  0.4798  0.4850
  136OSM   H11F14833   6.016   5.837   7.608 -0.7582  0.3403 -1.0678
  136OSM   H11G14834   6.058   5.808   7.433 -0.0831 -0.9478  1.0568
  136OSM   C12F14835   6.162   5.961   7.533 -0.4195 -0.1003  0.2270
  136OSM   H12F14836   6.087   6.031   7.489  0.2333  0.0077 -0.7117
  136OSM   H12G14837   6.251   5.962   7.468 -0.9281  0.1477 -0.4750
  136OSM   C13F14838   6.205   6.012   7.667  0.1460 -0.2229 -0.5309
  136OSM   H13F14839   6.291   5.962   7.717 -1.5006 -0.9739  1.6384
  136OSM   H13G14840   6.115   5.992   7.728  0.6800 -1.6360 -0.1883
  136OSM   C14F14841   6.248   6.166   7.672 -0.1005 -0.3160 -0.1956
  136OSM   H14F14842   6.147   6.203   7.645  0.4259  1.7883  0.6348
  136OSM   H14G14843   6.324   6.190   7.593  0.1113 -1.1904 -0.2628
  136OSM   C15F14844   6.281   6.198   7.816  0.6587  0.1062 -0.3710
  136OSM   H15F14845   6.196   6.167   7.882 -0.5915  2.7076 -0.7030
  136OSM   H15G14846   6.288   6.308   7.828  1.3498  0.3325 -2.6024
  136OSM   C16F14847   6.420   6.142   7.859 -0.0747 -0.9296 -0.5745
  136OSM   H16F14848   6.491   6.150   7.775  1.4876 -1.3365  0.6935
  136OSM   H16G14849   6.409   6.031   7.867 -0.4039 -0.8017  0.9718
  136OSM   C17F14850   6.483   6.209   7.982 -0.0922 -0.4116 -0.6122
  136OSM   H17F14851   6.507   6.313   7.950 -2.1275  0.5015  0.7494
  136OSM   H17G14852   6.585   6.165   7.991  1.5049  2.9657 -1.1492
  136OSM   C18F14853   6.410   6.196   8.115 -0.1339 -0.0378 -0.9118
  136OSM   H18F14854   6.464   6.239   8.201 -0.3347  1.0319 -1.3135
  136OSM   H18G14855   6.393   6.090   8.143 -0.6430  0.1703 -0.4237
  136OSM   H18H14856   6.312   6.244   8.097  0.0779  0.4470 -0.7932
  137OSM      N14857   2.535   4.100   6.230  0.0454  0.1379 -0.8116
  137OSM    C1514858   2.406   4.168   6.272  0.8351 -0.5840  0.0843
  137OSM   H15A14859   2.423   4.234   6.356  1.6259  1.1508 -1.4138
  137OSM   H15B14860   2.339   4.099   6.322  2.5890 -1.6996  0.9630
  137OSM   H15C14861   2.354   4.214   6.189 -0.7274 -0.1840  1.2542
  137OSM    C1414862   2.506   3.989   6.146 -0.0855  0.2653  0.0118
  137OSM   H14A14863   2.461   4.021   6.053 -2.1069 -1.5690  0.3147
  137OSM   H14B14864   2.428   3.932   6.194  1.4122 -1.6618  0.2072
  137OSM   H14C14865   2.585   3.920   6.121 -0.3948 -0.6357  1.4276
  137OSM    C1314866   2.621   4.196   6.156 -0.2549  0.0966  0.6027
  137OSM   H13A14867   2.590   4.212   6.054 -0.0359  2.1615  0.8422
  137OSM   H13B14868   2.724   4.163   6.165  0.6160  2.2700 -0.9781
  137OSM   H13C14869   2.623   4.296   6.198  0.4044  0.4948 -0.3614
  137OSM    C1214870   2.603   4.047   6.366 -0.0477  0.3718 -0.4517
  137OSM   H12A14871   2.522   3.983   6.399  0.8144 -0.9354 -0.8459
  137OSM   H12B14872   2.606   4.135   6.429 -0.0822  1.2494 -1.6490
  137OSM    C1114873   2.739   3.973   6.358 -0.5274 -0.6829  0.0406
  137OSM   H11A14874   2.731   3.881   6.296 -1.6548 -0.2128 -0.5345
  137OSM   H11B14875   2.757   3.935   6.461 -0.4964 -0.8873 -0.0401
  137OSM      P14876   2.932   4.152   6.406  0.0947 -0.2550  0.1696
  137OSM    O1314877   3.080   4.154   6.366  0.6131 -0.0762 -0.5479
  137OSM    O1414878   2.870   4.286   6.404  0.6586  0.5867 -0.3786
  137OSM    O1114879   2.917   4.095   6.552  0.3909 -0.0185 -0.0439
  137OSM    O1214880   2.845   4.059   6.303  0.1211  0.4730 -0.2744
  137OSM    C1S14881   2.993   4.138   6.658  0.6432  0.0297 -0.7642
  137OSM    H1S14882   2.992   4.249   6.652 -1.0337  0.0869  0.1864
  137OSM    H1T14883   3.093   4.090   6.658  0.2535 -0.8025 -1.1558
  137OSM     NF14884   3.002   4.139   6.901 -0.1696 -1.1231 -0.0524
  137OSM    HNF14885   3.054   4.063   6.940 -0.3290 -1.5441 -0.6495
  137OSM    C2S14886   2.913   4.103   6.791  0.0670  1.0569  0.4137
  137OSM    H2S14887   2.822   4.165   6.804 -0.1266  0.8123  0.2219
  137OSM    C3S14888   2.882   3.951   6.799  0.4834 -0.2718  0.5842
  137OSM    H3S14889   2.978   3.898   6.782 -0.1476 -0.9804 -0.9784
  137OSM     O314890   2.796   3.906   6.696  0.2071 -0.2090  0.1650
  137OSM    HO314891   2.807   3.978   6.634 -0.1269 -1.2344 -1.1105
  137OSM    C4S14892   2.810   3.915   6.926 -0.5982  0.6099 -0.5256
  137OSM    H4S14893   2.701   3.929   6.924 -0.7599  0.2937  3.2852
  137OSM    C5S14894   2.875   3.876   7.037 -0.4450  0.5429 -0.4069
  137OSM    H5S14895   2.985   3.870   7.027 -0.7464 -0.3238 -3.6950
  137OSM    C6S14896   2.811   3.843   7.169 -0.2037  0.3339 -0.0806
  137OSM    H6S14897   2.846   3.744   7.204  1.0345  1.2063  1.1969
  137OSM    H6T14898   2.701   3.838   7.159 -0.1952  0.4812 -0.2553
  137OSM    C7S14899   2.844   3.944   7.272  0.4173 -0.3843 -0.3604
  137OSM    H7S14900   2.813   4.045   7.236  3.4507  1.1357  1.1640
  137OSM    H7T14901   2.949   3.953   7.307 -0.1159 -0.1774  1.2088
  137OSM    C8S14902   2.765   3.910   7.399 -0.0140 -0.0748 -0.0945
  137OSM    H8S14903   2.794   3.805   7.423  4.1683  1.9829  4.7992
  137OSM    H8T14904   2.656   3.918   7.381 -0.1759 -2.2344 -0.2503
  137OSM    C9S14905   2.803   3.994   7.520 -0.7988  0.7566  0.2342
  137OSM    H9S14906   2.716   3.971   7.585 -0.1183  1.0319  1.2597
  137OSM    H9T14907   2.820   4.103   7.513  2.9271  0.2906  1.1205
  137OSM   C10S14908   2.939   3.948   7.580 -0.3071  0.1110 -0.0292
  137OSM   H10S14909   3.017   3.986   7.511  0.2988 -0.5483  0.2984
  137OSM   H10T14910   2.945   3.837   7.580 -1.2747  0.0553  0.6388
  137OSM   C11S14911   2.971   3.988   7.728 -0.1113 -0.1222 -0.0827
  137OSM   H11S14912   2.876   3.971   7.783  0.5421 -2.6997  0.3193
  137OSM   H11T14913   2.988   4.098   7.728 -1.3026  0.0815 -2.3707
  137OSM   C12S14914   3.079   3.902   7.794 -0.4242 -0.3075  0.0457
  137OSM   H12S14915   3.167   3.898   7.727  0.1331  0.2365  0.7377
  137OSM   H12T14916   3.047   3.797   7.812 -0.2787 -0.8895 -2.8618
  137OSM   C13S14917   3.120   3.954   7.938  0.0370  0.2654  0.2332
  137OSM   H13S14918   3.024   3.970   7.990  0.7364  3.6948  0.5778
  137OSM   H13T14919   3.169   4.053   7.925  0.8729 -0.1568  0.0823
  137OSM   C14S14920   3.213   3.864   8.019  0.0690 -0.0548 -0.4019
  137OSM   H14S14921   3.317   3.870   7.980  0.4611  0.7126  0.7292
  137OSM   H14T14922   3.175   3.760   8.021  0.1501 -0.1186 -1.7841
  137OSM   C15S14923   3.223   3.899   8.164 -0.3319  0.3468 -0.3704
  137OSM   H15S14924   3.122   3.889   8.208 -0.4238  0.7037 -0.5055
  137OSM   H15T14925   3.255   3.999   8.198 -0.1221  0.7449 -1.7197
  137OSM   C16S14926   3.313   3.803   8.246 -0.3158  0.4229  0.0242
  137OSM   H16S14927   3.421   3.803   8.217 -0.2555  0.1732  0.2411
  137OSM   H16T14928   3.282   3.701   8.216 -1.6194  0.2568  1.8794
  137OSM   C17S14929   3.289   3.806   8.399  0.3611 -0.1893  0.6355
  137OSM   H17S14930   3.182   3.794   8.427  0.1214 -0.6963 -0.4744
  137OSM   H17T14931   3.312   3.910   8.433 -1.0084  1.0276 -2.0055
  137OSM   C18S14932   3.375   3.693   8.459  0.9444  0.3261 -0.3902
  137OSM   H18S14933   3.350   3.592   8.419  2.9282 -0.7512  1.0215
  137OSM   H18T14934   3.344   3.688   8.565 -0.0744  0.4586 -0.6828
  137OSM   H18U14935   3.484   3.715   8.460  0.9472  0.3035  1.1564
  137OSM    C1F14936   3.017   4.266   6.948 -0.4642 -0.2401  0.6473
  137OSM     OF14937   2.963   4.354   6.889  0.1584  0.8710  0.3590
  137OSM    C2F14938   3.078   4.294   7.078 -1.0014  1.5884  0.2578
  137OSM    H2F14939   3.186   4.297   7.052 -1.1195  2.4621 -0.1613
  137OSM    H2G14940   3.071   4.209   7.149  1.2980  0.0648 -1.2789
  137OSM    C3F14941   3.031   4.422   7.134 -0.4933 -0.4937 -0.2638
  137OSM    H3F14942   2.925   4.405   7.166 -0.6299  2.5759  1.1301
  137OSM    H3G14943   3.047   4.501   7.057  1.4414  0.2394  0.8548
  137OSM    C4F14944   3.126   4.473   7.250 -0.4978 -0.6049 -0.3932
  137OSM    H4F14945   3.105   4.582   7.259  1.8751  0.1042 -2.7590
  137OSM    H4G14946   3.234   4.452   7.232 -0.5087  1.0313 -2.7130
  137OSM    C5F14947   3.095   4.394   7.373  0.0954 -0.0587 -0.8078
  137OSM    H5F14948   3.133   4.291   7.358 -1.9718 -1.0266  0.4165
  137OSM    H5G14949   2.987   4.385   7.396  0.2849 -1.3608 -0.3821
  137OSM    C6F14950   3.151   4.445   7.505 -0.0175  0.3437 -0.0886
  137OSM    H6F14951   3.089   4.531   7.539 -1.7796 -1.1069  0.4201
  137OSM    H6G14952   3.256   4.475   7.481 -0.0700  0.1762 -0.5245
  137OSM    C7F14953   3.157   4.347   7.627  0.1745 -0.9908 -0.0391
  137OSM    H7F14954   3.233   4.273   7.594  0.7968  0.4610 -2.0340
  137OSM    H7G14955   3.053   4.310   7.633  0.2347 -1.3463 -1.0358
  137OSM    C8F14956   3.210   4.410   7.760 -0.5089 -0.2776  0.5116
  137OSM    H8F14957   3.318   4.437   7.748 -0.3428 -0.8772  0.6398
  137OSM    H8G14958   3.207   4.327   7.833 -2.2033  0.1425  0.9312
  137OSM    C9F14959   3.131   4.524   7.823 -0.7076  0.1401 -0.0791
  137OSM    H9F14960   3.182   4.622   7.828 -2.1043  0.8969 -0.5700
  137OSM   C10F14961   3.012   4.517   7.877 -0.4396  0.1318  0.1228
  137OSM   H10F14962   2.955   4.602   7.918  0.7477  1.0376 -0.1138
  137OSM   C11F14963   2.933   4.387   7.888 -0.0582  0.4958 -0.7170
  137OSM   H11F14964   2.954   4.319   7.803  1.0217  1.0785 -0.9410
  137OSM   H11G14965   2.824   4.403   7.892  0.2198  2.2884  6.4978
  137OSM   C12F14966   2.964   4.297   8.004  0.5085 -0.2217 -0.6894
  137OSM   H12F14967   2.967   4.360   8.095 -0.3402  0.2425 -0.9752
  137OSM   H12G14968   3.063   4.247   7.996 -0.2058 -2.1501  1.9235
  137OSM   C13F14969   2.858   4.187   8.039  0.6026  0.4190 -0.9159
  137OSM   H13F14970   2.857   4.108   7.962  0.3345  0.7423 -1.2465
  137OSM   H13G14971   2.756   4.227   8.020  0.1255 -0.4911 -0.2946
  137OSM   C14F14972   2.871   4.128   8.180 -0.1084 -0.0811 -0.4419
  137OSM   H14F14973   2.878   4.222   8.238  0.0819  1.1176 -2.3697
  137OSM   H14G14974   2.964   4.074   8.205  0.7569  1.0950 -1.0902
  137OSM   C15F14975   2.753   4.038   8.209  0.3581 -0.1011 -0.1453
  137OSM   H15F14976   2.783   3.941   8.164 -1.0575  0.2963 -2.0162
  137OSM   H15G14977   2.661   4.077   8.160 -0.7131 -0.3675  1.6439
  137OSM   C16F14978   2.739   4.025   8.361  0.1043  0.5801 -0.1037
  137OSM   H16F14979   2.643   3.973   8.380  0.2650  0.3507  0.0906
  137OSM   H16G14980   2.711   4.120   8.412 -0.2103  0.3032  0.2490
  137OSM   C17F14981   2.852   3.946   8.432 -0.2985 -0.3865 -0.1638
  137OSM   H17F14982   2.946   4.006   8.431 -0.9542  0.6516 -0.5345
  137OSM   H17G14983   2.868   3.851   8.377 -0.3746 -0.1413 -0.6111
  137OSM   C18F14984   2.813   3.887   8.569  0.3363 -0.4273  0.2140
  137OSM   H18F14985   2.742   3.806   8.541 -0.4822 -0.0119  1.0739
  137OSM   H18G14986   2.761   3.963   8.631 -1.0641 -0.7642 -0.5515
  137OSM   H18H14987   2.897   3.839   8.625  1.1764 -0.2687 -0.8996
  138OSM      N14988   3.765   6.522   5.879  0.0572 -0.5362  0.5723
  138OSM    C1514989   3.825   6.553   5.744  0.5755 -0.8730 -0.1824
  138OSM   H15A14990   3.782   6.640   5.696 -2.2138 -1.9248  0.3379
  138OSM   H15B14991   3.816   6.464   5.683 -1.1001 -1.2907  0.6491
  138OSM   H15C14992   3.932   6.563   5.754  0.4455 -0.5422  0.9002
  138OSM    C1414993   3.826   6.397   5.950  0.6266 -0.6059 -0.0909
  138OSM   H14A14994   3.934   6.400   5.952  0.6073  1.2048 -0.9564
  138OSM   H14B14995   3.796   6.305   5.902 -0.2513  0.7221 -2.1426
  138OSM   H14C14996   3.803   6.403   6.055  2.4191  3.2272  0.1555
  138OSM    C1314997   3.800   6.637   5.960 -0.2155 -0.3749  0.1539
  138OSM   H13A14998   3.903   6.662   5.942 -0.7818  0.3680 -2.2373
  138OSM   H13B14999   3.790   6.617   6.066 -1.2765  1.4336  0.4113
  138OSM   H13C15000   3.739   6.723   5.936  0.1037  0.8024  3.3147
  138OSM    C1215001   3.613   6.513   5.873 -0.5596  0.1564  0.3191
  138OSM   H12A15002   3.590   6.417   5.829 -1.7268  0.2942  0.6255
  138OSM   H12B15003   3.581   6.595   5.809  1.8738  0.8069 -0.1246
  138OSM    C1115004   3.539   6.528   6.013 -0.1825  0.8348  0.5909
  138OSM   H11A15005   3.563   6.627   6.058 -0.1337  1.2271 -0.2705
  138OSM   H11B15006   3.565   6.451   6.088  3.2070  2.2974  1.0054
  138OSM      P15007   3.308   6.406   6.037 -0.4241  0.5316  0.3552
  138OSM    O1315008   3.172   6.427   5.986  0.4587 -0.0736 -0.5013
  138OSM    O1415009   3.373   6.273   6.016  0.0542 -0.4914  0.0361
  138OSM    O1115010   3.308   6.436   6.195 -0.5817 -0.1801  0.7365
  138OSM    O1215011   3.398   6.517   5.982  0.5081  0.2731  0.4427
  138OSM    C1S15012   3.209   6.368   6.272  0.2538 -0.2423  0.0084
  138OSM    H1S15013   3.236   6.261   6.270  0.4963 -0.1649 -1.1590
  138OSM    H1T15014   3.106   6.382   6.232 -0.4813 -1.7718  1.3089
  138OSM     NF15015   3.109   6.367   6.499  0.6818  0.0384  0.0976
  138OSM    HNF15016   3.021   6.410   6.478  0.4622 -1.0117 -1.2462
  138OSM    C2S15017   3.213   6.431   6.415  0.6006 -0.1166 -0.5618
  138OSM    H2S15018   3.310   6.417   6.466  0.4110 -0.1717 -0.2114
  138OSM    C3S15019   3.203   6.589   6.398 -0.1193  0.0694  0.1501
  138OSM    H3S15020   3.112   6.632   6.353 -0.8828  0.4994  2.0521
  138OSM     O315021   3.311   6.652   6.323  0.4004 -0.0102 -0.6467
  138OSM    HO315022   3.340   6.581   6.265  2.0479  0.9593 -1.0398
  138OSM    C4S15023   3.211   6.651   6.533  0.5257 -0.1067  0.2330
  138OSM    H4S15024   3.299   6.619   6.590  1.0805 -2.0730 -1.6416
  138OSM    C5S15025   3.121   6.727   6.593  0.1764 -0.6391 -0.5957
  138OSM    H5S15026   3.028   6.743   6.535 -0.0122 -0.3610 -0.2150
  138OSM    C6S15027   3.142   6.780   6.729 -0.1323  0.4033 -0.2950
  138OSM    H6S15028   3.081   6.730   6.807  1.1497  1.2325  1.2614
  138OSM    H6T15029   3.100   6.883   6.734  1.2215  0.8150  4.3943
  138OSM    C7S15030   3.289   6.784   6.780  0.2105  0.2163  0.0012
  138OSM    H7S15031   3.353   6.832   6.703 -0.6604  0.5585 -0.5171
  138OSM    H7T15032   3.326   6.682   6.803  1.6674  0.9458  0.9771
  138OSM    C8S15033   3.309   6.862   6.909  0.3889  0.2191 -0.6342
  138OSM    H8S15034   3.271   6.965   6.889 -1.1597 -0.3821 -0.8444
  138OSM    H8T15035   3.415   6.866   6.942  0.3611  0.0700 -0.5316
  138OSM    C9S15036   3.244   6.799   7.039 -0.7664 -0.3650  0.3488
  138OSM    H9S15037   3.305   6.707   7.054  0.4179  0.1082 -1.4522
  138OSM    H9T15038   3.138   6.782   7.012 -1.1727  1.5644  0.6291
  138OSM   C10S15039   3.253   6.890   7.157 -0.4587  0.3804  0.2927
  138OSM   H10S15040   3.199   6.984   7.137 -0.3618  0.5392  0.7668
  138OSM   H10T15041   3.360   6.915   7.175 -0.3026  0.4754 -0.7564
  138OSM   C11S15042   3.196   6.818   7.282 -0.2741 -0.1831  0.0940
  138OSM   H11S15043   3.238   6.716   7.293 -0.4112 -0.4547 -1.7821
  138OSM   H11T15044   3.085   6.817   7.279 -0.2879 -0.6839  0.7018
  138OSM   C12S15045   3.233   6.897   7.407 -0.1633  0.3817  0.0438
  138OSM   H12S15046   3.222   7.007   7.402  0.6889  0.4665 -0.1694
  138OSM   H12T15047   3.341   6.871   7.419  0.3576  2.4694 -0.0009
  138OSM   C13S15048   3.165   6.846   7.537 -0.1812 -0.0245 -0.6690
  138OSM   H13S15049   3.161   6.735   7.540 -2.5847  0.0526  0.1911
  138OSM   H13T15050   3.057   6.872   7.526  0.1870  0.3908 -3.6898
  138OSM   C14S15051   3.215   6.911   7.661 -0.2190 -0.4043  0.3106
  138OSM   H14S15052   3.205   7.021   7.650 -0.5003 -0.4429  0.1673
  138OSM   H14T15053   3.325   6.897   7.654  0.0620  1.3371  0.9847
  138OSM   C15S15054   3.160   6.860   7.794 -0.5768 -0.3678  0.9520
  138OSM   H15S15055   3.225   6.786   7.846  1.0778  1.9402  2.2042
  138OSM   H15T15056   3.073   6.790   7.782  0.2120 -1.0598 -0.9023
  138OSM   C16S15057   3.103   6.972   7.880  0.8386 -0.3767  0.0225
  138OSM   H16S15058   3.017   7.023   7.833  1.0742  1.0219  1.0527
  138OSM   H16T15059   3.192   7.039   7.885  1.1235 -0.7195 -0.4368
  138OSM   C17S15060   3.066   6.937   8.025  0.7950  0.1832 -0.7710
  138OSM   H17S15061   2.994   6.852   8.026  0.0219  0.8277 -0.8725
  138OSM   H17T15062   3.015   7.027   8.066 -1.0910 -1.8527  1.5893
  138OSM   C18S15063   3.185   6.899   8.120 -0.1665 -0.1344  0.4710
  138OSM   H18S15064   3.148   6.869   8.220 -0.6167 -0.7878  0.1201
  138OSM   H18T15065   3.237   6.997   8.122  0.1315 -0.1691 -2.9104
  138OSM   H18U15066   3.259   6.827   8.080 -1.2867 -1.0719  0.0445
  138OSM    C1F15067   3.119   6.243   6.547 -0.2081  0.3596 -1.0971
  138OSM     OF15068   3.204   6.166   6.502  0.0761 -0.2859  0.2928
  138OSM    C2F15069   3.002   6.199   6.638  0.3910 -0.5248  0.5144
  138OSM    H2F15070   2.942   6.122   6.584 -0.5202  1.1130 -0.8312
  138OSM    H2G15071   2.937   6.288   6.643  2.3150  0.9760 -0.4384
  138OSM    C3F15072   3.063   6.138   6.768 -0.4341  0.4487  0.1128
  138OSM    H3F15073   3.122   6.214   6.822 -1.4931  3.3010 -2.5940
  138OSM    H3G15074   3.126   6.051   6.739 -0.7036 -0.4515  2.1195
  138OSM    C4F15075   2.956   6.084   6.859 -0.1800 -0.4130 -0.1762
  138OSM    H4F15076   2.890   6.018   6.798  1.9024 -2.3137 -0.4518
  138OSM    H4G15077   2.895   6.161   6.911  0.4298 -0.5516  0.7730
  138OSM    C5F15078   3.017   5.991   6.968  0.6161 -0.2535  0.5636
  138OSM    H5F15079   3.113   6.033   7.004  0.5168 -0.2933  0.8744
  138OSM    H5G15080   3.037   5.890   6.926 -1.1485 -0.7286  0.8254
  138OSM    C6F15081   2.927   5.991   7.097 -0.8277 -0.1591 -0.9074
  138OSM    H6F15082   2.822   5.971   7.068 -0.9398  0.0674 -0.6537
  138OSM    H6G15083   2.919   6.097   7.126  2.5587 -0.5126  1.6502
  138OSM    C7F15084   2.982   5.902   7.205 -0.2045 -0.2072 -0.7793
  138OSM    H7F15085   3.081   5.944   7.234 -0.7460 -1.0482  2.4269
  138OSM    H7G15086   2.997   5.805   7.154 -0.7112 -0.8761  0.3134
  138OSM    C8F15087   2.888   5.887   7.328 -0.3455 -0.2553  1.1011
  138OSM    H8F15088   2.947   5.811   7.383  1.0825  0.2432  0.2795
  138OSM    H8G15089   2.788   5.857   7.290  0.4009  0.0051 -1.1037
  138OSM    C9F15090   2.878   6.013   7.415  0.5583 -0.2104 -0.1881
  138OSM    H9F15091   2.807   6.088   7.378  0.2600 -1.9936 -3.4964
  138OSM   C10F15092   2.940   6.034   7.534 -0.2303  0.0350  0.4750
  138OSM   H10F15093   2.916   6.125   7.591  2.6578  0.1172  1.6320
  138OSM   C11F15094   3.033   5.942   7.601  0.0579  0.8650  0.1231
  138OSM   H11F15095   3.104   6.006   7.659  0.4075  0.7766 -0.2007
  138OSM   H11G15096   3.097   5.901   7.519  0.6766 -0.9481  1.4832
  138OSM   C12F15097   2.977   5.826   7.681 -0.1220  0.2259 -0.4068
  138OSM   H12F15098   3.056   5.749   7.670 -2.3131 -1.5720 -4.1746
  138OSM   H12G15099   2.887   5.781   7.634  0.1043 -0.6301 -0.0300
  138OSM   C13F15100   2.959   5.850   7.830 -0.0876 -0.6325  0.4742
  138OSM   H13F15101   2.854   5.886   7.836 -0.5946 -1.7199 -1.4165
  138OSM   H13G15102   3.021   5.937   7.861 -1.1567  0.1910  0.3526
  138OSM   C14F15103   2.975   5.725   7.911  0.3822  0.0271 -0.6436
  138OSM   H14F15104   3.082   5.694   7.907 -0.1801 -2.1641  0.5576
  138OSM   H14G15105   2.917   5.650   7.853  0.1614 -1.6268  1.6666
  138OSM   C15F15106   2.917   5.727   8.053  0.5573  0.6681 -0.6281
  138OSM   H15F15107   2.896   5.829   8.090 -3.4755 -0.9167  1.8532
  138OSM   H15G15108   2.987   5.678   8.124 -0.5182  0.3324  0.2273
  138OSM   C16F15109   2.794   5.626   8.081 -0.2190  0.4415 -0.3563
  138OSM   H16F15110   2.825   5.522   8.056  0.7944  0.5618  0.3536
  138OSM   H16G15111   2.708   5.650   8.015 -0.7490  0.0289  0.1771
  138OSM   C17F15112   2.734   5.642   8.224  0.5296 -0.1874 -0.4085
  138OSM   H17F15113   2.626   5.618   8.216  0.3616  0.3802  0.0697
  138OSM   H17G15114   2.743   5.749   8.255 -1.5639  0.2923 -1.3613
  138OSM   C18F15115   2.807   5.557   8.333  0.4272  0.8183 -0.1354
  138OSM   H18F15116   2.767   5.568   8.436  0.2290  0.1808 -0.1450
  138OSM   H18G15117   2.913   5.590   8.344  0.7386 -0.6053  1.3217
  138OSM   H18H15118   2.814   5.450   8.305  0.9570  0.5917  0.8327
  139OSM      N15119   1.960   6.627   6.187  0.0506 -0.3429  0.0820
  139OSM    C1515120   1.966   6.598   6.042 -0.0783  0.8764 -0.0326
  139OSM   H15A15121   1.872   6.570   5.995  0.2846 -0.8443  0.2365
  139OSM   H15B15122   2.047   6.530   6.021  0.9500  1.1026  3.0664
  139OSM   H15C15123   1.998   6.687   5.991  0.6205  1.5604  1.6020
  139OSM    C1415124   1.848   6.725   6.219  0.0913  0.0226  0.1833
  139OSM   H14A15125   1.850   6.750   6.324 -1.8234  0.8287  0.0460
  139OSM   H14B15126   1.752   6.683   6.191  0.0143  0.1928  0.1930
  139OSM   H14C15127   1.861   6.817   6.164 -0.4266 -0.4904 -0.8052
  139OSM    C1315128   1.934   6.500   6.266 -0.1708 -0.2597  0.2962
  139OSM   H13A15129   2.015   6.429   6.252  1.7652  1.9308  0.0080
  139OSM   H13B15130   1.844   6.450   6.235  0.9354 -1.6572 -0.6907
  139OSM   H13C15131   1.928   6.521   6.372 -0.4511  0.9362  0.0511
  139OSM    C1215132   2.099   6.679   6.226  0.3699  0.0684 -0.2023
  139OSM   H12A15133   2.172   6.609   6.190  0.7841 -0.2634  1.2657
  139OSM   H12B15134   2.114   6.675   6.332  1.3346 -0.7137 -0.3730
  139OSM    C1115135   2.153   6.813   6.170 -0.2921 -0.4027 -0.0182
  139OSM   H11A15136   2.175   6.796   6.063 -3.0338 -1.3521 -0.4649
  139OSM   H11B15137   2.251   6.844   6.214 -0.1312 -2.1867  0.9406
  139OSM      P15138   2.059   7.015   6.313  0.3088 -0.1323  0.1467
  139OSM    O1315139   2.158   7.124   6.295 -0.4407  1.0931  0.1340
  139OSM    O1415140   1.922   7.061   6.347  0.6604  0.2968 -0.2638
  139OSM    O1115141   2.103   6.913   6.421  0.3002 -0.1806  0.1239
  139OSM    O1215142   2.053   6.916   6.186 -0.2805  0.0811 -0.0232
  139OSM    C1S15143   2.119   6.949   6.564  0.1264 -0.1810 -0.1495
  139OSM    H1S15144   2.145   7.054   6.587  2.9302 -1.4331  2.7193
  139OSM    H1T15145   2.196   6.886   6.614  0.8337  0.6834 -0.1333
  139OSM     NF15146   2.023   6.978   6.793 -0.2022  0.0128 -0.8288
  139OSM    HNF15147   2.054   6.911   6.859 -1.7518 -0.9281 -1.0169
  139OSM    C2S15148   1.987   6.932   6.658 -0.0398  0.3145  0.3420
  139OSM    H2S15149   1.909   6.999   6.615 -0.2592  0.2808  0.6844
  139OSM    C3S15150   1.945   6.791   6.654  0.1856  0.2807 -0.7716
  139OSM    H3S15151   2.024   6.732   6.705 -0.8817  1.0790  1.8553
  139OSM     O315152   1.946   6.739   6.525  0.4844 -0.4137  0.1435
  139OSM    HO315153   1.997   6.801   6.472  1.2421 -2.1983 -1.2690
  139OSM    C4S15154   1.810   6.776   6.716 -0.4893 -0.4724 -0.3260
  139OSM    H4S15155   1.727   6.795   6.646  0.5633  2.0482 -0.9432
  139OSM    C5S15156   1.792   6.732   6.843  0.1073  0.0117  0.2273
  139OSM    H5S15157   1.869   6.701   6.915  0.6480 -0.8379 -0.7095
  139OSM    C6S15158   1.653   6.704   6.898 -0.2777  0.0553 -0.0827
  139OSM    H6S15159   1.646   6.594   6.906  0.4594  0.1728  2.5007
  139OSM    H6T15160   1.565   6.742   6.841 -2.6863 -1.1748  2.6696
  139OSM    C7S15161   1.621   6.748   7.043 -0.6609 -0.5882  0.0396
  139OSM    H7S15162   1.512   6.753   7.063 -0.3336  0.6608  1.6743
  139OSM    H7T15163   1.666   6.845   7.074  0.2614 -0.7038 -0.9070
  139OSM    C8S15164   1.675   6.654   7.152  0.1036 -0.2796  0.0274
  139OSM    H8S15165   1.786   6.660   7.160  0.0875 -0.5789  0.4909
  139OSM    H8T15166   1.650   6.551   7.119 -2.1908  0.1716  0.2833
  139OSM    C9S15167   1.627   6.693   7.292 -0.4363  1.0117  0.2883
  139OSM    H9S15168   1.522   6.662   7.309 -0.3717  0.2336 -0.7458
  139OSM    H9T15169   1.641   6.804   7.291 -1.3410  1.1305 -1.4955
  139OSM   C10S15170   1.709   6.618   7.402  0.6330 -0.0444 -0.7951
  139OSM   H10S15171   1.819   6.626   7.390  1.1756 -2.2002  2.2234
  139OSM   H10T15172   1.696   6.509   7.385 -0.8927 -0.0250  0.2069
  139OSM   C11S15173   1.661   6.656   7.544 -0.0163  0.4758 -0.4757
  139OSM   H11S15174   1.551   6.659   7.561  0.3029  0.8429  1.6512
  139OSM   H11T15175   1.694   6.759   7.569  2.5676 -0.7910  1.5464
  139OSM   C12S15176   1.721   6.564   7.652  0.8747 -0.0321 -0.3216
  139OSM   H12S15177   1.831   6.568   7.667  1.0737 -3.4617 -0.2937
  139OSM   H12T15178   1.711   6.459   7.617 -1.4543 -0.1236  0.5556
  139OSM   C13S15179   1.660   6.575   7.789 -0.2010  0.2554  0.1296
  139OSM   H13S15180   1.558   6.531   7.789  0.3964 -1.1762 -0.3754
  139OSM   H13T15181   1.650   6.682   7.816  2.3876  0.0704  1.8675
  139OSM   C14S15182   1.736   6.501   7.895  0.7007  0.4942  0.4354
  139OSM   H14S15183   1.833   6.553   7.911  0.2877  1.4117  0.0119
  139OSM   H14T15184   1.752   6.398   7.856  1.3530  0.7342  0.0425
  139OSM   C15S15185   1.672   6.493   8.037 -0.9555  0.5620 -0.1333
  139OSM   H15S15186   1.568   6.455   8.027 -1.1884  0.7489  1.4619
  139OSM   H15T15187   1.657   6.587   8.093  1.6436  0.6495  0.4808
  139OSM   C16S15188   1.754   6.400   8.126 -0.2636 -0.3653  0.5059
  139OSM   H16S15189   1.850   6.451   8.151 -0.4058 -0.2272  0.7721
  139OSM   H16T15190   1.758   6.310   8.062  0.3859  0.1959 -0.2491
  139OSM   C17S15191   1.679   6.373   8.261 -0.3190  0.2106 -0.2065
  139OSM   H17S15192   1.574   6.347   8.236  0.0153 -0.5799 -0.7766
  139OSM   H17T15193   1.678   6.474   8.309 -0.3843 -1.1217  2.7308
  139OSM   C18S15194   1.747   6.278   8.345 -0.4311 -0.3351  0.0364
  139OSM   H18S15195   1.847   6.317   8.371 -0.3514 -0.7975  0.4184
  139OSM   H18T15196   1.767   6.185   8.288  2.6197  0.1261  0.2495
  139OSM   H18U15197   1.694   6.258   8.440  1.0627 -1.4893  0.6471
  139OSM    C1F15198   2.039   7.109   6.819  0.1781  1.2938 -0.0321
  139OSM     OF15199   1.999   7.196   6.744 -0.0413  0.0143 -0.3143
  139OSM    C2F15200   2.127   7.140   6.938 -0.4268 -0.4595 -0.5478
  139OSM    H2F15201   2.216   7.075   6.934  0.0082 -0.0565  1.6259
  139OSM    H2G15202   2.069   7.128   7.032  0.6836  1.4057  0.4194
  139OSM    C3F15203   2.188   7.288   6.942  0.2378 -0.1114  0.0632
  139OSM    H3F15204   2.121   7.362   6.893 -0.7266 -0.2726  1.1292
  139OSM    H3G15205   2.274   7.286   6.872  0.0914  0.8763 -0.1473
  139OSM    C4F15206   2.228   7.340   7.080  0.0173  0.2097  0.1031
  139OSM    H4F15207   2.145   7.317   7.151 -0.1118  1.9423  0.5429
  139OSM    H4G15208   2.243   7.450   7.080  0.3918  0.1564 -0.7656
  139OSM    C5F15209   2.357   7.274   7.132  0.9633  0.6427  0.0367
  139OSM    H5F15210   2.446   7.304   7.072  0.7670  1.6091  0.2183
  139OSM    H5G15211   2.352   7.163   7.123  1.0250  0.6970 -0.7099
  139OSM    C6F15212   2.391   7.291   7.276 -0.8564 -0.2075 -0.7163
  139OSM    H6F15213   2.325   7.243   7.351 -0.6133 -1.0081 -1.0009
  139OSM    H6G15214   2.374   7.395   7.310 -3.5673 -0.8462 -0.0097
  139OSM    C7F15215   2.541   7.247   7.302  0.1892 -0.8920  0.4300
  139OSM    H7F15216   2.590   7.317   7.231 -1.2066  0.2296  0.5590
  139OSM    H7G15217   2.556   7.144   7.263 -0.3295 -0.9037  0.2568
  139OSM    C8F15218   2.597   7.260   7.436 -0.0363  0.7318  0.4446
  139OSM    H8F15219   2.579   7.367   7.459 -1.8272  0.4540  0.3850
  139OSM    H8G15220   2.707   7.245   7.429 -0.2420 -1.5713  1.6499
  139OSM    C9F15221   2.530   7.173   7.541  0.6678  0.1875 -0.0637
  139OSM    H9F15222   2.527   7.066   7.514 -0.6082  0.7872 -2.5210
  139OSM   C10F15223   2.498   7.211   7.667  0.9083  0.1144 -0.4544
  139OSM   H10F15224   2.438   7.142   7.728 -0.9205  2.3044  0.2631
  139OSM   C11F15225   2.519   7.351   7.727  0.1713  0.5285 -0.0175
  139OSM   H11F15226   2.426   7.392   7.772 -0.1860 -0.8670  0.5709
  139OSM   H11G15227   2.541   7.423   7.646 -1.3193 -1.8818 -2.6938
  139OSM   C12F15228   2.632   7.354   7.830 -0.1267  0.1544 -0.9543
  139OSM   H12F15229   2.726   7.344   7.772  0.8378  0.4490  0.5306
  139OSM   H12G15230   2.624   7.259   7.887 -1.4473  0.7374 -0.1361
  139OSM   C13F15231   2.646   7.478   7.924  0.8301 -0.2112 -0.4594
  139OSM   H13F15232   2.745   7.489   7.973 -0.4653  0.9351  2.0390
  139OSM   H13G15233   2.582   7.460   8.013  0.7517  0.3631 -0.3939
  139OSM   C14F15234   2.595   7.616   7.860 -0.4105  0.7946 -0.3663
  139OSM   H14F15235   2.491   7.594   7.828  0.1031 -1.8810 -0.3246
  139OSM   H14G15236   2.656   7.646   7.772  1.2637  2.0619  1.1934
  139OSM   C15F15237   2.606   7.738   7.952 -0.0039  0.6010  0.3213
  139OSM   H15F15238   2.713   7.766   7.946  0.0483  0.3078 -0.1206
  139OSM   H15G15239   2.580   7.705   8.055 -0.7745  0.7910  0.1922
  139OSM   C16F15240   2.536   7.868   7.897 -0.0701  0.9665  0.5464
  139OSM   H16F15241   2.434   7.863   7.940 -0.1046 -0.6218  0.3105
  139OSM   H16G15242   2.527   7.870   7.786 -1.8011 -3.4369  0.5024
  139OSM   C17F15243   2.596   8.003   7.941 -0.4724  0.8456  0.0224
  139OSM   H17F15244   2.702   8.006   7.908 -0.4233 -0.4462  0.0489
  139OSM   H17G15245   2.581   8.019   8.050  3.4233 -1.9454  1.0708
  139OSM   C18F15246   2.514   8.115   7.871  0.0974 -0.1890  0.2144
  139OSM   H18F15247   2.533   8.221   7.898  0.0580  0.1119 -0.9167
  139OSM   H18G15248   2.405   8.109   7.893  0.2657 -0.0340  1.0989
  139OSM   H18H15249   2.522   8.108   7.760 -2.4135 -0.6487  0.0279
  140OSM      N15250   1.979   1.920   6.190 -0.3283  0.6578  0.4250
  140OSM    C1515251   2.060   2.028   6.121  0.3963 -0.5121  0.2013
  140OSM   H15A15252   2.037   2.046   6.017  0.7651  0.1799  0.2361
  140OSM   H15B15253   2.163   1.996   6.123 -0.1618 -2.5253 -1.1899
  140OSM   H15C15254   2.049   2.120   6.177 -0.0575  0.8873 -2.1213
  140OSM    C1415255   1.833   1.968   6.194  0.0948  0.0697  0.0966
  140OSM   H14A15256   1.826   2.053   6.261 -1.1960  1.5487 -1.8782
  140OSM   H14B15257   1.761   1.898   6.234 -0.6585  1.7003  1.6927
  140OSM   H14C15258   1.807   2.019   6.103 -0.4997 -1.2691 -0.5002
  140OSM    C1315259   1.993   1.800   6.098 -0.6871  0.4527 -0.3780
  140OSM   H13A15260   2.094   1.764   6.102 -0.3699  1.3769  0.1438
  140OSM   H13B15261   1.979   1.834   5.997  3.3473  2.1591 -0.4476
  140OSM   H13C15262   1.916   1.725   6.110 -1.8175  1.1930 -2.7021
  140OSM    C1215263   2.032   1.900   6.328  0.1215  0.3060  0.3964
  140OSM   H12A15264   1.963   1.836   6.382 -2.0173  0.4339 -2.1174
  140OSM   H12B15265   2.038   1.993   6.383  2.0521 -0.1868  1.0635
  140OSM    C1115266   2.184   1.855   6.326  0.2786  0.3036 -0.0354
  140OSM   H11A15267   2.185   1.752   6.284  1.3723 -1.7367  4.6046
  140OSM   H11B15268   2.218   1.838   6.431 -0.3171 -1.4521 -0.1154
  140OSM      P15269   2.422   1.907   6.243  0.0511 -0.0232 -0.1359
  140OSM    O1315270   2.443   1.761   6.218 -0.1058 -0.0163 -0.2579
  140OSM    O1415271   2.474   2.010   6.148 -0.4646 -0.1835 -0.2348
  140OSM    O1115272   2.469   1.944   6.398  0.3140 -0.0905 -0.1263
  140OSM    O1215273   2.272   1.937   6.252 -0.3860  0.1705  0.3309
  140OSM    C1S15274   2.608   1.966   6.424  0.2014 -0.2147  0.0219
  140OSM    H1S15275   2.652   2.046   6.361  0.5588 -0.0352  0.4884
  140OSM    H1T15276   2.661   1.872   6.399 -0.8661 -0.6717 -0.5344
  140OSM     NF15277   2.776   1.989   6.609 -0.3230 -0.0827  0.0586
  140OSM    HNF15278   2.811   1.900   6.634  0.4289 -0.4748 -2.2885
  140OSM    C2S15279   2.637   1.998   6.578  0.2486 -0.4322 -0.1116
  140OSM    H2S15280   2.601   2.102   6.597 -0.7954 -0.9785  1.0143
  140OSM    C3S15281   2.552   1.912   6.664  0.5162 -0.2562  0.1236
  140OSM    H3S15282   2.573   1.808   6.633  0.0170 -0.5788  0.8645
  140OSM     O315283   2.416   1.946   6.651  0.0973  0.6838  0.0784
  140OSM    HO315284   2.411   1.963   6.557 -1.1138  2.1320  0.3809
  140OSM    C4S15285   2.581   1.910   6.810 -0.1621  0.7785  0.7932
  140OSM    H4S15286   2.549   1.997   6.869  1.5235  2.3638 -0.5813
  140OSM    C5S15287   2.639   1.808   6.871 -0.2233  1.3896 -1.1587
  140OSM    H5S15288   2.663   1.710   6.829  0.9331  0.9195  0.5345
  140OSM    C6S15289   2.669   1.821   7.016 -0.3847 -0.1096  0.4024
  140OSM    H6S15290   2.771   1.783   7.036 -0.3126  0.9146  2.0917
  140OSM    H6T15291   2.595   1.761   7.073  0.7692 -0.5216  1.4915
  140OSM    C7S15292   2.664   1.963   7.077 -0.3281 -0.2533 -0.3036
  140OSM    H7S15293   2.567   2.014   7.060 -0.3807  0.1858  1.2392
  140OSM    H7T15294   2.748   2.020   7.031  0.0037  0.1583  0.7802
  140OSM    C8S15295   2.678   1.975   7.232  0.2580 -0.6685  0.6791
  140OSM    H8S15296   2.787   1.978   7.251  0.2634 -3.0373  1.2051
  140OSM    H8T15297   2.639   1.886   7.285  1.9657 -1.7877  0.0928
  140OSM    C9S15298   2.606   2.095   7.305  0.3307 -0.2769  0.0874
  140OSM    H9S15299   2.500   2.115   7.279 -0.0753 -0.9898  1.1420
  140OSM    H9T15300   2.658   2.190   7.283 -1.3739  0.8227  0.7111
  140OSM   C10S15301   2.623   2.089   7.459  0.3220 -0.2724  0.6063
  140OSM   H10S15302   2.731   2.102   7.484  0.8367  1.1839 -2.2245
  140OSM   H10T15303   2.595   1.985   7.485  1.0946 -0.5602  0.3130
  140OSM   C11S15304   2.535   2.183   7.538  0.1120 -0.7178 -0.9322
  140OSM   H11S15305   2.434   2.196   7.492 -0.9556 -0.7112  1.3341
  140OSM   H11T15306   2.582   2.284   7.546  2.0372 -1.4919 -2.3815
  140OSM   C12S15307   2.527   2.140   7.689  0.1812 -0.3057  0.2170
  140OSM   H12S15308   2.629   2.131   7.730  0.6296 -0.2905 -0.8752
  140OSM   H12T15309   2.472   2.044   7.703  2.6913 -1.8470 -0.2603
  140OSM   C13S15310   2.465   2.255   7.768  0.5460  0.8970 -0.6032
  140OSM   H13S15311   2.357   2.259   7.744  0.1802  1.1991  1.0523
  140OSM   H13T15312   2.513   2.353   7.751  1.3123  1.0355  2.1147
  140OSM   C14S15313   2.466   2.205   7.916  0.3529  0.2801 -0.0183
  140OSM   H14S15314   2.569   2.187   7.951  0.6793  0.0294 -1.0803
  140OSM   H14T15315   2.406   2.112   7.924  1.0652 -0.0773  1.2038
  140OSM   C15S15316   2.396   2.305   8.007 -0.7930  1.1789  0.0127
  140OSM   H15S15317   2.305   2.348   7.958 -1.5170 -0.0928  0.2329
  140OSM   H15T15318   2.474   2.382   8.028  1.9888 -1.5961  0.1117
  140OSM   C16S15319   2.358   2.251   8.143 -0.9962 -0.4277  0.1115
  140OSM   H16S15320   2.346   2.335   8.214  0.0930 -1.2774  1.3179
  140OSM   H16T15321   2.438   2.188   8.187 -0.4802  1.3881  1.8122
  140OSM   C17S15322   2.222   2.178   8.130  0.0191  0.0580  0.2537
  140OSM   H17S15323   2.239   2.084   8.074 -2.0788 -0.9277  1.2015
  140OSM   H17T15324   2.153   2.238   8.067 -0.8031  0.1342  1.2107
  140OSM   C18S15325   2.155   2.146   8.258 -0.0301 -0.0173 -0.0466
  140OSM   H18S15326   2.061   2.089   8.239 -0.7544  1.7568 -1.9223
  140OSM   H18T15327   2.140   2.235   8.323  0.2688 -1.9699  2.7946
  140OSM   H18U15328   2.218   2.074   8.314 -1.4016 -0.6326  0.7609
  140OSM    C1F15329   2.864   2.068   6.556  0.4329 -0.0975  0.0065
  140OSM     OF15330   2.825   2.173   6.508  0.1543  0.1981 -0.1584
  140OSM    C2F15331   3.006   2.044   6.559  0.0021 -0.4250  0.7655
  140OSM    H2F15332   3.054   2.104   6.479  0.0544  1.0638  1.8954
  140OSM    H2G15333   3.029   1.937   6.537 -0.2492 -0.2715 -0.2668
  140OSM    C3F15334   3.083   2.080   6.692  0.4769  0.6542 -0.5350
  140OSM    H3F15335   3.090   2.191   6.702  1.9149  0.3827  1.6261
  140OSM    H3G15336   3.187   2.054   6.664  0.7015  0.1015  0.8103
  140OSM    C4F15337   3.024   2.013   6.817 -0.1231 -0.0819  0.5979
  140OSM    H4F15338   3.005   1.908   6.785  1.2277  0.2972 -1.5657
  140OSM    H4G15339   2.921   2.050   6.836 -0.7238 -1.2466 -0.2433
  140OSM    C5F15340   3.118   2.002   6.939 -0.0592 -0.9460 -0.3914
  140OSM    H5F15341   3.162   2.102   6.958 -1.6090 -0.2729 -0.2537
  140OSM    H5G15342   3.203   1.934   6.917 -1.3967 -2.8062 -0.0045
  140OSM    C6F15343   3.039   1.953   7.068  0.1080 -0.0509 -0.1649
  140OSM    H6F15344   2.982   1.867   7.027 -0.5667  1.3795 -2.3104
  140OSM    H6G15345   2.970   2.027   7.114  0.8575 -0.7166  2.1252
  140OSM    C7F15346   3.138   1.907   7.177  0.1473 -0.3229 -0.1742
  140OSM    H7F15347   3.214   1.836   7.140  1.3007 -0.1030  1.7206
  140OSM    H7G15348   3.070   1.860   7.251  1.9685 -0.1283  1.6586
  140OSM    C8F15349   3.210   2.027   7.243 -0.1772  0.4707 -0.1471
  140OSM    H8F15350   3.253   2.087   7.160 -2.5885  0.4504 -1.4633
  140OSM    H8G15351   3.301   1.989   7.294  1.6346  2.9198 -1.4340
  140OSM    C9F15352   3.126   2.116   7.327  0.7897  0.7092 -0.3323
  140OSM    H9F15353   3.071   2.186   7.261 -1.4426 -1.6545 -1.0693
  140OSM   C10F15354   3.102   2.119   7.463 -0.6053  0.3061 -0.1042
  140OSM   H10F15355   3.049   2.200   7.514 -0.1956 -0.2426  1.1940
  140OSM   C11F15356   3.163   2.015   7.555  0.1293  0.0783 -0.3639
  140OSM   H11F15357   3.217   2.063   7.639 -0.2563  1.9199 -1.1444
  140OSM   H11G15358   3.230   1.937   7.513 -0.8239 -1.6099  1.1867
  140OSM   C12F15359   3.061   1.926   7.630 -0.2097  0.2945 -0.4296
  140OSM   H12F15360   3.108   1.827   7.653 -0.7041 -0.3087 -1.9471
  140OSM   H12G15361   2.979   1.897   7.561  1.1336 -1.6631 -1.2631
  140OSM   C13F15362   3.019   1.980   7.765  0.5927 -0.6666  0.1159
  140OSM   H13F15363   2.909   1.971   7.781 -0.3118  4.7989 -1.9317
  140OSM   H13G15364   3.047   2.087   7.780  0.2957 -0.6024  0.2255
  140OSM   C14F15365   3.077   1.898   7.885  0.0160 -0.7985 -0.2496
  140OSM   H14F15366   3.185   1.882   7.866  0.2318  1.5137 -1.0435
  140OSM   H14G15367   3.027   1.800   7.903  0.3077 -0.4079  2.9887
  140OSM   C15F15368   3.070   1.970   8.019  0.4993 -0.3223 -0.1099
  140OSM   H15F15369   3.143   2.053   8.026 -0.5599  0.6729 -0.5405
  140OSM   H15G15370   3.070   1.903   8.107  0.8284 -0.1875 -0.0087
  140OSM   C16F15371   2.933   2.043   8.042  0.0563 -0.3593  0.4344
  140OSM   H16F15372   2.850   1.979   8.007  1.4732 -0.6389 -2.6362
  140OSM   H16G15373   2.937   2.138   7.984 -1.4034 -1.2101 -1.0986
  140OSM   C17F15374   2.918   2.095   8.186  0.0829 -0.7654 -0.1147
  140OSM   H17F15375   2.997   2.168   8.210 -0.6771  0.2005 -0.5184
  140OSM   H17G15376   2.917   2.011   8.259 -0.1652 -1.0836 -0.4819
  140OSM   C18F15377   2.787   2.171   8.210  0.4307 -0.2290  0.3728
  140OSM   H18F15378   2.817   2.277   8.195 -1.3829  0.4056  1.0930
  140OSM   H18G15379   2.750   2.153   8.313  1.9484  0.4315  1.0519
  140OSM   H18H15380   2.710   2.143   8.136  0.1056 -0.6663  0.8792
  141OSM      N15381   1.557   3.791   6.043 -0.0165 -0.2912 -0.4220
  141OSM    C1515382   1.506   3.673   6.123 -0.2104  0.3082  0.5260
  141OSM   H15A15383   1.509   3.581   6.066 -1.3588 -0.4206  1.6090
  141OSM   H15B15384   1.405   3.695   6.156 -1.0349 -0.3549 -1.4903
  141OSM   H15C15385   1.551   3.658   6.220 -3.1367 -2.7691  1.5532
  141OSM    C1415386   1.507   3.807   5.902 -1.0221  0.2394  0.2539
  141OSM   H14A15387   1.399   3.803   5.897 -0.9437  0.1773 -1.8624
  141OSM   H14B15388   1.557   3.728   5.848  1.1265  2.9469 -1.8858
  141OSM   H14C15389   1.548   3.900   5.866  1.6428 -0.7802  0.5479
  141OSM    C1315390   1.533   3.912   6.126  0.4296 -0.4342  0.1508
  141OSM   H13A15391   1.593   3.991   6.083  0.0753  0.8276  1.8934
  141OSM   H13B15392   1.545   3.908   6.233 -0.6640  1.7213  0.3896
  141OSM   H13C15393   1.432   3.948   6.113 -0.1571 -2.5179 -1.1684
  141OSM    C1215394   1.713   3.780   6.038 -0.2363 -0.0148 -0.4479
  141OSM   H12A15395   1.735   3.682   5.997 -3.3818 -1.3157  0.7995
  141OSM   H12B15396   1.748   3.774   6.140 -1.1670  1.0410 -0.0528
  141OSM    C1115397   1.800   3.892   5.974 -0.5170  0.4626  0.8161
  141OSM   H11A15398   1.757   3.913   5.874  0.2280 -0.6226  0.2629
  141OSM   H11B15399   1.903   3.860   5.950 -0.7301 -1.1109  1.9271
  141OSM      P15400   1.905   4.031   6.155 -0.1615 -0.1137 -0.1473
  141OSM    O1315401   2.043   4.044   6.099 -0.0179 -0.0542 -0.2091
  141OSM    O1415402   1.844   4.139   6.235 -0.5510  0.3651 -0.6864
  141OSM    O1115403   1.892   3.886   6.226  0.6896 -0.3124 -0.0593
  141OSM    O1215404   1.809   4.010   6.038 -0.0521 -0.3980  0.5647
  141OSM    C1S15405   1.983   3.852   6.333  0.6545  0.7196 -0.6600
  141OSM    H1S15406   2.091   3.864   6.310  0.3155 -2.5004 -4.4609
  141OSM    H1T15407   1.972   3.746   6.363 -0.3592  0.7621 -0.8827
  141OSM     NF15408   2.061   3.935   6.559  0.1695 -0.3890 -0.5521
  141OSM    HNF15409   2.045   3.873   6.636 -0.5709  0.7816  0.2452
  141OSM    C2S15410   1.947   3.920   6.472 -0.6520 -0.8469 -0.4618
  141OSM    H2S15411   1.918   4.024   6.448  0.7433 -0.3318  0.0913
  141OSM    C3S15412   1.826   3.838   6.525 -0.4811  0.0217  0.0977
  141OSM    H3S15413   1.857   3.736   6.555 -1.3620 -0.1802  0.3188
  141OSM     O315414   1.723   3.814   6.430  0.4466  0.2227  0.1654
  141OSM    HO315415   1.752   3.833   6.341  1.8415  0.6494  0.7113
  141OSM    C4S15416   1.769   3.898   6.655 -0.3765  1.4870 -0.2621
  141OSM    H4S15417   1.822   3.852   6.740  3.1839  0.8119 -2.7063
  141OSM    C5S15418   1.663   3.972   6.681 -0.2260 -0.2011  0.2625
  141OSM    H5S15419   1.602   4.014   6.600  2.6300  0.6745 -1.5075
  141OSM    C6S15420   1.609   4.009   6.815 -0.3171 -0.9741 -0.3090
  141OSM    H6S15421   1.504   3.972   6.819 -0.4015 -0.8153 -0.9921
  141OSM    H6T15422   1.608   4.120   6.807  1.6638 -0.7193  2.3204
  141OSM    C7S15423   1.677   3.943   6.930 -0.6216  0.0689 -0.0039
  141OSM    H7S15424   1.784   3.975   6.934 -0.4021  0.1568 -4.0937
  141OSM    H7T15425   1.673   3.833   6.938  1.7531 -0.0863 -0.3154
  141OSM    C8S15426   1.617   3.999   7.064 -0.7170  0.0779  0.3117
  141OSM    H8S15427   1.512   3.964   7.059 -0.8382  0.5664 -0.6903
  141OSM    H8T15428   1.621   4.110   7.059 -1.1064  0.0465 -0.7647
  141OSM    C9S15429   1.683   3.946   7.193 -0.1752  0.4459  0.2871
  141OSM    H9S15430   1.789   3.976   7.203  0.5307 -1.2158 -1.7558
  141OSM    H9T15431   1.681   3.835   7.199  2.2679  0.4286  1.2251
  141OSM   C10S15432   1.606   3.977   7.324  0.4166  0.3116 -0.2313
  141OSM   H10S15433   1.505   3.931   7.323 -0.2035  1.6764 -1.5895
  141OSM   H10T15434   1.598   4.088   7.317  1.1170  0.2802 -1.7096
  141OSM   C11S15435   1.697   3.942   7.442 -0.6777 -0.2031  0.4101
  141OSM   H11S15436   1.782   4.013   7.430 -1.4475  0.4303 -1.4518
  141OSM   H11T15437   1.737   3.838   7.434 -1.4084 -0.6072  1.7972
  141OSM   C12S15438   1.628   3.973   7.580  0.3228  0.2223 -0.3135
  141OSM   H12S15439   1.568   3.885   7.613 -0.4707  0.6836 -0.5190
  141OSM   H12T15440   1.555   4.048   7.545  0.8292  1.4909  1.3144
  141OSM   C13S15441   1.725   4.009   7.694 -0.1549  0.4655 -0.0677
  141OSM   H13S15442   1.766   4.111   7.676 -1.8694  1.0802 -0.5632
  141OSM   H13T15443   1.806   3.935   7.679 -1.6964 -1.2023 -0.2662
  141OSM   C14S15444   1.655   3.986   7.829 -0.0890 -0.1352  0.6387
  141OSM   H14S15445   1.615   3.882   7.825  0.7370 -0.4014 -1.2691
  141OSM   H14T15446   1.571   4.058   7.840  0.3329  0.8265 -2.1035
  141OSM   C15S15447   1.742   4.007   7.945 -0.1050  0.4237 -0.3234
  141OSM   H15S15448   1.792   4.105   7.931  2.6879 -0.8970  0.1270
  141OSM   H15T15449   1.825   3.934   7.958 -2.1222 -1.7989  0.4836
  141OSM   C16S15450   1.662   4.014   8.073 -0.6549 -1.0546  0.2220
  141OSM   H16S15451   1.585   3.934   8.079 -1.9450  0.1435 -0.1617
  141OSM   H16T15452   1.607   4.110   8.082 -0.3302 -0.9540  1.3356
  141OSM   C17S15453   1.759   4.012   8.195 -1.0888  0.7447  0.2363
  141OSM   H17S15454   1.820   4.103   8.177 -0.4150 -0.1552 -2.2713
  141OSM   H17T15455   1.837   3.933   8.186  0.4067  2.3660 -1.3984
  141OSM   C18S15456   1.692   4.007   8.328 -0.0687  0.3991  0.5733
  141OSM   H18S15457   1.610   3.932   8.329  0.1277  0.1732 -0.0695
  141OSM   H18T15458   1.643   4.105   8.350 -0.7964 -0.2019  1.6946
  141OSM   H18U15459   1.757   3.988   8.416  2.2003  0.0320 -1.1148
  141OSM    C1F15460   2.164   4.020   6.540  0.5264 -0.1023  0.1912
  141OSM     OF15461   2.166   4.093   6.441  0.5860 -0.1479  0.6833
  141OSM    C2F15462   2.275   4.020   6.644 -0.6007 -0.5160 -0.0508
  141OSM    H2F15463   2.366   3.967   6.610 -0.9031 -0.8066 -0.4102
  141OSM    H2G15464   2.245   3.950   6.725 -1.9628  0.0758 -0.0245
  141OSM    C3F15465   2.308   4.165   6.682  1.0058 -0.4531 -0.2841
  141OSM    H3F15466   2.224   4.219   6.730  2.1366  1.3262 -0.2452
  141OSM    H3G15467   2.326   4.222   6.589 -1.6751  0.7779 -0.0716
  141OSM    C4F15468   2.428   4.194   6.784  0.3679  0.1400 -0.6020
  141OSM    H4F15469   2.442   4.304   6.777 -1.5964  0.5601  1.4275
  141OSM    H4G15470   2.515   4.137   6.746 -1.4666 -2.6426 -0.7380
  141OSM    C5F15471   2.408   4.145   6.932 -0.4051 -0.0429  0.3249
  141OSM    H5F15472   2.388   4.036   6.933 -0.8113 -0.0014 -1.7594
  141OSM    H5G15473   2.320   4.192   6.980  0.1446  0.8203  0.4944
  141OSM    C6F15474   2.528   4.170   7.020  0.1205 -0.0488 -0.3099
  141OSM    H6F15475   2.574   4.271   7.012 -2.6499  1.2813  0.2005
  141OSM    H6G15476   2.609   4.097   6.999 -0.2607 -0.9892  1.4153
  141OSM    C7F15477   2.510   4.142   7.176  0.7161 -0.5108 -0.5919
  141OSM    H7F15478   2.605   4.109   7.223  0.6050  2.1888  1.6749
  141OSM    H7G15479   2.444   4.053   7.188  1.0839 -0.6523  0.3758
  141OSM    C8F15480   2.468   4.268   7.255  0.3056 -0.0563 -0.1610
  141OSM    H8F15481   2.442   4.237   7.358 -0.3903 -0.8941 -0.5823
  141OSM    H8G15482   2.377   4.314   7.211 -0.1011 -1.2192 -0.5363
  141OSM    C9F15483   2.567   4.383   7.263  0.0496 -0.3158  0.2153
  141OSM    H9F15484   2.586   4.431   7.166  0.8717 -0.5046  0.2804
  141OSM   C10F15485   2.645   4.423   7.368 -0.5499 -0.2426  0.8236
  141OSM   H10F15486   2.715   4.508   7.360 -0.3686 -0.5053 -0.4457
  141OSM   C11F15487   2.647   4.348   7.495  0.7012 -0.2320  0.0344
  141OSM   H11F15488   2.748   4.353   7.543  0.6988  1.4011 -0.1137
  141OSM   H11G15489   2.611   4.245   7.476 -1.5798  0.4704  0.4606
  141OSM   C12F15490   2.569   4.416   7.608  0.5393  0.1462  0.4746
  141OSM   H12F15491   2.468   4.436   7.566  0.5816  1.9815  1.2102
  141OSM   H12G15492   2.620   4.506   7.648  1.7765  0.3416 -1.4809
  141OSM   C13F15493   2.551   4.332   7.728 -0.6452  0.4127  0.1768
  141OSM   H13F15494   2.654   4.318   7.765 -0.3063 -1.8104 -1.5225
  141OSM   H13G15495   2.513   4.233   7.695 -0.3499  0.3685 -0.0338
  141OSM   C14F15496   2.458   4.377   7.842  0.3338 -0.7856  0.2515
  141OSM   H14F15497   2.363   4.408   7.794  1.0938 -0.0089 -0.7692
  141OSM   H14G15498   2.506   4.465   7.891 -1.9136  2.2399 -2.7482
  141OSM   C15F15499   2.416   4.272   7.936 -0.3621 -1.0690 -0.3284
  141OSM   H15F15500   2.509   4.223   7.972 -0.5635 -0.7138  0.6910
  141OSM   H15G15501   2.352   4.194   7.891 -1.1442  0.3989 -1.8098
  141OSM   C16F15502   2.335   4.331   8.054  0.7028  0.0752  0.1167
  141OSM   H16F15503   2.249   4.379   8.001 -0.8315 -0.1452  2.3283
  141OSM   H16G15504   2.383   4.417   8.106 -0.3249  0.0847  1.0734
  141OSM   C17F15505   2.260   4.220   8.136  0.0116 -0.9061  0.2168
  141OSM   H17F15506   2.330   4.151   8.188 -1.6852 -2.9426 -0.1730
  141OSM   H17G15507   2.196   4.168   8.062 -1.0630  0.7954 -0.0672
  141OSM   C18F15508   2.179   4.280   8.253 -0.4556 -0.3035  0.1238
  141OSM   H18F15509   2.134   4.204   8.320 -0.5796 -0.7800 -0.4911
  141OSM   H18G15510   2.107   4.356   8.214  0.4837  0.5851  0.0895
  141OSM   H18H15511   2.238   4.348   8.319 -0.3864  2.1152 -2.3230
  142OSM      N15512   1.822   6.120   5.806 -0.3097 -0.6176 -0.7800
  142OSM    C1515513   1.788   6.056   5.934 -0.6142  0.1631 -0.4399
  142OSM   H15A15514   1.723   5.973   5.911 -0.0441 -0.8408  1.4576
  142OSM   H15B15515   1.733   6.127   5.995  1.9702 -0.0093  2.2156
  142OSM   H15C15516   1.872   6.022   5.991 -1.6712  0.0831  1.1138
  142OSM    C1415517   1.697   6.111   5.722 -0.5777 -0.1076 -0.2228
  142OSM   H14A15518   1.726   6.099   5.618 -1.9680  1.0070 -0.7481
  142OSM   H14B15519   1.649   6.207   5.722 -1.0055 -0.3110 -1.2901
  142OSM   H14C15520   1.634   6.032   5.761 -0.0634  0.9485  2.8620
  142OSM    C1315521   1.873   6.257   5.813  0.6070  0.3029 -0.6946
  142OSM   H13A15522   1.817   6.294   5.898  3.1826 -0.0605  1.2448
  142OSM   H13B15523   1.858   6.313   5.722 -0.8787 -0.2563 -0.7903
  142OSM   H13C15524   1.979   6.257   5.836  0.8478  0.2873 -1.7962
  142OSM    C1215525   1.922   6.030   5.745 -0.0435 -0.3538 -0.1784
  142OSM   H12A15526   1.939   6.053   5.641  0.4902 -2.0865 -0.4887
  142OSM   H12B15527   1.889   5.928   5.748  0.0505 -0.3752  0.1461
  142OSM    C1115528   2.062   6.023   5.816 -0.2739  0.2719  0.2997
  142OSM   H11A15529   2.109   6.124   5.817  1.7569 -0.6610  0.9216
  142OSM   H11B15530   2.139   5.969   5.758 -1.1121 -0.9727  0.3393
  142OSM      P15531   2.146   6.025   6.064  0.0216 -0.0199  0.3409
  142OSM    O1315532   2.286   6.012   6.018  0.2233 -0.5946  0.3233
  142OSM    O1415533   2.104   6.157   6.094  0.4718 -0.4209 -0.7509
  142OSM    O1115534   2.114   5.921   6.180  1.0951 -0.2583 -0.2536
  142OSM    O1215535   2.050   5.967   5.951 -0.1821 -0.9138 -0.3578
  142OSM    C1S15536   2.217   5.900   6.277  0.1583 -0.1799 -0.1946
  142OSM    H1S15537   2.312   5.949   6.249 -0.8103  0.0586 -3.3210
  142OSM    H1T15538   2.247   5.794   6.291  0.9896  0.2561  1.5004
  142OSM     NF15539   2.283   5.965   6.513 -0.0542 -0.1953  0.7640
  142OSM    HNF15540   2.311   5.887   6.568  1.8130  0.0768  0.2027
  142OSM    C2S15541   2.169   5.943   6.425 -0.2996  0.6262 -0.2329
  142OSM    H2S15542   2.112   6.036   6.405  0.3866  1.2345  0.6446
  142OSM    C3S15543   2.059   5.843   6.472 -0.7396 -0.0689  0.2611
  142OSM    H3S15544   2.115   5.747   6.472 -2.8646 -1.3832 -1.5075
  142OSM     O315545   1.959   5.822   6.377 -0.1895 -0.1266  0.2457
  142OSM    HO315546   2.001   5.865   6.302 -2.8569  1.8375 -0.2105
  142OSM    C4S15547   2.005   5.879   6.609 -0.2626 -0.0386 -0.1077
  142OSM    H4S15548   1.967   5.981   6.623 -1.5049 -0.5103  0.0368
  142OSM    C5S15549   1.998   5.796   6.708 -0.5647 -0.9592  0.2745
  142OSM    H5S15550   2.020   5.689   6.704 -1.0984 -1.0493 -0.2354
  142OSM    C6S15551   1.925   5.841   6.839 -0.3944 -0.1557  0.1911
  142OSM    H6S15552   1.843   5.778   6.878 -1.2920  0.2122 -1.0748
  142OSM    H6T15553   1.888   5.946   6.839  1.9492  0.7181  1.1724
  142OSM    C7S15554   2.019   5.847   6.958  0.1797 -0.6800  0.3990
  142OSM    H7S15555   2.076   5.941   6.944 -0.1971 -0.6183 -0.7615
  142OSM    H7T15556   2.087   5.760   6.971  0.8788 -0.0774  0.7865
  142OSM    C8S15557   1.942   5.863   7.088 -0.2662 -0.5383  0.9017
  142OSM    H8S15558   1.871   5.778   7.099 -0.3460 -1.4370 -4.8893
  142OSM    H8T15559   1.889   5.961   7.083  2.1370  0.7030 -0.9648
  142OSM    C9S15560   2.025   5.860   7.214 -0.1142  0.2284 -0.1709
  142OSM    H9S15561   2.084   5.954   7.206 -1.0149  0.7913 -0.2432
  142OSM    H9T15562   2.097   5.776   7.215  1.2281  1.2557 -3.4388
  142OSM   C10S15563   1.942   5.842   7.346 -0.8145  0.3532  0.1600
  142OSM   H10S15564   1.904   5.738   7.339  0.4005 -0.1223  0.5329
  142OSM   H10T15565   1.857   5.914   7.348 -0.6294  0.6377 -1.7049
  142OSM   C11S15566   2.019   5.861   7.469  0.3285  0.1904 -0.3973
  142OSM   H11S15567   2.060   5.963   7.486 -0.1682  0.3286 -0.0305
  142OSM   H11T15568   2.104   5.789   7.479  0.3525  0.6606  3.3305
  142OSM   C12S15569   1.925   5.833   7.588  0.1052 -0.9266 -0.1353
  142OSM   H12S15570   1.872   5.735   7.584  1.2238 -1.4868 -1.7040
  142OSM   H12T15571   1.860   5.922   7.588 -0.0601 -1.0498 -0.5323
  142OSM   C13S15572   2.009   5.826   7.719  0.4171 -0.1680 -0.3272
  142OSM   H13S15573   2.077   5.913   7.735  1.5621 -1.7554  4.0410
  142OSM   H13T15574   2.070   5.734   7.719 -0.6031 -0.8519 -0.2272
  142OSM   C14S15575   1.913   5.828   7.845 -0.0583 -0.0326  0.2049
  142OSM   H14S15576   1.978   5.826   7.935  0.3812  1.3196 -0.0673
  142OSM   H14T15577   1.837   5.747   7.841 -0.7316  0.5466  0.9502
  142OSM   C15S15578   1.830   5.952   7.857  0.3252 -0.5791  0.0028
  142OSM   H15S15579   1.752   5.946   7.778 -1.3397  0.1743  1.5603
  142OSM   H15T15580   1.891   6.045   7.850  0.3769 -0.7161 -1.4203
  142OSM   C16S15581   1.759   5.962   7.985 -0.0378 -1.1362  0.0153
  142OSM   H16S15582   1.738   6.070   8.003  0.1112 -1.5509  2.9400
  142OSM   H16T15583   1.823   5.949   8.075  0.2509  1.1207  0.1765
  142OSM   C17S15584   1.638   5.866   7.996 -0.4465  0.4014  0.4820
  142OSM   H17S15585   1.653   5.759   7.970 -0.0012  0.7231 -0.5981
  142OSM   H17T15586   1.553   5.891   7.928 -1.1315 -2.1976  0.3199
  142OSM   C18S15587   1.570   5.875   8.134  0.2341 -0.1385 -0.2945
  142OSM   H18S15588   1.544   5.980   8.160  0.3052 -0.8677  2.9129
  142OSM   H18T15589   1.632   5.841   8.219 -0.8778 -1.4844 -0.0117
  142OSM   H18U15590   1.477   5.814   8.137  2.5693 -3.9729 -2.2448
  142OSM    C1F15591   2.381   6.050   6.486  0.2715 -0.2693 -0.5096
  142OSM     OF15592   2.354   6.159   6.432 -0.1651  0.4424  0.4845
  142OSM    C2F15593   2.517   6.003   6.529 -0.1150 -0.7471  0.4007
  142OSM    H2F15594   2.554   5.937   6.448  0.2199 -0.6209  0.4514
  142OSM    H2G15595   2.497   5.942   6.620 -1.4569  0.4170  0.9146
  142OSM    C3F15596   2.612   6.119   6.557  0.0185  0.2211 -0.3041
  142OSM    H3F15597   2.622   6.188   6.471 -0.5223  1.2446  0.4497
  142OSM    H3G15598   2.715   6.078   6.569  0.3126  0.9578 -0.2426
  142OSM    C4F15599   2.576   6.201   6.683 -0.7544  0.7726 -0.4193
  142OSM    H4F15600   2.510   6.281   6.644 -0.3076  1.8782  1.0358
  142OSM    H4G15601   2.665   6.260   6.715 -0.6676 -0.3859  1.5372
  142OSM    C5F15602   2.528   6.126   6.806 -0.1974 -0.2481  0.6485
  142OSM    H5F15603   2.598   6.041   6.819 -0.4770 -0.2357  2.3699
  142OSM    H5G15604   2.429   6.083   6.782  0.1975 -0.1938 -1.1664
  142OSM    C6F15605   2.528   6.215   6.934 -0.2772 -0.3447 -0.1582
  142OSM    H6F15606   2.443   6.287   6.930  2.0688  2.4884 -1.0754
  142OSM    H6G15607   2.621   6.276   6.943 -0.7796  0.3726  0.2307
  142OSM    C7F15608   2.524   6.135   7.071  0.6073 -0.1477  0.5099
  142OSM    H7F15609   2.621   6.081   7.076  1.6541  1.7819  2.1206
  142OSM    H7G15610   2.442   6.061   7.071  0.9454 -0.5453  2.1694
  142OSM    C8F15611   2.509   6.223   7.197 -0.9968  0.9342  0.1452
  142OSM    H8F15612   2.501   6.151   7.281 -0.7533 -0.6113 -1.1452
  142OSM    H8G15613   2.417   6.285   7.201 -0.9166  1.0254  0.7089
  142OSM    C9F15614   2.623   6.315   7.232  1.0560  0.4240 -0.1857
  142OSM    H9F15615   2.709   6.307   7.164  0.4798  1.3703 -1.0348
  142OSM   C10F15616   2.622   6.399   7.343  0.5993 -0.8228 -0.7702
  142OSM   H10F15617   2.717   6.449   7.367 -0.4321  0.1070  1.4777
  142OSM   C11F15618   2.508   6.404   7.445 -0.2096  0.1602 -0.0176
  142OSM   H11F15619   2.427   6.330   7.427 -0.0817  0.2913 -1.1861
  142OSM   H11G15620   2.469   6.508   7.448 -1.3450 -0.2492 -0.3285
  142OSM   C12F15621   2.566   6.371   7.590  0.2137 -0.3847 -0.0093
  142OSM   H12F15622   2.473   6.386   7.650 -0.6793 -0.6036 -1.3129
  142OSM   H12G15623   2.647   6.442   7.615  1.2755 -1.9394  1.1248
  142OSM   C13F15624   2.614   6.224   7.604  0.0153 -0.9314 -0.4314
  142OSM   H13F15625   2.712   6.210   7.552 -0.0137 -1.3424 -0.3732
  142OSM   H13G15626   2.532   6.159   7.566 -0.8454 -0.4032  0.5099
  142OSM   C14F15627   2.642   6.186   7.748  0.2256 -0.3304  0.1834
  142OSM   H14F15628   2.676   6.081   7.741 -0.4937 -0.5991  0.6168
  142OSM   H14G15629   2.548   6.196   7.807 -0.1628 -0.9569 -0.3120
  142OSM   C15F15630   2.745   6.281   7.824 -0.1544 -0.0691 -0.5417
  142OSM   H15F15631   2.708   6.385   7.827 -1.7044 -0.5558 -1.9323
  142OSM   H15G15632   2.841   6.277   7.769 -1.3422  2.2769 -2.8852
  142OSM   C16F15633   2.785   6.233   7.965 -0.6212  0.1338  0.7995
  142OSM   H16F15634   2.876   6.287   8.001  0.0653  0.6155 -1.5683
  142OSM   H16G15635   2.812   6.125   7.966 -0.0222  0.2725  0.1299
  142OSM   C17F15636   2.670   6.261   8.061 -0.0725 -0.3418  0.4395
  142OSM   H17F15637   2.593   6.313   8.000  2.1815  1.3213 -1.0899
  142OSM   H17G15638   2.698   6.328   8.145 -1.0446  1.9485 -1.0426
  142OSM   C18F15639   2.594   6.134   8.097 -0.1008 -0.3780  0.1593
  142OSM   H18F15640   2.508   6.169   8.158 -0.1901  1.1136 -0.7995
  142OSM   H18G15641   2.653   6.068   8.164  1.5734 -0.2690 -1.1783
  142OSM   H18H15642   2.554   6.083   8.007 -3.1678  2.1383 -0.0172
  143OSM      N15643   3.292   1.262   6.350  0.5893 -0.4368 -0.2387
  143OSM    C1515644   3.375   1.358   6.421 -0.8385 -0.3535  0.3672
  143OSM   H15A15645   3.478   1.333   6.400 -0.4465  1.6368 -0.1968
  143OSM   H15B15646   3.357   1.367   6.527 -0.2282 -0.9080  0.5218
  143OSM   H15C15647   3.371   1.455   6.374 -0.1644 -0.2184  0.5815
  143OSM    C1415648   3.146   1.304   6.343  0.1638 -0.3321  0.2995
  143OSM   H14A15649   3.093   1.228   6.287 -0.0995  0.2071 -0.1897
  143OSM   H14B15650   3.138   1.400   6.294  0.2481 -0.3936  0.1642
  143OSM   H14C15651   3.104   1.324   6.440  0.1776  0.4595  0.1527
  143OSM    C1315652   3.331   1.257   6.205 -0.0732  0.5238  0.0692
  143OSM   H13A15653   3.431   1.219   6.197 -0.5945 -0.4055 -2.2921
  143OSM   H13B15654   3.335   1.358   6.167  1.2352  0.5941  0.3961
  143OSM   H13C15655   3.263   1.196   6.148  2.5327 -1.1538 -1.3013
  143OSM    C1215656   3.305   1.127   6.423  0.0562  0.4877  0.4559
  143OSM   H12A15657   3.233   1.054   6.388  0.3647 -0.1721  1.1928
  143OSM   H12B15658   3.286   1.149   6.527  0.3968  0.8188  0.4516
  143OSM    C1115659   3.441   1.056   6.412  0.1838 -0.1940  0.3550
  143OSM   H11A15660   3.450   1.034   6.304  0.0459  1.9401 -0.1216
  143OSM   H11B15661   3.431   0.966   6.476 -0.7457  0.1345  0.6744
  143OSM      P15662   3.683   1.138   6.422  0.4507  0.2625 -0.1157
  143OSM    O1315663   3.717   1.015   6.351 -0.7623  0.0365  0.3882
  143OSM    O1415664   3.692   1.264   6.351  0.4215 -0.0408  0.0299
  143OSM    O1115665   3.776   1.132   6.548  0.2546 -0.3606  0.0420
  143OSM    O1215666   3.536   1.138   6.480  0.0981  0.0710 -0.7832
  143OSM    C1S15667   3.755   1.221   6.666 -1.1615  0.9137  0.4121
  143OSM    H1S15668   3.647   1.245   6.678 -1.4292  0.1257 -0.4399
  143OSM    H1T15669   3.816   1.312   6.649 -1.0883  0.5252 -1.4789
  143OSM     NF15670   3.802   1.243   6.904 -0.3208  0.2259 -0.3438
  143OSM    HNF15671   3.893   1.259   6.941  0.1095  0.8903 -1.6237
  143OSM    C2S15672   3.801   1.146   6.796 -0.6288  0.0618  0.2813
  143OSM    H2S15673   3.734   1.062   6.821 -0.8800  0.1982  0.0745
  143OSM    C3S15674   3.942   1.072   6.780  0.4007  0.4111 -0.3090
  143OSM    H3S15675   4.014   1.154   6.759  0.1055  0.3556 -1.6126
  143OSM     O315676   3.952   0.986   6.665 -0.1676 -0.4896  0.1101
  143OSM    HO315677   3.875   1.000   6.610 -0.4919 -1.9628  0.1724
  143OSM    C4S15678   3.968   0.996   6.906 -0.4292  0.6736  0.2319
  143OSM    H4S15679   3.880   0.937   6.937 -0.0725 -1.1704 -2.0779
  143OSM    C5S15680   4.071   1.016   6.996 -0.5222  0.6059  0.2486
  143OSM    H5S15681   4.144   1.095   6.974 -0.7719  0.1243 -2.4553
  143OSM    C6S15682   4.094   0.928   7.120  0.6515 -0.3167  0.1294
  143OSM    H6S15683   4.202   0.903   7.126  0.5693 -1.2705 -2.1452
  143OSM    H6T15684   4.042   0.830   7.111  1.4041 -0.6986 -0.0907
  143OSM    C7S15685   4.059   1.004   7.249  0.2312 -0.2252 -0.2020
  143OSM    H7S15686   3.955   1.044   7.239 -0.3502 -1.7141 -0.2044
  143OSM    H7T15687   4.127   1.090   7.268  0.7886 -0.5692 -0.6387
  143OSM    C8S15688   4.071   0.910   7.367  0.4732  0.4194 -0.3018
  143OSM    H8S15689   4.177   0.878   7.379 -0.6057 -3.0893  0.1917
  143OSM    H8T15690   4.005   0.821   7.358 -0.7527  1.1022  1.6946
  143OSM    C9S15691   4.021   0.974   7.499 -0.3363 -0.1944 -0.6333
  143OSM    H9S15692   3.912   0.992   7.505 -0.1465  0.7843  0.1646
  143OSM    H9T15693   4.068   1.075   7.502  0.3262 -0.5228  0.2990
  143OSM   C10S15694   4.078   0.888   7.621  0.5207  0.2381  0.3364
  143OSM   H10S15695   4.187   0.870   7.610 -0.0119 -2.9341 -0.4197
  143OSM   H10T15696   4.025   0.790   7.623 -0.8970  1.0032  1.6881
  143OSM   C11S15697   4.059   0.974   7.749  0.3038  0.1583  0.3667
  143OSM   H11S15698   3.956   1.015   7.751  0.1611 -0.2030  0.5282
  143OSM   H11T15699   4.144   1.045   7.754  0.5060 -0.0116 -0.5869
  143OSM   C12S15700   4.057   0.883   7.879  0.1056 -0.2132 -0.0034
  143OSM   H12S15701   4.161   0.847   7.892  0.2371 -0.8194 -2.5646
  143OSM   H12T15702   3.975   0.807   7.877  0.7940 -1.0309  1.6911
  143OSM   C13S15703   4.035   0.966   8.010  0.8162  0.4753 -0.4391
  143OSM   H13S15704   3.927   0.990   8.023  0.3790 -0.6593 -1.8545
  143OSM   H13T15705   4.090   1.062   8.006 -0.6482  1.4800  2.1009
  143OSM   C14S15706   4.078   0.895   8.148  0.2659 -0.4065  0.6096
  143OSM   H14S15707   4.187   0.874   8.145 -0.0692 -2.1135 -0.4580
  143OSM   H14T15708   4.018   0.801   8.154  1.0562 -0.8841  1.0112
  143OSM   C15S15709   4.050   0.982   8.275  0.3258 -0.6781 -1.5188
  143OSM   H15S15710   3.941   1.001   8.279  0.6791  1.0058  1.5364
  143OSM   H15T15711   4.084   1.085   8.253 -0.3536 -0.2724 -0.6829
  143OSM   C16S15712   4.128   0.943   8.405  0.2279 -0.2603  0.2503
  143OSM   H16S15713   4.127   1.032   8.472  1.2908 -0.3363  0.3858
  143OSM   H16T15714   4.236   0.928   8.383  0.3986 -1.1768  1.6528
  143OSM   C17S15715   4.063   0.822   8.468  0.3447  0.1610 -0.0362
  143OSM   H17S15716   4.045   0.736   8.400  2.1309 -2.0058  2.1160
  143OSM   H17T15717   3.961   0.857   8.496  0.5616  0.7529  0.0161
  143OSM   C18S15718   4.137   0.773   8.590 -0.4146 -0.1472  0.1686
  143OSM   H18S15719   4.164   0.850   8.665 -0.9653 -1.4448  1.7000
  143OSM   H18T15720   4.231   0.717   8.568 -0.6089 -0.9059  1.2291
  143OSM   H18U15721   4.074   0.700   8.644 -2.1608  1.2381  0.0170
  143OSM    C1F15722   3.693   1.294   6.949 -0.0305 -0.1620  0.5804
  143OSM     OF15723   3.586   1.239   6.917  0.0451 -0.0456 -0.3944
  143OSM    C2F15724   3.699   1.413   7.034 -0.2625  0.0963 -0.3332
  143OSM    H2F15725   3.603   1.447   7.079  0.7346  2.3443  0.1342
  143OSM    H2G15726   3.724   1.497   6.966  0.5988  0.0508 -0.0735
  143OSM    C3F15727   3.803   1.416   7.149 -0.3301  0.3148  0.2291
  143OSM    H3F15728   3.906   1.414   7.107 -0.9429 -3.5929 -1.3291
  143OSM    H3G15729   3.782   1.328   7.215  0.6545 -1.0723 -1.2633
  143OSM    C4F15730   3.789   1.538   7.239  0.2222 -0.0870 -0.0469
  143OSM    H4F15731   3.681   1.548   7.263  0.5304  0.7814  1.0559
  143OSM    H4G15732   3.830   1.627   7.187 -1.1988  1.4017  1.3384
  143OSM    C5F15733   3.879   1.535   7.365 -0.2170 -0.2011 -0.1719
  143OSM    H5F15734   3.854   1.629   7.419 -0.2458 -1.2882  1.7297
  143OSM    H5G15735   3.989   1.542   7.352 -0.3423  4.1246  0.2819
  143OSM    C6F15736   3.856   1.404   7.451 -0.0761 -0.0778 -0.4371
  143OSM    H6F15737   3.914   1.318   7.413  1.4469  1.5529 -1.8866
  143OSM    H6G15738   3.747   1.384   7.458 -0.7243  2.4101 -2.5802
  143OSM    C7F15739   3.916   1.423   7.595  0.0520 -0.4963  0.0889
  143OSM    H7F15740   3.875   1.518   7.635  2.4066  1.6151 -2.2593
  143OSM    H7G15741   4.023   1.443   7.575 -0.4375 -1.0148 -3.3718
  143OSM    C8F15742   3.890   1.301   7.689 -0.1740 -1.0139  0.0171
  143OSM    H8F15743   3.915   1.208   7.634 -0.0022 -2.6421  2.7837
  143OSM    H8G15744   3.780   1.310   7.705 -0.0197 -0.4522  0.7670
  143OSM    C9F15745   3.972   1.310   7.816 -0.5834 -0.9343  0.0243
  143OSM    H9F15746   4.072   1.352   7.798 -1.3385  1.1944  0.7022
  143OSM   C10F15747   3.915   1.299   7.935  0.5133 -1.0933 -0.4487
  143OSM   H10F15748   3.990   1.313   8.014  1.7354 -2.0365 -1.4144
  143OSM   C11F15749   3.776   1.265   7.981 -0.2060  0.2190  0.6734
  143OSM   H11F15750   3.760   1.155   7.974 -1.1513  0.4761 -1.6415
  143OSM   H11G15751   3.695   1.309   7.918  1.3525  2.3569  0.1029
  143OSM   C12F15752   3.756   1.301   8.126 -0.3954  0.6444  0.3690
  143OSM   H12F15753   3.775   1.410   8.133  0.1712  0.5198  0.8683
  143OSM   H12G15754   3.821   1.231   8.184 -1.8849 -3.0891 -2.2311
  143OSM   C13F15755   3.606   1.268   8.173  0.9985 -1.0807  0.2993
  143OSM   H13F15756   3.592   1.159   8.160  0.8312 -0.9853 -0.3576
  143OSM   H13G15757   3.544   1.317   8.094  1.0512 -1.1399  0.2215
  143OSM   C14F15758   3.568   1.315   8.311 -0.2007 -0.0627 -0.3067
  143OSM   H14F15759   3.599   1.418   8.337  1.4349 -0.7575  0.5490
  143OSM   H14G15760   3.613   1.242   8.381 -1.2788 -0.2386  0.2092
  143OSM   C15F15761   3.420   1.289   8.350 -0.1097 -0.4570 -0.3768
  143OSM   H15F15762   3.403   1.183   8.323 -2.0753 -0.1351 -0.4335
  143OSM   H15G15763   3.348   1.355   8.297  1.7183  1.8642 -0.0855
  143OSM   C16F15764   3.384   1.302   8.504  0.9712  0.3802  0.5637
  143OSM   H16F15765   3.419   1.400   8.543 -0.6142  0.5402  1.6452
  143OSM   H16G15766   3.453   1.232   8.556  0.6313  1.0047  1.8772
  143OSM   C17F15767   3.236   1.281   8.544  0.9709  0.3132 -0.5486
  143OSM   H17F15768   3.239   1.281   8.655 -0.5189  3.1823 -0.4623
  143OSM   H17G15769   3.213   1.179   8.508 -1.4059  0.3708  0.6848
  143OSM   C18F15770   3.135   1.382   8.483  0.0928  0.1895 -0.5329
  143OSM   H18F15771   3.144   1.488   8.513  2.2001  0.8155 -3.2056
  143OSM   H18G15772   3.037   1.345   8.521  1.4039 -0.6245  2.1487
  143OSM   H18H15773   3.135   1.377   8.372  0.1352 -2.2515 -0.4443
  144OSM      N15774   2.616   1.015   5.970  0.1996 -0.1526 -0.4291
  144OSM    C1515775   2.514   1.054   6.063 -0.0738  0.1789 -0.1039
  144OSM   H15A15776   2.413   1.025   6.036 -0.0913 -1.2462  1.4722
  144OSM   H15B15777   2.502   1.161   6.076  0.4641  0.6273 -2.9519
  144OSM   H15C15778   2.534   1.006   6.157 -0.7183  2.3379  1.1737
  144OSM    C1415779   2.569   1.054   5.825 -0.3028 -0.8308  0.0052
  144OSM   H14A15780   2.648   1.027   5.755 -0.4775  0.5808 -0.7449
  144OSM   H14B15781   2.573   1.161   5.831  0.8406 -0.8661  0.0015
  144OSM   H14C15782   2.475   1.007   5.802 -0.5443 -0.5889  0.5141
  144OSM    C1315783   2.742   1.083   6.013  0.3286 -0.3142 -0.3737
  144OSM   H13A15784   2.823   1.063   5.944 -0.0125 -0.0946 -0.8402
  144OSM   H13B15785   2.773   1.062   6.115  0.4552 -1.2880 -0.6160
  144OSM   H13C15786   2.721   1.188   5.998 -0.7828 -0.3213  1.0267
  144OSM    C1215787   2.637   0.860   5.959 -0.0556  0.6486 -0.0764
  144OSM   H12A15788   2.705   0.848   5.875  0.1656 -1.0513  0.3305
  144OSM   H12B15789   2.542   0.819   5.931  0.1517  0.7567 -0.9471
  144OSM    C1115790   2.680   0.781   6.081  0.4988  0.1906 -0.6572
  144OSM   H11A15791   2.763   0.839   6.127  0.1386  0.0305  0.2026
  144OSM   H11B15792   2.729   0.685   6.054 -1.4218 -0.6010 -1.4554
  144OSM      P15793   2.493   0.634   6.188 -0.1687  0.1204  0.0267
  144OSM    O1315794   2.352   0.675   6.216  0.8198  0.4470  0.6077
  144OSM    O1415795   2.518   0.531   6.085 -0.1966 -0.0070  0.1474
  144OSM    O1115796   2.551   0.589   6.322  0.5865  0.8021 -0.0924
  144OSM    O1215797   2.570   0.767   6.167  0.3200  0.0808 -0.9331
  144OSM    C1S15798   2.597   0.679   6.421  0.2713  0.5030  0.4869
  144OSM    H1S15799   2.563   0.784   6.409  0.7730  0.6096 -0.0521
  144OSM    H1T15800   2.708   0.674   6.411  0.1796 -0.2773 -0.2263
  144OSM     NF15801   2.614   0.708   6.669  0.2880  0.6808  0.5633
  144OSM    HNF15802   2.691   0.665   6.715 -0.7712 -1.7038  0.1717
  144OSM    C2S15803   2.552   0.627   6.564  0.0676  0.6287  0.2068
  144OSM    H2S15804   2.442   0.627   6.572  0.1870  3.0984  2.3932
  144OSM    C3S15805   2.605   0.480   6.579  0.0357  0.6834 -0.5345
  144OSM    H3S15806   2.716   0.480   6.583 -0.0223  0.3152  1.2328
  144OSM     O315807   2.572   0.390   6.471  0.3115  0.1491 -0.0357
  144OSM    HO315808   2.564   0.453   6.400 -1.1073 -0.6428 -0.5896
  144OSM    C4S15809   2.560   0.416   6.717 -0.3584 -0.0878  0.0869
  144OSM    H4S15810   2.459   0.442   6.753 -0.2294 -0.5344  0.7694
  144OSM    C5S15811   2.643   0.337   6.790  0.0376  0.3742  0.2931
  144OSM    H5S15812   2.743   0.313   6.750 -0.2297 -1.1017  0.4768
  144OSM    C6S15813   2.617   0.271   6.919  0.7380  0.3606  0.2506
  144OSM    H6S15814   2.518   0.297   6.961  1.0000  0.9615  0.5031
  144OSM    H6T15815   2.693   0.306   6.992 -0.2646 -3.2065  3.1394
  144OSM    C7S15816   2.624   0.120   6.909 -0.1511  0.3809 -0.8818
  144OSM    H7S15817   2.721   0.098   6.859  0.2863  0.2966 -0.0079
  144OSM    H7T15818   2.539   0.078   6.851 -0.1633  0.4473 -0.9112
  144OSM    C8S15819   2.625   0.053   7.047  0.2162 -0.7499  0.1582
  144OSM    H8S15820   2.569  -0.043   7.038  0.5990 -1.1042  1.4482
  144OSM    H8T15821   2.580   0.126   7.117  3.1570  1.1744  0.1221
  144OSM    C9S15822   2.767   0.030   7.092  0.0623  0.2819  0.0853
  144OSM    H9S15823   2.820   0.125   7.116  1.7179 -0.0790 -1.9389
  144OSM    H9T15824   2.818  -0.028   7.012 -0.1309  0.4597 -0.1657
  144OSM   C10S15825   2.783  -0.059   7.224 -0.8110  0.1041 -1.0921
  144OSM   H10S15826   2.886  -0.099   7.220 -0.6973  0.4667 -1.7547
  144OSM   H10T15827   2.720  -0.151   7.225 -0.8132  0.1079 -0.4019
  144OSM   C11S15828   2.762   0.027   7.353 -0.1308  0.2431  0.3787
  144OSM   H11S15829   2.663   0.077   7.361 -0.5480  0.1153 -3.3173
  144OSM   H11T15830   2.838   0.107   7.368 -0.6167  1.1213 -1.6534
  144OSM   C12S15831   2.776  -0.058   7.475  0.1160  0.1765 -0.1789
  144OSM   H12S15832   2.872  -0.111   7.494 -0.8577 -1.0172  1.5837
  144OSM   H12T15833   2.694  -0.134   7.474  1.3640 -1.1972 -0.5253
  144OSM   C13S15834   2.754   0.025   7.599 -0.4191 -0.4876 -0.4465
  144OSM   H13S15835   2.659   0.082   7.590 -0.5771 -0.9040 -1.4921
  144OSM   H13T15836   2.835   0.101   7.604 -0.3211 -0.3949 -2.7608
  144OSM   C14S15837   2.744  -0.061   7.723 -0.5369 -0.1239 -0.3841
  144OSM   H14S15838   2.842  -0.113   7.722 -0.1264  0.5583  1.7978
  144OSM   H14T15839   2.656  -0.126   7.703 -1.5493  0.1385  2.9147
  144OSM   C15S15840   2.720   0.012   7.861  1.1180 -0.1440  1.0403
  144OSM   H15S15841   2.639   0.086   7.851  1.0666  0.1533  3.4324
  144OSM   H15T15842   2.803   0.083   7.882 -0.4059  1.5798  1.3190
  144OSM   C16S15843   2.719  -0.079   7.986  0.2394 -0.0158 -0.4662
  144OSM   H16S15844   2.816  -0.133   7.995 -0.3771 -1.0765 -0.0025
  144OSM   H16T15845   2.651  -0.166   7.977  1.8155 -1.5716  1.8190
  144OSM   C17S15846   2.705   0.002   8.114 -0.1567 -0.2628  0.0605
  144OSM   H17S15847   2.603   0.046   8.107  0.8317  1.6624 -4.8735
  144OSM   H17T15848   2.768   0.091   8.132 -0.8778  0.0611  1.0165
  144OSM   C18S15849   2.712  -0.074   8.248  0.2933 -0.7487 -0.5451
  144OSM   H18S15850   2.816  -0.094   8.280  0.9793 -1.5050 -3.0928
  144OSM   H18T15851   2.653  -0.168   8.244  0.9418 -1.3753  3.0807
  144OSM   H18U15852   2.664  -0.005   8.321  0.7501  0.8107 -1.6745
  144OSM    C1F15853   2.589   0.834   6.701  0.2423  0.6139  0.4134
  144OSM     OF15854   2.511   0.901   6.632 -0.2303  0.2014  0.4237
  144OSM    C2F15855   2.669   0.891   6.813 -0.5874  0.2856  0.0329
  144OSM    H2F15856   2.762   0.935   6.772 -1.5154  2.2467 -0.0616
  144OSM    H2G15857   2.685   0.810   6.887 -0.5103 -1.2803 -1.6643
  144OSM    C3F15858   2.583   0.997   6.884  0.2043 -0.2117  0.4569
  144OSM    H3F15859   2.553   1.058   6.796 -0.5164 -1.7382 -0.3732
  144OSM    H3G15860   2.645   1.046   6.963  0.4880 -2.0378  1.3948
  144OSM    C4F15861   2.462   0.937   6.972  0.8866  0.0719  0.0820
  144OSM    H4F15862   2.386   0.883   6.911  0.2936 -0.9111  1.6868
  144OSM    H4G15863   2.404   1.026   7.005 -0.6879  0.7752 -4.1974
  144OSM    C5F15864   2.497   0.856   7.096 -0.6893  0.0715 -0.1163
  144OSM    H5F15865   2.562   0.770   7.072  0.3166  0.2272  1.9195
  144OSM    H5G15866   2.402   0.818   7.141  0.3086 -3.8993 -1.1998
  144OSM    C6F15867   2.554   0.951   7.217  0.1552  0.3545 -0.2783
  144OSM    H6F15868   2.485   1.032   7.250  1.1992  0.2500  2.2204
  144OSM    H6G15869   2.645   0.993   7.169  1.1378 -0.9431  0.4275
  144OSM    C7F15870   2.600   0.864   7.334  0.3666  0.7867  0.6896
  144OSM    H7F15871   2.518   0.791   7.351 -0.4079  1.6550  0.7406
  144OSM    H7G15872   2.622   0.928   7.422 -1.9716 -0.0589  1.9294
  144OSM    C8F15873   2.730   0.787   7.304 -0.7818 -0.2095 -0.3956
  144OSM    H8F15874   2.726   0.718   7.217 -2.0796 -3.3652  2.0498
  144OSM    H8G15875   2.735   0.714   7.388  0.5750  0.9346  0.5510
  144OSM    C9F15876   2.849   0.883   7.285  0.4534 -0.3528 -0.3597
  144OSM    H9F15877   2.870   0.916   7.183 -0.9325  1.3427 -0.1261
  144OSM   C10F15878   2.937   0.930   7.378 -1.2165 -0.0264 -0.8355
  144OSM   H10F15879   3.004   1.016   7.365  1.3751 -1.5355  1.7660
  144OSM   C11F15880   2.925   0.882   7.524 -1.0178 -0.1605  0.5395
  144OSM   H11F15881   3.026   0.855   7.562  0.2373  0.3150 -2.3093
  144OSM   H11G15882   2.863   0.791   7.542 -0.5358 -0.0027  3.1757
  144OSM   C12F15883   2.871   0.996   7.623 -0.2404  0.0663  0.2165
  144OSM   H12F15884   2.858   0.933   7.713 -1.0477  0.1098  0.1337
  144OSM   H12G15885   2.774   1.029   7.580  1.3954 -0.0754 -3.8189
  144OSM   C13F15886   2.968   1.110   7.655  0.1177 -0.3515  0.0846
  144OSM   H13F15887   2.989   1.167   7.562 -2.0031  0.9363  0.3710
  144OSM   H13G15888   3.071   1.073   7.677 -0.3635 -1.1626  0.9717
  144OSM   C14F15889   2.909   1.197   7.764  0.2853 -0.1166  0.2802
  144OSM   H14F15890   2.888   1.120   7.841  0.1423 -0.3307  0.0259
  144OSM   H14G15891   2.821   1.254   7.727  1.3963  1.4620  0.0331
  144OSM   C15F15892   3.008   1.307   7.819  0.4130  0.2491  0.4807
  144OSM   H15F15893   3.034   1.370   7.731  0.7954  1.1629  1.2360
  144OSM   H15G15894   3.102   1.250   7.839 -0.2483 -0.7137  0.9109
  144OSM   C16F15895   2.960   1.382   7.950  0.8203 -0.2780 -1.3027
  144OSM   H16F15896   2.935   1.311   8.032  2.0730  0.1003 -0.5727
  144OSM   H16G15897   2.860   1.429   7.940 -0.0601 -1.1355  2.4907
  144OSM   C17F15898   3.060   1.481   8.013 -0.1751 -0.2801 -0.6366
  144OSM   H17F15899   3.079   1.572   7.952 -0.9852  0.6523  0.4772
  144OSM   H17G15900   3.150   1.421   8.037 -0.1507 -0.9001 -2.2113
  144OSM   C18F15901   3.028   1.549   8.138 -0.4286 -0.4291 -0.5748
  144OSM   H18F15902   2.962   1.639   8.135  0.9622  0.7521  2.3844
  144OSM   H18G15903   3.124   1.589   8.178  0.5796 -1.7105 -1.6660
  144OSM   H18H15904   2.996   1.481   8.220 -0.2914  0.0493 -0.1210
  145SAPE     N15905   1.090   1.537  10.854 -0.9862 -0.0650  0.3656
  145SAPE   HN115906   1.180   1.579  10.883 -1.7624  0.8327  1.5154
  145SAPE   HN215907   1.008   1.577  10.904 -0.6167 -0.7243  1.4885
  145SAPE   HN315908   1.083   1.436  10.877 -0.2449 -0.4185 -0.9010
  145SAPE   C1215909   1.086   1.544  10.706 -0.8007 -0.0031 -0.1451
  145SAPE  H12A15910   1.106   1.645  10.665 -0.1616  0.4948  1.3922
  145SAPE  H12B15911   0.987   1.518  10.661 -0.7588 -0.8313  0.2245
  145SAPE   C1115912   1.189   1.446  10.641  0.8706 -0.6875  0.1256
  145SAPE  H11A15913   1.189   1.468  10.532  1.8797  1.9643  0.6231
  145SAPE  H11B15914   1.153   1.341  10.647  0.2392 -0.4556  0.5247
  145SAPE     P15915   1.452   1.429  10.646 -0.1377  0.1609  0.2244
  145SAPE   O1315916   1.554   1.510  10.720  0.0300  0.3853  0.0893
  145SAPE   O1415917   1.463   1.285  10.636 -0.0130 -0.2165  0.2149
  145SAPE   O1215918   1.314   1.470  10.705  0.4008  0.3546  0.0306
  145SAPE   O1115919   1.446   1.484  10.501 -0.2903  0.1015  0.4047
  145SAPE    C115920   1.411   1.613  10.461  0.7377 -0.2923  0.2639
  145SAPE    HA15921   1.349   1.609  10.369  1.6145 -1.9128 -0.2601
  145SAPE    HB15922   1.346   1.659  10.538 -0.0064 -1.1266  0.1323
  145SAPE    C215923   1.538   1.694  10.429 -0.4689 -0.4551 -0.3072
  145SAPE    HS15924   1.574   1.710  10.533 -0.6781 -0.5038 -0.2269
  145SAPE   O2115925   1.505   1.824  10.372  0.0710 -0.2173  0.3956
  145SAPE   C2115926   1.609   1.910  10.360 -0.4196  0.6401  0.0590
  145SAPE   O2215927   1.726   1.880  10.374  0.0689 -0.0150  0.2308
  145SAPE   C2215928   1.552   2.045  10.351  0.2308 -0.5923 -0.3318
  145SAPE   H2R15929   1.449   2.043  10.309 -0.6186 -0.2487  1.6884
  145SAPE   H2S15930   1.548   2.082  10.456  2.3456 -2.4276  0.4263
  145SAPE    C315931   1.635   1.610  10.332  0.2566 -0.3667 -0.6072
  145SAPE    HX15932   1.644   1.516  10.391  2.2142 -1.1535 -2.0888
  145SAPE    HY15933   1.736   1.651  10.353 -0.7938  2.1381 -0.3341
  145SAPE   O3115934   1.595   1.592  10.196  0.6705 -0.1926  0.7165
  145SAPE   C3115935   1.678   1.536  10.112  0.6236  0.4372 -0.2825
  145SAPE   O3215936   1.784   1.486  10.148 -0.1966 -0.9256  0.1150
  145SAPE   C3215937   1.620   1.543   9.970  0.2384  0.3802 -0.0249
  145SAPE   H2X15938   1.577   1.644   9.953 -0.9967 -0.3235 -1.1757
  145SAPE   H2Y15939   1.533   1.474   9.971  0.8291 -0.3888 -0.6440
  145SAPE   C2315940   1.634   2.151  10.263  0.3123  0.3297 -0.1798
  145SAPE   H3R15941   1.739   2.142  10.298  0.4389  0.1904 -0.5939
  145SAPE   H3S15942   1.583   2.250  10.266 -3.6409 -1.4665 -3.3037
  145SAPE   C2415943   1.630   2.104  10.116 -0.4661 -0.2725 -0.4913
  145SAPE   H4R15944   1.675   2.003  10.103 -2.8283 -1.7238  1.8399
  145SAPE   H4S15945   1.692   2.179  10.063  0.4739 -1.7096 -1.4433
  145SAPE   C2515946   1.489   2.101  10.056 -0.3733  0.2443  0.7040
  145SAPE   H5R15947   1.423   2.022  10.095 -3.3036  0.4142 -3.6395
  145SAPE   C2615948   1.443   2.185   9.958 -0.1961  0.1609 -0.5330
  145SAPE   H6R15949   1.338   2.170   9.927  0.1895  0.2201 -1.8959
  145SAPE   C2715950   1.532   2.286   9.886 -0.2434 -0.3210  0.3812
  145SAPE   H7R15951   1.619   2.234   9.840 -0.5214 -0.4604  0.0114
  145SAPE   H7S15952   1.587   2.352   9.957  0.0586 -1.3438  1.1033
  145SAPE   C2815953   1.467   2.378   9.781  0.1887  0.5539 -0.1803
  145SAPE   H8R15954   1.415   2.463   9.828 -0.0978  0.6212 -0.6218
  145SAPE   C2915955   1.454   2.357   9.651 -0.0114  0.5573  0.5593
  145SAPE   H9R15956   1.389   2.435   9.610 -1.1797 -2.2921 -3.2414
  145SAPE  C21015957   1.506   2.234   9.579  0.3872  0.2922 -0.2664
  145SAPE  H10R15958   1.553   2.169   9.656 -1.2931 -1.5722 -0.7941
  145SAPE  H10S15959   1.592   2.269   9.518  0.9487  1.6626  1.2621
  145SAPE  C21115960   1.410   2.156   9.486 -0.2846 -0.2194 -0.1751
  145SAPE  H11R15961   1.326   2.121   9.547 -0.5380  1.1351  0.2827
  145SAPE  C21215962   1.405   2.165   9.357 -0.4767 -0.1964  0.3168
  145SAPE  H12R15963   1.321   2.112   9.309 -1.2901  1.2839  0.0857
  145SAPE  C21315964   1.492   2.231   9.250  0.2860  0.2496 -0.4422
  145SAPE  H13R15965   1.592   2.260   9.290  0.8621 -1.8317 -0.3269
  145SAPE  H13S15966   1.445   2.325   9.214 -1.1276  0.3636  1.6220
  145SAPE  C21415967   1.525   2.129   9.140 -0.0798 -0.7189  0.8065
  145SAPE  H14R15968   1.445   2.060   9.106  0.5115 -0.3518 -1.4370
  145SAPE  C21515969   1.640   2.120   9.075  0.4729  0.0478  0.6379
  145SAPE  H15R15970   1.655   2.037   9.005 -1.8426  0.8436 -0.8661
  145SAPE  C21615971   1.764   2.201   9.102 -0.8067 -0.3646  0.1103
  145SAPE  H16R15972   1.741   2.300   9.147 -1.5363  0.0939 -1.2406
  145SAPE  H16S15973   1.822   2.225   9.010  0.2670 -1.3848  0.5020
  145SAPE  C21715974   1.854   2.137   9.204  0.3197  0.0052  0.1604
  145SAPE  H17R15975   1.794   2.141   9.297 -1.7386  2.5032 -1.1968
  145SAPE  H17S15976   1.937   2.209   9.220  0.9327 -0.7833  0.5732
  145SAPE  C21815977   1.893   1.997   9.185 -0.3879 -0.6880  0.6208
  145SAPE  H18R15978   1.936   2.000   9.082  0.2973  2.1448  0.9354
  145SAPE  H18S15979   1.810   1.925   9.201  1.3863 -2.9223 -0.1091
  145SAPE  C21915980   2.013   1.968   9.273 -0.5617  0.2377  0.0457
  145SAPE  H19R15981   1.981   1.977   9.379 -1.1733  1.6466 -0.2472
  145SAPE  H19S15982   2.086   2.046   9.241  0.5530  0.0767  2.0708
  145SAPE  C22015983   2.055   1.821   9.247 -1.2049 -0.1844  0.0802
  145SAPE  H20R15984   1.965   1.761   9.272 -0.2407 -1.1094  1.4292
  145SAPE  H20S15985   2.134   1.788   9.319  0.7516 -0.9656 -2.3389
  145SAPE  H20T15986   2.099   1.800   9.147 -1.1807 -0.3791  0.1310
  145SAPE   C3315987   1.709   1.511   9.847 -0.6457  0.2817  0.3236
  145SAPE   H3X15988   1.786   1.434   9.866 -1.4220 -0.4554  0.5277
  145SAPE   H3Y15989   1.773   1.599   9.826  1.3746 -0.6285  2.4322
  145SAPE   C3415990   1.622   1.470   9.735  0.3579 -0.2527  0.2097
  145SAPE   H4X15991   1.548   1.547   9.702  2.1491  1.5555  0.3133
  145SAPE   H4Y15992   1.562   1.379   9.756  0.4016 -0.1017  1.0089
  145SAPE   C3515993   1.709   1.429   9.615  0.1920  0.0530 -0.3437
  145SAPE   H5X15994   1.773   1.343   9.647  0.6477  0.1360 -1.0250
  145SAPE   H5Y15995   1.771   1.515   9.583 -0.1027  1.3272  2.3335
  145SAPE   C3615996   1.629   1.390   9.488  0.1659 -0.0951 -0.2931
  145SAPE   H6X15997   1.585   1.470   9.424  0.3325  0.2021 -0.0365
  145SAPE   H6Y15998   1.548   1.320   9.516 -0.7127  1.7713  1.9677
  145SAPE   C3715999   1.735   1.316   9.394 -0.6359 -0.4161  0.7210
  145SAPE   H7X16000   1.803   1.243   9.443  1.0118 -0.4906 -1.5971
  145SAPE   H7Y16001   1.812   1.391   9.365  0.2149 -0.9820  1.4966
  145SAPE   C3816002   1.686   1.243   9.274  0.6105  0.5974  0.8825
  145SAPE   H8X16003   1.621   1.311   9.214  3.9395  2.3664 -0.8534
  145SAPE   H8Y16004   1.629   1.157   9.313  2.0704 -0.2399  1.1977
  145SAPE   C3916005   1.793   1.184   9.177  0.7101  0.0426 -1.1478
  145SAPE   H9X16006   1.835   1.088   9.214  3.0182  1.5726  0.3852
  145SAPE   H9Y16007   1.877   1.257   9.170 -3.0291  4.7865  0.6212
  145SAPE  C31016008   1.739   1.159   9.036 -0.2154  0.3129  0.0198
  145SAPE  H10X16009   1.818   1.132   8.963 -0.1453  2.9021 -0.9189
  145SAPE  H10Y16010   1.705   1.257   8.995  0.4118  0.1645 -0.8790
  145SAPE  C31116011   1.622   1.056   9.036  0.1918  0.7162  1.0974
  145SAPE  H11X16012   1.540   1.076   9.108 -1.8649  2.0348 -1.5144
  145SAPE  H11Y16013   1.666   0.958   9.067 -1.3799 -0.5188 -0.4465
  145SAPE  C31216014   1.564   1.036   8.895  0.3742  0.3767 -0.0219
  145SAPE  H12X16015   1.547   1.133   8.845 -0.5538  0.7681  1.0302
  145SAPE  H12Y16016   1.463   0.991   8.910  0.0005  0.9465 -0.7877
  145SAPE  C31316017   1.640   0.940   8.799 -0.1736 -0.0646  0.0589
  145SAPE  H13X16018   1.631   0.840   8.847 -0.0992  0.4664  1.1918
  145SAPE  H13Y16019   1.749   0.963   8.802  0.0461 -0.1630 -4.1751
  145SAPE  C31416020   1.589   0.924   8.652  0.0784 -0.3036  0.0591
  145SAPE  H14X16021   1.651   0.851   8.597  0.3255 -0.4378  0.5171
  145SAPE  H14Y16022   1.598   1.025   8.606 -0.2577 -0.7876 -1.1191
  145SAPE  C31516023   1.448   0.871   8.647  0.0269 -0.9221  0.3067
  145SAPE  H15X16024   1.383   0.937   8.709  0.6670 -2.3853  2.5798
  145SAPE  H15Y16025   1.443   0.771   8.694  0.0213 -0.7969  0.5767
  145SAPE  C31616026   1.403   0.871   8.503 -0.1017 -0.1685 -0.2094
  145SAPE  H16X16027   1.485   0.823   8.446 -1.2946  1.2475 -3.1856
  145SAPE  H16Y16028   1.388   0.975   8.466 -0.4653 -1.0650 -2.6108
  145SAPE  C31716029   1.264   0.796   8.476 -0.6317  0.0712 -0.4882
  145SAPE  H17X16030   1.188   0.832   8.548 -1.2277 -1.0059 -0.5628
  145SAPE  H17Y16031   1.278   0.689   8.503 -3.3884 -0.3773 -0.7844
  145SAPE  C31816032   1.210   0.797   8.335  0.3475 -0.8567  0.4689
  145SAPE  H18X16033   1.279   0.758   8.258 -1.3395  0.6536 -1.8959
  145SAPE  H18Y16034   1.184   0.900   8.301 -1.4982 -1.0177  1.2859
  145SAPE  H18Z16035   1.118   0.734   8.337 -0.3874  0.2114  0.7374
  146SAPE     N16036   0.967   2.567  10.852 -0.3169 -0.2073  0.0449
  146SAPE   HN116037   1.021   2.653  10.875  1.6979 -0.8863 -1.8299
  146SAPE   HN216038   0.993   2.483  10.907  1.8743  1.6516  1.9659
  146SAPE   HN316039   0.975   2.549  10.749 -0.3552  1.5777 -0.2913
  146SAPE   C1216040   0.826   2.603  10.879 -0.6077 -0.3796 -0.5311
  146SAPE  H12A16041   0.812   2.591  10.989  0.5897 -2.5285 -0.5997
  146SAPE  H12B16042   0.756   2.533  10.829 -3.2054  1.1163  0.8649
  146SAPE   C1116043   0.799   2.752  10.824 -0.8860 -0.3329 -0.4438
  146SAPE  H11A16044   0.834   2.781  10.723  0.5025 -1.7956 -0.3925
  146SAPE  H11B16045   0.849   2.826  10.891  1.0972 -1.0332 -1.1232
  146SAPE     P16046   0.559   2.760  10.719 -0.1395 -0.1178  0.2822
  146SAPE   O1316047   0.550   2.611  10.697  0.7220  0.2847  0.6381
  146SAPE   O1416048   0.432   2.833  10.753  0.5851  0.4223  0.3176
  146SAPE   O1216049   0.660   2.781  10.840 -0.1519 -0.1545  0.3557
  146SAPE   O1116050   0.634   2.823  10.597 -0.1487  0.5282  0.3057
  146SAPE    C116051   0.644   2.964  10.588  0.3341  0.4996 -0.2326
  146SAPE    HA16052   0.549   3.021  10.599  0.6732  1.0602 -0.1911
  146SAPE    HB16053   0.711   3.003  10.667 -1.1520  0.6709  0.9658
  146SAPE    C216054   0.695   3.013  10.446  0.8108 -0.1799 -0.3502
  146SAPE    HS16055   0.676   3.122  10.436 -0.0638 -0.1363  1.5053
  146SAPE   O2116056   0.619   2.941  10.346  0.0366 -0.0078  0.3551
  146SAPE   C2116057   0.491   2.956  10.342  0.0021 -0.2099 -0.2412
  146SAPE   O2216058   0.427   3.043  10.400  0.4027 -0.0453 -0.2863
  146SAPE   C2216059   0.426   2.847  10.260  0.4470  0.2976  0.6277
  146SAPE   H2R16060   0.397   2.753  10.312 -2.1355  0.4351 -0.4976
  146SAPE   H2S16061   0.328   2.889  10.227 -0.1876 -1.5455  0.0884
  146SAPE    C316062   0.842   3.010  10.423 -0.4293  0.2428 -0.1559
  146SAPE    HX16063   0.879   2.907  10.443  0.0972  0.8564  2.1625
  146SAPE    HY16064   0.887   3.081  10.496 -0.4164 -1.6220  1.7336
  146SAPE   O3116065   0.872   3.052  10.284 -0.1963 -0.1128 -0.5100
  146SAPE   C3116066   0.995   3.090  10.256  0.6937 -0.0102  0.1057
  146SAPE   O3216067   1.088   3.082  10.331 -0.0727 -0.2181  0.4384
  146SAPE   C3216068   0.997   3.135  10.111 -0.0548 -0.0411 -0.1726
  146SAPE   H2X16069   0.947   3.234  10.103 -0.5817 -0.3936 -1.3136
  146SAPE   H2Y16070   0.923   3.069  10.062  0.1443  0.6813 -1.4556
  146SAPE   C2316071   0.496   2.796  10.128  0.5414  0.1514 -0.8858
  146SAPE   H3R16072   0.575   2.717  10.131 -1.7478 -2.2277 -1.4405
  146SAPE   H3S16073   0.550   2.881  10.080  0.9187  3.2238  4.5871
  146SAPE   C2416074   0.396   2.745  10.030  0.2617 -0.0489  0.3575
  146SAPE   H4R16075   0.444   2.751   9.929  2.5285 -0.1523  1.3950
  146SAPE   H4S16076   0.315   2.820  10.017  1.5172  1.1430 -0.7486
  146SAPE   C2516077   0.331   2.617  10.057 -0.4850  0.0113 -0.3574
  146SAPE   H5R16078   0.278   2.619  10.154 -1.4175  0.8634 -0.8761
  146SAPE   C2616079   0.326   2.510   9.983  0.1675 -0.2060 -0.5659
  146SAPE   H6R16080   0.283   2.418  10.025  0.5253 -0.2399 -0.2711
  146SAPE   C2716081   0.385   2.496   9.850  0.0264  0.1450 -0.2104
  146SAPE   H7R16082   0.383   2.595   9.800 -0.2664  1.3103  2.0002
  146SAPE   H7S16083   0.318   2.442   9.780  1.1843  2.1128 -2.8838
  146SAPE   C2816084   0.526   2.450   9.857 -0.2435 -0.3327  0.4583
  146SAPE   H8R16085   0.568   2.419   9.954  0.1186 -0.3615  0.2902
  146SAPE   C2916086   0.598   2.420   9.743 -0.3341 -0.0192  0.4073
  146SAPE   H9R16087   0.688   2.356   9.744 -0.1699  0.2224  1.3023
  146SAPE  C21016088   0.545   2.453   9.602 -0.1841 -0.2549  0.7788
  146SAPE  H10R16089   0.460   2.522   9.617  0.6931  0.4209  2.7532
  146SAPE  H10S16090   0.485   2.369   9.562 -2.0563  0.8269  1.2543
  146SAPE  C21116091   0.649   2.508   9.508  0.3072 -0.0763 -0.5723
  146SAPE  H11R16092   0.743   2.528   9.563 -1.0146 -2.8714  2.8367
  146SAPE  C21216093   0.632   2.522   9.378  0.1535  0.4138 -0.0173
  146SAPE  H12R16094   0.718   2.556   9.318 -0.2232  3.3311  1.0058
  146SAPE  C21316095   0.512   2.484   9.288 -0.0035 -0.0418  0.0587
  146SAPE  H13R16096   0.437   2.413   9.330  0.7389 -0.7943  0.1333
  146SAPE  H13S16097   0.544   2.441   9.190 -3.3423 -0.3379 -0.9540
  146SAPE  C21416098   0.444   2.614   9.251  0.5794  1.1385 -0.2568
  146SAPE  H14R16099   0.404   2.674   9.334 -0.4664 -1.0111  0.8522
  146SAPE  C21516100   0.423   2.675   9.132 -0.0068 -0.0702 -0.0829
  146SAPE  H15R16101   0.372   2.773   9.130 -2.5371 -1.2074  3.2383
  146SAPE  C21616102   0.458   2.628   8.991 -0.4039  0.1309  0.5495
  146SAPE  H16R16103   0.480   2.519   9.000 -1.1419 -0.0057  0.7720
  146SAPE  H16S16104   0.547   2.678   8.949  0.8632  0.1931  3.2499
  146SAPE  C21716105   0.341   2.652   8.891  0.3987 -0.1914  0.0689
  146SAPE  H17R16106   0.250   2.606   8.935  0.1454  0.5940  0.3721
  146SAPE  H17S16107   0.350   2.583   8.805 -0.3527 -0.9301  0.5702
  146SAPE  C21816108   0.317   2.793   8.841  0.1368 -0.3027  0.3778
  146SAPE  H18R16109   0.416   2.837   8.819 -0.1859  0.7539  1.0575
  146SAPE  H18S16110   0.283   2.862   8.920  0.2856 -0.1097  0.2729
  146SAPE  C21916111   0.214   2.802   8.731 -0.3371 -0.6034 -0.7920
  146SAPE  H19R16112   0.113   2.759   8.746 -1.3338  2.3402  1.3941
  146SAPE  H19S16113   0.259   2.755   8.641  0.3818 -1.1320 -0.1625
  146SAPE  C22016114   0.207   2.950   8.678 -0.2895 -0.0321  0.4094
  146SAPE  H20R16115   0.142   2.953   8.588  3.1934  1.3918 -2.2033
  146SAPE  H20S16116   0.309   2.992   8.662 -0.7850  1.1700  0.3007
  146SAPE  H20T16117   0.162   3.023   8.749 -2.1507  0.6268 -1.3926
  146SAPE   C3316118   1.140   3.140  10.057  0.1703  0.1383  0.0945
  146SAPE   H3X16119   1.192   3.043  10.074 -1.6050 -0.6791  1.0544
  146SAPE   H3Y16120   1.186   3.222  10.117 -0.5530 -0.4311  1.4530
  146SAPE   C3416121   1.141   3.170   9.907 -0.1265 -0.2617  0.3513
  146SAPE   H4X16122   1.106   3.082   9.850  3.4366 -1.6493  0.1788
  146SAPE   H4Y16123   1.248   3.186   9.882 -0.1486 -0.2900  0.2397
  146SAPE   C3516124   1.052   3.287   9.872  0.4731  0.2803  0.1983
  146SAPE   H5X16125   1.057   3.379   9.933  1.3336 -0.1819  0.8305
  146SAPE   H5Y16126   0.945   3.258   9.882  0.5051 -0.4058 -1.2614
  146SAPE   C3616127   1.065   3.334   9.722 -0.1590  0.0210  0.3172
  146SAPE   H6X16128   1.174   3.354   9.713  0.0294 -1.6495 -1.4258
  146SAPE   H6Y16129   1.013   3.431   9.710 -3.0230 -1.3151  1.3799
  146SAPE   C3716130   1.002   3.246   9.612  0.4377 -0.2381  0.0126
  146SAPE   H7X16131   0.892   3.239   9.614  0.2095  2.8732  0.7803
  146SAPE   H7Y16132   1.037   3.141   9.621  1.7153  0.3047  1.7465
  146SAPE   C3816133   1.055   3.301   9.476  0.5847 -0.1633  0.0630
  146SAPE   H8X16134   1.165   3.293   9.482  0.3723 -1.7725  2.5782
  146SAPE   H8Y16135   1.032   3.406   9.445  2.0067 -0.6049 -2.6772
  146SAPE   C3916136   1.018   3.219   9.354  0.1507  0.3929  0.0007
  146SAPE   H9X16137   0.908   3.219   9.341 -0.3228  1.3976  3.3818
  146SAPE   H9Y16138   1.049   3.113   9.360 -1.2139 -0.0948 -1.2510
  146SAPE  C31016139   1.096   3.269   9.224  0.2635 -0.5019  0.3313
  146SAPE  H10X16140   1.196   3.310   9.251  0.4109  0.0162 -0.9885
  146SAPE  H10Y16141   1.037   3.353   9.183  1.1639 -1.2487 -2.5756
  146SAPE  C31116142   1.114   3.149   9.128  0.3118  0.1345  0.3192
  146SAPE  H11X16143   1.016   3.115   9.089  1.2632 -0.9990 -1.1639
  146SAPE  H11Y16144   1.156   3.057   9.174 -1.7876 -1.6921 -1.2600
  146SAPE  C31216145   1.194   3.191   8.998 -1.1730 -0.1868 -0.0623
  146SAPE  H12X16146   1.171   3.109   8.927  0.2459 -1.1460  0.5782
  146SAPE  H12Y16147   1.303   3.180   9.016 -1.2717 -0.7852  0.1519
  146SAPE  C31316148   1.156   3.330   8.940 -0.3956 -0.4773  0.3202
  146SAPE  H13X16149   1.198   3.410   9.005  1.7746 -2.0867  0.9732
  146SAPE  H13Y16150   1.047   3.349   8.941 -0.0154  1.9961 -0.4108
  146SAPE  C31416151   1.205   3.358   8.797  0.0682  0.1799  0.4115
  146SAPE  H14X16152   1.153   3.283   8.733 -1.1229  0.4875  1.0153
  146SAPE  H14Y16153   1.314   3.335   8.802  0.2997  1.6202  2.8923
  146SAPE  C31516154   1.156   3.486   8.732  0.2522 -0.3236  0.2546
  146SAPE  H15X16155   1.211   3.571   8.778  0.3951 -1.3374  1.9751
  146SAPE  H15Y16156   1.056   3.492   8.779  0.4942  0.4666  0.6832
  146SAPE  C31616157   1.148   3.483   8.578 -0.4475 -0.2505 -0.2386
  146SAPE  H16X16158   1.078   3.403   8.546 -3.2607  2.2416 -0.5037
  146SAPE  H16Y16159   1.251   3.466   8.541 -1.0638 -1.6208 -1.3694
  146SAPE  C31716160   1.090   3.616   8.517  0.2011  0.0258  0.6100
  146SAPE  H17X16161   1.010   3.651   8.585  1.0866  0.9933  1.1643
  146SAPE  H17Y16162   1.050   3.599   8.414 -0.3757  1.5644  0.5600
  146SAPE  C31816163   1.198   3.724   8.518  0.2633 -0.1102 -0.0519
  146SAPE  H18X16164   1.298   3.690   8.482  0.4903  1.0747 -0.5733
  146SAPE  H18Y16165   1.210   3.765   8.620  1.6767 -1.7291  0.4671
  146SAPE  H18Z16166   1.179   3.807   8.446  0.5332  0.2823  0.3257
  147SAPE     N16167   2.609   5.063  10.965  0.3037  0.1313 -0.0230
  147SAPE   HN116168   2.551   5.127  11.022 -2.2082  0.8766 -3.2543
  147SAPE   HN216169   2.606   4.973  11.015 -0.4093  0.5694  0.7279
  147SAPE   HN316170   2.707   5.096  10.978 -0.5426  2.0003  1.8823
  147SAPE   C1216171   2.595   5.046  10.819  0.0154  0.0507 -0.1462
  147SAPE  H12A16172   2.673   4.975  10.784 -2.3817 -2.6400 -0.2060
  147SAPE  H12B16173   2.607   5.145  10.770 -0.7026  0.4960  0.5561
  147SAPE   C1116174   2.463   4.976  10.778 -0.5024  0.1993  0.0427
  147SAPE  H11A16175   2.439   4.878  10.824 -0.0412 -0.5166 -1.2340
  147SAPE  H11B16176   2.464   4.947  10.671  1.0772  0.1254  0.0752
  147SAPE     P16177   2.274   5.151  10.732  0.2719  0.0397 -0.2250
  147SAPE   O1316178   2.221   5.242  10.828  0.4706  0.7203 -0.4287
  147SAPE   O1416179   2.374   5.209  10.639 -1.1421  0.4072 -0.2936
  147SAPE   O1216180   2.337   5.043  10.819  0.2449 -0.1254  0.4459
  147SAPE   O1116181   2.155   5.086  10.649 -0.4763  0.2662 -1.0393
  147SAPE    C116182   2.104   4.951  10.667 -0.8907 -0.7184 -0.1876
  147SAPE    HA16183   2.110   4.909  10.770  1.0404 -2.6585 -1.0202
  147SAPE    HB16184   2.000   4.958  10.629 -1.0522  0.3579  0.4564
  147SAPE    C216185   2.186   4.840  10.583  0.4302 -0.2956  0.5129
  147SAPE    HS16186   2.288   4.837  10.627  0.3886 -2.7037  0.4627
  147SAPE   O2116187   2.174   4.897  10.447  0.2763  0.0207  0.5830
  147SAPE   C2116188   2.258   4.848  10.361 -0.0351 -0.2529  0.2227
  147SAPE   O2216189   2.347   4.769  10.381  0.1337 -0.1209 -0.1720
  147SAPE   C2216190   2.221   4.899  10.222 -0.3623 -0.0016 -0.7857
  147SAPE   H2R16191   2.115   4.869  10.205  0.2462 -2.6014 -0.1080
  147SAPE   H2S16192   2.238   5.008  10.234  1.6377 -0.2740 -1.0206
  147SAPE    C316193   2.138   4.694  10.604 -0.3468  0.1907  0.1025
  147SAPE    HX16194   2.120   4.664  10.710 -0.6068 -0.8270 -0.2229
  147SAPE    HY16195   2.211   4.624  10.558 -2.1662 -0.1924 -2.2699
  147SAPE   O3116196   2.024   4.664  10.521  0.1555  0.4044 -0.6068
  147SAPE   C3116197   1.903   4.698  10.561 -0.4558 -0.1084 -0.3624
  147SAPE   O3216198   1.875   4.758  10.663 -0.1523  0.1937 -0.1185
  147SAPE   C3216199   1.796   4.676  10.454  0.2397  0.2015  0.2779
  147SAPE   H2X16200   1.698   4.685  10.505  0.7151 -0.8561  1.4054
  147SAPE   H2Y16201   1.806   4.567  10.435  3.7183  0.4654  0.3621
  147SAPE   C2316202   2.322   4.857  10.112 -0.4170 -0.4251 -0.6500
  147SAPE   H3R16203   2.422   4.859  10.159 -1.7453  0.9531  2.2857
  147SAPE   H3S16204   2.314   4.928  10.027 -0.7270  1.1983  0.6951
  147SAPE   C2416205   2.288   4.711  10.054 -0.3764  0.8722  0.6684
  147SAPE   H4R16206   2.181   4.702  10.027  0.2248  1.3329 -2.0147
  147SAPE   H4S16207   2.316   4.641  10.135 -3.9670 -1.0662  0.3017
  147SAPE   C2516208   2.372   4.665   9.935  0.4876  0.0772  0.1189
  147SAPE   H5R16209   2.474   4.630   9.954  0.5588  0.7170  0.9466
  147SAPE   C2616210   2.331   4.660   9.806 -0.1820 -0.6710  0.2717
  147SAPE   H6R16211   2.409   4.631   9.734 -3.3564 -0.4351 -3.4385
  147SAPE   C2716212   2.197   4.691   9.744  0.3292 -0.1382  0.9434
  147SAPE   H7R16213   2.118   4.693   9.823  0.6742  0.0861  1.2869
  147SAPE   H7S16214   2.177   4.613   9.668  1.8783 -0.1066  0.4963
  147SAPE   C2816215   2.214   4.831   9.682 -0.2756 -0.2355 -0.5917
  147SAPE   H8R16216   2.236   4.910   9.755  2.6278 -2.0381  0.6032
  147SAPE   C2916217   2.211   4.857   9.548 -1.2821  0.8956  0.1410
  147SAPE   H9R16218   2.221   4.961   9.513 -0.1591  0.7643  0.0534
  147SAPE  C21016219   2.208   4.766   9.429 -0.1910  0.1232  0.3443
  147SAPE  H10R16220   2.266   4.677   9.461 -0.4541  0.0972  0.7526
  147SAPE  H10S16221   2.254   4.806   9.336  1.6126  0.3562  1.3229
  147SAPE  C21116222   2.064   4.736   9.390  0.7437  0.4583  0.5526
  147SAPE  H11R16223   1.989   4.807   9.430  1.9346  1.8484  0.3438
  147SAPE  C21216224   2.023   4.648   9.304 -0.0358  0.2273 -0.5276
  147SAPE  H12R16225   1.917   4.637   9.277 -0.3261  0.8234  0.3843
  147SAPE  C21316226   2.105   4.551   9.228  0.2660  0.0395  0.2285
  147SAPE  H13R16227   2.057   4.451   9.240 -3.5515  1.8506  0.7368
  147SAPE  H13S16228   2.210   4.536   9.261  0.4656  1.2728  0.1606
  147SAPE  C21416229   2.124   4.582   9.088  0.1244  0.4411  0.2286
  147SAPE  H14R16230   2.154   4.685   9.065 -0.2973  0.8645  1.5385
  147SAPE  C21516231   2.096   4.495   8.990  0.2502 -0.5206 -0.1184
  147SAPE  H15R16232   2.134   4.517   8.889 -0.0934 -0.7284 -0.2927
  147SAPE  C21616233   2.050   4.353   9.002 -0.1860  0.5309 -0.0479
  147SAPE  H16R16234   1.939   4.352   9.006 -0.1962 -1.7725 -0.0074
  147SAPE  H16S16235   2.089   4.307   9.095 -2.5126  0.7676  1.0780
  147SAPE  C21716236   2.097   4.268   8.884  0.5857 -0.4267 -0.0568
  147SAPE  H17R16237   2.087   4.160   8.910  2.9253 -0.2061  2.0313
  147SAPE  H17S16238   2.202   4.295   8.859  0.4735  0.5622  0.4933
  147SAPE  C21816239   2.001   4.291   8.762 -0.7622 -0.6805 -1.0998
  147SAPE  H18R16240   2.021   4.393   8.722 -2.3492 -0.1794 -0.6489
  147SAPE  H18S16241   1.896   4.282   8.797 -0.7567 -0.9874 -1.1649
  147SAPE  C21916242   2.038   4.198   8.652  0.3392  0.2507  0.2401
  147SAPE  H19R16243   2.110   4.128   8.699  0.9544  1.3172  0.9111
  147SAPE  H19S16244   2.095   4.245   8.569 -0.9474 -0.5476 -1.1036
  147SAPE  C22016245   1.924   4.108   8.603  0.4356  0.4396  0.6861
  147SAPE  H20R16246   1.867   4.053   8.681  0.2203  1.1805  1.0552
  147SAPE  H20S16247   1.954   4.041   8.520  1.0576 -1.1408  2.1585
  147SAPE  H20T16248   1.847   4.172   8.555  1.4229  2.7469  2.0362
  147SAPE   C3316249   1.785   4.768  10.330 -0.7725  1.2511 -0.6791
  147SAPE   H3X16250   1.850   4.858  10.336  0.4071  0.3245  0.7903
  147SAPE   H3Y16251   1.680   4.805  10.332 -0.3297  2.5440 -0.7851
  147SAPE   C3416252   1.821   4.703  10.193 -0.1633 -0.1583 -0.6155
  147SAPE   H4X16253   1.756   4.617  10.168  3.5332 -3.4594  0.6510
  147SAPE   H4Y16254   1.923   4.659  10.195  0.6078  1.4397 -2.4510
  147SAPE   C3516255   1.799   4.786  10.073 -0.4799  0.1425  0.0634
  147SAPE   H5X16256   1.863   4.876  10.060 -0.4225 -0.4206 -4.7239
  147SAPE   H5Y16257   1.694   4.820  10.063  0.0137  0.9206 -2.9984
  147SAPE   C3616258   1.839   4.702   9.948  0.2282  0.3683  0.4000
  147SAPE   H6X16259   1.759   4.625   9.947  0.0490  0.5239  1.8275
  147SAPE   H6Y16260   1.941   4.661   9.963  1.6484  3.6172 -0.0144
  147SAPE   C3716261   1.847   4.796   9.825 -0.5756  0.1896  0.2200
  147SAPE   H7X16262   1.889   4.733   9.744  0.6106  0.0998  0.8766
  147SAPE   H7Y16263   1.920   4.877   9.847  1.5626 -1.1876 -1.5745
  147SAPE   C3816264   1.719   4.865   9.784  0.6214  0.3128 -0.6481
  147SAPE   H8X16265   1.712   4.974   9.805 -0.8025  0.0133  0.4617
  147SAPE   H8Y16266   1.632   4.824   9.838 -0.6593 -0.7020 -3.4117
  147SAPE   C3916267   1.693   4.841   9.635 -0.2201 -0.2044 -0.7510
  147SAPE   H9X16268   1.688   4.732   9.615  0.5247 -1.0015  2.9857
  147SAPE   H9Y16269   1.780   4.882   9.580 -0.7557  2.1056  0.0559
  147SAPE  C31016270   1.578   4.928   9.577  0.0989 -0.5405 -0.3347
  147SAPE  H10X16271   1.591   5.035   9.602 -1.4711 -0.6721  1.1078
  147SAPE  H10Y16272   1.492   4.907   9.644  1.1522 -1.6532  0.7144
  147SAPE  C31116273   1.535   4.896   9.431  0.8856 -0.0185  1.0672
  147SAPE  H11X16274   1.445   4.960   9.417 -1.0161 -2.8642 -0.3058
  147SAPE  H11Y16275   1.502   4.791   9.420 -2.1105  1.0503 -0.6813
  147SAPE  C31216276   1.642   4.921   9.325  0.3858 -0.0402  0.2633
  147SAPE  H12X16277   1.736   4.871   9.357  1.2391  1.1578 -0.3612
  147SAPE  H12Y16278   1.663   5.029   9.315  0.9580 -0.1962 -0.2818
  147SAPE  C31316279   1.622   4.872   9.176 -0.2880  0.5176 -0.0338
  147SAPE  H13X16280   1.519   4.901   9.146 -0.4413  0.1052  0.0797
  147SAPE  H13Y16281   1.612   4.761   9.179  1.0585  0.3852 -0.1216
  147SAPE  C31416282   1.731   4.920   9.073  0.3027 -1.1661 -0.0209
  147SAPE  H14X16283   1.832   4.903   9.117  0.4322  2.2629  1.1629
  147SAPE  H14Y16284   1.716   5.029   9.059 -1.0201 -1.2910  0.3895
  147SAPE  C31516285   1.729   4.844   8.944  0.0170 -0.1162  0.3007
  147SAPE  H15X16286   1.786   4.905   8.870  1.2420 -1.2135  0.3327
  147SAPE  H15Y16287   1.623   4.837   8.911  0.0039 -1.1262  0.5604
  147SAPE  C31616288   1.775   4.697   8.949 -0.2419 -0.1282 -0.4162
  147SAPE  H16X16289   1.700   4.643   9.009  0.7735 -1.3436 -0.2254
  147SAPE  H16Y16290   1.870   4.682   9.005 -1.8537 -0.3363  2.3898
  147SAPE  C31716291   1.801   4.630   8.812 -0.3625  0.4710 -0.0655
  147SAPE  H17X16292   1.709   4.602   8.755 -1.0440  0.2721  1.1116
  147SAPE  H17Y16293   1.855   4.537   8.838 -1.1125 -0.1720 -0.7618
  147SAPE  C31816294   1.897   4.716   8.724  1.0372 -0.4233  0.9691
  147SAPE  H18X16295   1.974   4.773   8.781  1.7111 -1.7519  1.4094
  147SAPE  H18Y16296   1.826   4.773   8.661  1.6560 -2.6546 -1.8607
  147SAPE  H18Z16297   1.943   4.646   8.651  0.9397  2.2119 -1.6917
  148SAPE     N16298   3.266   0.274  10.506 -0.2393 -0.0961  0.2024
  148SAPE   HN116299   3.185   0.219  10.541 -1.1842  1.2357  0.1555
  148SAPE   HN216300   3.355   0.221  10.514  0.3277  0.6505 -0.9235
  148SAPE   HN316301   3.283   0.358  10.565  0.4870  0.7926 -1.2413
  148SAPE   C1216302   3.221   0.299  10.366 -0.5026  0.4107 -0.4865
  148SAPE  H12A16303   3.202   0.205  10.311  0.5667 -0.0153 -0.1262
  148SAPE  H12B16304   3.316   0.341  10.328  0.7449 -1.9417 -0.0361
  148SAPE   C1116305   3.104   0.386  10.347  0.0932 -0.2794 -0.5353
  148SAPE  H11A16306   3.012   0.348  10.395  0.2868  0.3059  0.2987
  148SAPE  H11B16307   3.082   0.383  10.238 -3.0296  1.5844 -0.0139
  148SAPE     P16308   3.061   0.604  10.484  0.3675  0.0076  0.2144
  148SAPE   O1316309   3.086   0.544  10.617 -0.1688 -0.6772 -0.6045
  148SAPE   O1416310   3.097   0.747  10.468 -0.4384 -0.3434  0.3142
  148SAPE   O1216311   3.137   0.517  10.377  0.4183  0.0349 -0.6558
  148SAPE   O1116312   2.910   0.584  10.447  0.1620  0.0629 -0.2055
  148SAPE    C116313   2.854   0.665  10.344  0.5298 -0.2891  0.0759
  148SAPE    HA16314   2.743   0.655  10.348  0.6240 -1.4515 -0.2128
  148SAPE    HB16315   2.893   0.769  10.353 -1.6462  0.6221 -0.5028
  148SAPE    C216316   2.888   0.613  10.199 -0.4791  0.1374  0.1031
  148SAPE    HS16317   2.907   0.504  10.204  3.8796  0.7661 -1.1850
  148SAPE   O2116318   3.005   0.684  10.158  0.2083 -0.5597  0.3713
  148SAPE   C2116319   3.082   0.627  10.067  0.2280  0.1187 -0.4208
  148SAPE   O2216320   3.050   0.544   9.983 -0.0967  0.5487 -0.2221
  148SAPE   C2216321   3.224   0.689  10.071  0.2515 -0.6782  0.0158
  148SAPE   H2R16322   3.215   0.791  10.028 -1.1422 -0.9118 -0.2747
  148SAPE   H2S16323   3.246   0.687  10.180  2.1561  1.3949 -0.2741
  148SAPE    C316324   2.773   0.646  10.101  0.5481 -0.8143 -0.6869
  148SAPE    HX16325   2.785   0.755  10.080  2.0031 -0.6808  0.6774
  148SAPE    HY16326   2.681   0.615  10.155  0.2812  0.9048 -0.1365
  148SAPE   O3116327   2.792   0.569   9.981 -0.5217  0.1141 -0.2083
  148SAPE   C3116328   2.739   0.447   9.978 -0.0713 -0.3518  0.4708
  148SAPE   O3216329   2.687   0.401  10.076  0.3534 -0.5428  0.7543
  148SAPE   C3216330   2.771   0.381   9.847  0.4402  0.0838 -0.6357
  148SAPE   H2X16331   2.882   0.383   9.844  0.5136 -0.5194  1.1395
  148SAPE   H2Y16332   2.712   0.439   9.772 -2.6087  0.6004  2.0062
  148SAPE   C2316333   3.328   0.608   9.992  0.1954 -0.4736  0.1520
  148SAPE   H3R16334   3.310   0.498   9.991 -0.0051 -0.4480  0.5264
  148SAPE   H3S16335   3.429   0.617  10.036  1.3319 -0.8880 -2.3546
  148SAPE   C2416336   3.316   0.643   9.841  0.4649 -0.0125  0.7667
  148SAPE   H4R16337   3.330   0.753   9.842 -1.7718  0.3619 -2.6279
  148SAPE   H4S16338   3.214   0.618   9.806  0.0307  0.0243  1.9895
  148SAPE   C2516339   3.422   0.577   9.752 -0.6263  0.0852  0.1557
  148SAPE   H5R16340   3.515   0.537   9.793 -1.7652 -2.3011  0.4919
  148SAPE   C2616341   3.407   0.539   9.620  0.1655 -0.2833  0.2419
  148SAPE   H6R16342   3.491   0.487   9.572 -1.2687 -3.1822  0.7715
  148SAPE   C2716343   3.281   0.540   9.533 -0.1505  0.0724  0.2888
  148SAPE   H7R16344   3.254   0.644   9.504 -0.4693 -0.7475 -2.5170
  148SAPE   H7S16345   3.197   0.507   9.597  1.3404 -2.2476  1.0706
  148SAPE   C2816346   3.287   0.440   9.417  0.2354 -0.2063 -0.0625
  148SAPE   H8R16347   3.261   0.334   9.433 -0.8359 -0.5050 -3.3666
  148SAPE   C2916348   3.305   0.479   9.293 -0.0760 -0.7370 -0.2790
  148SAPE   H9R16349   3.315   0.397   9.221 -0.8483 -2.4743  1.5415
  148SAPE  C21016350   3.340   0.612   9.239  0.4928  0.0782 -0.9984
  148SAPE  H10R16351   3.333   0.688   9.319  2.3096  1.5735 -2.2150
  148SAPE  H10S16352   3.270   0.645   9.159 -2.0009  0.0783  1.1373
  148SAPE  C21116353   3.485   0.612   9.189 -0.6523  0.0176  0.1978
  148SAPE  H11R16354   3.560   0.654   9.258 -0.2723  0.4527 -0.4662
  148SAPE  C21216355   3.525   0.584   9.064  0.7811 -0.1675  0.4563
  148SAPE  H12R16356   3.632   0.584   9.039  1.0143 -0.7165  1.4380
  148SAPE  C21316357   3.443   0.542   8.940 -0.3887 -0.1718 -0.1459
  148SAPE  H13R16358   3.502   0.583   8.856  0.3268 -0.5486  0.1734
  148SAPE  H13S16359   3.340   0.583   8.933 -1.2831 -2.1346  0.8849
  148SAPE  C21416360   3.435   0.395   8.916 -0.2173  0.7401 -0.6160
  148SAPE  H14R16361   3.525   0.335   8.932 -1.1440 -0.1001  1.4989
  148SAPE  C21516362   3.328   0.332   8.871 -0.9280  0.2879  0.2739
  148SAPE  H15R16363   3.333   0.222   8.875 -0.6247  0.2604 -0.9087
  148SAPE  C21616364   3.194   0.391   8.814  0.2032 -0.6269  0.3886
  148SAPE  H16R16365   3.219   0.487   8.763 -2.7234  0.0701  0.1566
  148SAPE  H16S16366   3.124   0.416   8.897  1.2556 -0.7350  1.3160
  148SAPE  C21716367   3.137   0.292   8.711 -0.0177  0.1654 -0.0769
  148SAPE  H17R16368   3.043   0.342   8.677  0.1784 -1.3228 -2.9771
  148SAPE  H17S16369   3.101   0.197   8.757 -1.2718  0.9784  0.6449
  148SAPE  C21816370   3.228   0.266   8.594 -0.3333  0.4346 -0.0516
  148SAPE  H18R16371   3.325   0.231   8.634 -0.5019  0.5179  0.4353
  148SAPE  H18S16372   3.240   0.361   8.538 -2.2108  1.3090  0.9644
  148SAPE  C21916373   3.180   0.151   8.504  0.2168  0.7138  0.0619
  148SAPE  H19R16374   3.187   0.056   8.561 -3.4031  0.4278  0.1538
  148SAPE  H19S16375   3.247   0.126   8.419  0.3300 -0.2070  0.4173
  148SAPE  C22016376   3.039   0.162   8.455 -0.7322 -0.5191 -0.5371
  148SAPE  H20R16377   3.011   0.073   8.394  1.0575 -1.4406 -0.0428
  148SAPE  H20S16378   3.034   0.265   8.412  0.2660  0.0168  0.5956
  148SAPE  H20T16379   2.975   0.164   8.545  0.0754 -0.1437  0.0378
  148SAPE   C3316380   2.730   0.233   9.844 -0.0828  0.1331  0.0436
  148SAPE   H3X16381   2.625   0.213   9.875 -0.4121  0.3083 -0.9275
  148SAPE   H3Y16382   2.788   0.159   9.902  0.2617 -1.7103 -2.5471
  148SAPE   C3416383   2.732   0.183   9.694  0.1584 -0.1202 -0.3603
  148SAPE   H4X16384   2.645   0.225   9.639  0.8983  0.5490 -1.0456
  148SAPE   H4Y16385   2.702   0.076   9.691 -1.7694  0.3885  0.3603
  148SAPE   C3516386   2.850   0.219   9.609 -0.3511  0.2787  0.0998
  148SAPE   H5X16387   2.946   0.193   9.660 -0.0250 -0.8932 -1.1051
  148SAPE   H5Y16388   2.851   0.330   9.618  2.2756  0.1547  2.2163
  148SAPE   C3616389   2.838   0.158   9.469  0.2219  0.1226  0.3178
  148SAPE   H6X16390   2.740   0.106   9.461  1.0428 -1.3338 -0.3970
  148SAPE   H6Y16391   2.914   0.077   9.460  0.3804  0.0739  2.0176
  148SAPE   C3716392   2.853   0.261   9.355 -0.0044  0.3955 -0.4540
  148SAPE   H7X16393   2.946   0.321   9.366  0.4330 -0.5291  1.0259
  148SAPE   H7Y16394   2.773   0.338   9.352  0.7608  1.2131 -0.2680
  148SAPE   C3816395   2.861   0.185   9.215  0.3976  0.2119 -0.5468
  148SAPE   H8X16396   2.759   0.149   9.190 -0.1964  1.0203  0.6212
  148SAPE   H8Y16397   2.925   0.094   9.220  1.8523  1.2959  1.9312
  148SAPE   C3916398   2.899   0.283   9.105 -0.5322 -0.3067 -0.0075
  148SAPE   H9X16399   2.985   0.349   9.127 -0.9396  0.5567 -0.9814
  148SAPE   H9Y16400   2.815   0.355   9.104 -0.7989 -0.5513  2.1300
  148SAPE  C31016401   2.898   0.221   8.960  0.0352 -0.8891  0.6249
  148SAPE  H10X16402   3.004   0.188   8.954 -0.0761 -1.3387  1.1327
  148SAPE  H10Y16403   2.889   0.305   8.889  3.3768 -0.9260  0.0769
  148SAPE  C31116404   2.805   0.107   8.924  0.4702  0.1200 -0.0898
  148SAPE  H11X16405   2.701   0.147   8.927  0.0606 -0.8972 -0.6278
  148SAPE  H11Y16406   2.823   0.029   9.000 -1.7204  0.3816  0.7435
  148SAPE  C31216407   2.833   0.069   8.779 -0.4083 -0.3760 -0.2319
  148SAPE  H12X16408   2.935   0.024   8.782  0.1182  0.7016 -1.1436
  148SAPE  H12Y16409   2.828   0.162   8.718  0.1081 -0.5029 -0.4712
  148SAPE  C31316410   2.735  -0.043   8.740 -0.1420  0.3750  0.3587
  148SAPE  H13X16411   2.630  -0.011   8.757 -0.8436 -1.6799  0.0138
  148SAPE  H13Y16412   2.757  -0.127   8.809  0.5190  1.1836  1.1402
  148SAPE  C31416413   2.763  -0.091   8.595  0.1684 -0.3641  0.4682
  148SAPE  H14X16414   2.872  -0.108   8.588  0.1463  0.2078 -1.4694
  148SAPE  H14Y16415   2.754  -0.012   8.518 -0.6390 -2.0592 -1.2522
  148SAPE  C31516416   2.709  -0.225   8.545  0.2397 -0.0568 -0.3053
  148SAPE  H15X16417   2.762  -0.302   8.604  1.1713  1.0254  0.2804
  148SAPE  H15Y16418   2.741  -0.243   8.440 -1.1696 -1.5874 -0.5017
  148SAPE  C31616419   2.560  -0.242   8.560  0.1755 -0.2725  0.8471
  148SAPE  H16X16420   2.502  -0.170   8.499 -0.6408 -0.2464  1.6299
  148SAPE  H16Y16421   2.523  -0.224   8.664 -1.9027  0.5021  0.0004
  148SAPE  C31716422   2.512  -0.391   8.541  0.0362  0.8347  0.6706
  148SAPE  H17X16423   2.403  -0.395   8.562  0.1835 -0.7349  1.2364
  148SAPE  H17Y16424   2.559  -0.459   8.615  1.5932 -0.7831 -1.7357
  148SAPE  C31816425   2.539  -0.444   8.403  0.0393 -0.3811  0.4346
  148SAPE  H18X16426   2.647  -0.427   8.382  0.0376  0.9803  1.4854
  148SAPE  H18Y16427   2.485  -0.390   8.322 -0.6210  0.2224  1.2720
  148SAPE  H18Z16428   2.518  -0.552   8.392  0.8430 -0.4409 -0.6427
  149SAPE     N16429   0.006   2.908  10.995 -0.4001 -0.9661  0.0130
  149SAPE   HN116430   0.079   2.834  10.992  0.4826 -0.1123 -0.0626
  149SAPE   HN216431   0.056   2.999  10.985 -2.3389  0.1500  0.2225
  149SAPE   HN316432  -0.029   2.918  11.093 -2.0773 -1.0995 -0.5571
  149SAPE   C1216433  -0.102   2.875  10.899  0.8160 -0.6263  0.3853
  149SAPE  H12A16434  -0.146   2.778  10.930  0.7671 -0.8632 -0.4081
  149SAPE  H12B16435  -0.055   2.846  10.803 -0.8986 -2.2410 -0.0032
  149SAPE   C1116436  -0.199   2.991  10.891 -0.3592  0.6645 -1.1421
  149SAPE  H11A16437  -0.273   2.981  10.808 -1.1755 -3.1917 -0.0631
  149SAPE  H11B16438  -0.130   3.076  10.870  0.3974  0.4735  0.5473
  149SAPE     P16439  -0.400   2.943  11.071  0.2085  0.0172 -0.0217
  149SAPE   O1316440  -0.378   2.798  11.105 -0.3982  0.0855 -0.0674
  149SAPE   O1416441  -0.437   3.030  11.186 -0.4148 -0.3385 -0.0041
  149SAPE   O1216442  -0.267   3.011  11.016 -0.9409 -0.1421  0.3168
  149SAPE   O1116443  -0.511   2.945  10.961  0.1205  0.0801  0.0245
  149SAPE    C116444  -0.557   3.077  10.920  0.0848 -0.5960  0.3924
  149SAPE    HA16445  -0.626   3.128  10.991 -1.5135 -2.5650  0.2848
  149SAPE    HB16446  -0.470   3.144  10.902 -0.6797 -0.0805 -1.3940
  149SAPE    C216447  -0.645   3.058  10.794 -0.3545  0.0520  0.4316
  149SAPE    HS16448  -0.704   3.151  10.778  1.2326  1.0098 -0.0229
  149SAPE   O2116449  -0.735   2.946  10.791  0.3364  0.0367 -0.0105
  149SAPE   C2116450  -0.845   2.970  10.871  0.0778 -0.2187  0.3917
  149SAPE   O2216451  -0.853   3.060  10.951  0.0140 -0.0981  0.3761
  149SAPE   C2216452  -0.941   2.855  10.850  0.7221  0.0669  0.0820
  149SAPE   H2R16453  -1.037   2.899  10.815  0.6448  1.0671  1.5062
  149SAPE   H2S16454  -0.911   2.802  10.757 -0.4394  2.3277 -1.6099
  149SAPE    C316455  -0.567   3.038  10.654  0.0652  0.0484 -0.5908
  149SAPE    HX16456  -0.496   3.121  10.634  0.1578  0.9418  3.1453
  149SAPE    HY16457  -0.644   3.039  10.574 -0.8182 -0.8187  0.2307
  149SAPE   O3116458  -0.498   2.909  10.658 -0.1318  0.0307  0.7701
  149SAPE   C3116459  -0.438   2.864  10.546 -0.5181 -0.3447 -0.1531
  149SAPE   O3216460  -0.433   2.930  10.440 -0.3769  0.5707  0.0322
  149SAPE   C3216461  -0.374   2.730  10.568 -0.6152 -0.0741  0.0721
  149SAPE   H2X16462  -0.448   2.657  10.530 -0.8257 -0.5405  1.3513
  149SAPE   H2Y16463  -0.357   2.718  10.677 -1.0088 -0.7327  0.0678
  149SAPE   C2316464  -0.955   2.755  10.967  0.2378 -0.2273  0.0364
  149SAPE   H3R16465  -1.029   2.788  11.043 -0.3308 -1.0274 -0.1612
  149SAPE   H3S16466  -0.858   2.748  11.020  1.0147 -0.7269 -1.4592
  149SAPE   C2416467  -0.991   2.614  10.912  0.3286  0.4706 -0.3989
  149SAPE   H4R16468  -1.082   2.629  10.850 -0.1293  1.2217  0.4491
  149SAPE   H4S16469  -1.024   2.572  11.009  0.5855  1.6493  0.2158
  149SAPE   C2516470  -0.883   2.531  10.854 -0.0383  0.1639 -0.0349
  149SAPE   H5R16471  -0.818   2.483  10.928  0.9026  0.0960 -0.8969
  149SAPE   C2616472  -0.856   2.505  10.724  0.2833 -0.1333 -0.4563
  149SAPE   H6R16473  -0.775   2.438  10.692 -0.2076 -1.4486  0.9933
  149SAPE   C2716474  -0.939   2.569  10.612 -0.2044 -0.0535  0.4801
  149SAPE   H7R16475  -0.882   2.661  10.588 -0.9646  0.1486 -0.5979
  149SAPE   H7S16476  -1.043   2.598  10.637 -0.1188 -0.6174  1.5328
  149SAPE   C2816477  -0.950   2.494  10.484 -0.3969  0.6458  1.3671
  149SAPE   H8R16478  -1.045   2.440  10.470  0.4927 -0.7207  0.4074
  149SAPE   C2916479  -0.851   2.470  10.394 -0.0794 -0.6350  0.3524
  149SAPE   H9R16480  -0.869   2.403  10.309  1.7196 -0.0813 -0.4752
  149SAPE  C21016481  -0.714   2.534  10.406 -0.3160  0.4470  0.5427
  149SAPE  H10R16482  -0.640   2.474  10.350 -2.6596 -0.5805 -1.5045
  149SAPE  H10S16483  -0.669   2.518  10.507  0.0489 -1.4173  0.0870
  149SAPE  C21116484  -0.702   2.679  10.365  0.2305 -0.3363 -0.0886
  149SAPE  H11R16485  -0.678   2.745  10.450 -1.0658  1.1540 -0.8583
  149SAPE  C21216486  -0.689   2.734  10.239 -0.2706 -0.1622 -0.4123
  149SAPE  H12R16487  -0.675   2.844  10.240 -0.5646 -0.1358  0.7127
  149SAPE  C21316488  -0.706   2.649  10.119 -0.2297 -0.2889 -0.0391
  149SAPE  H13R16489  -0.651   2.553  10.127 -0.3489 -0.6577 -2.9978
  149SAPE  H13S16490  -0.657   2.702  10.034 -0.5562 -0.1330 -0.1340
  149SAPE  C21416491  -0.852   2.609  10.084  0.3191  0.5514 -0.1245
  149SAPE  H14R16492  -0.917   2.602  10.172  2.1817 -1.2499  1.1754
  149SAPE  C21516493  -0.898   2.560   9.971  0.1145  0.0773  0.0470
  149SAPE  H15R16494  -1.004   2.531   9.966  0.2099 -1.0022  3.1814
  149SAPE  C21616495  -0.814   2.543   9.844 -0.2128 -0.1640  0.3004
  149SAPE  H16R16496  -0.760   2.447   9.836  0.5229  0.3489 -1.1281
  149SAPE  H16S16497  -0.740   2.625   9.840  1.0799 -1.3822 -1.2899
  149SAPE  C21716498  -0.901   2.551   9.720 -0.1298 -0.0787 -0.0095
  149SAPE  H17R16499  -0.969   2.639   9.727 -0.1166 -0.1696  1.4778
  149SAPE  H17S16500  -0.963   2.461   9.698 -1.6756  0.8767  0.3197
  149SAPE  C21816501  -0.823   2.585   9.590  0.2332 -0.5778 -0.4256
  149SAPE  H18R16502  -0.738   2.514   9.597  0.8233  0.1574  0.0093
  149SAPE  H18S16503  -0.786   2.689   9.603 -1.9869  0.0137  1.6184
  149SAPE  C21916504  -0.912   2.562   9.459  0.2203 -0.5974  0.2885
  149SAPE  H19R16505  -1.003   2.624   9.466  0.5950  0.0831 -0.8740
  149SAPE  H19S16506  -0.953   2.459   9.452  0.8511 -0.8969  0.9237
  149SAPE  C22016507  -0.839   2.599   9.329  0.0119  0.4462  0.1372
  149SAPE  H20R16508  -0.839   2.710   9.334  2.2833  0.4736 -0.1280
  149SAPE  H20S16509  -0.894   2.565   9.238 -0.7246 -1.2868  1.2043
  149SAPE  H20T16510  -0.734   2.564   9.328 -1.1616 -3.3220  0.7790
  149SAPE   C3316511  -0.242   2.711  10.489 -0.6253  0.6710  0.1003
  149SAPE   H3X16512  -0.181   2.635  10.541 -1.0400  1.3079  1.5460
  149SAPE   H3Y16513  -0.182   2.805  10.493  2.1692 -1.0974  1.1396
  149SAPE   C3416514  -0.262   2.661  10.350 -0.3414 -0.1968 -0.0126
  149SAPE   H4X16515  -0.303   2.743  10.287  0.4063  0.2411  0.0646
  149SAPE   H4Y16516  -0.337   2.579  10.349 -0.6709  0.1033  0.0197
  149SAPE   C3516517  -0.140   2.591  10.278  0.5150  0.2875 -0.9745
  149SAPE   H5X16518  -0.098   2.519  10.352 -1.3206 -1.0800 -1.2187
  149SAPE   H5Y16519  -0.056   2.664  10.272 -1.5251  2.7499 -0.6884
  149SAPE   C3616520  -0.174   2.519  10.149  0.3080  0.4098 -0.6139
  149SAPE   H6X16521  -0.229   2.424  10.168  2.9789 -1.0739 -0.1953
  149SAPE   H6Y16522  -0.081   2.488  10.097  0.2487  0.2658 -0.6337
  149SAPE   C3716523  -0.232   2.620  10.047  0.0709 -0.4522  0.7480
  149SAPE   H7X16524  -0.155   2.699  10.033  0.3512 -0.8073  0.2520
  149SAPE   H7Y16525  -0.318   2.675  10.091  0.1789 -0.3254  0.8006
  149SAPE   C3816526  -0.263   2.556   9.912  0.1979  0.5124  0.0090
  149SAPE   H8X16527  -0.172   2.506   9.874 -0.3457  0.0372 -0.6659
  149SAPE   H8Y16528  -0.290   2.641   9.847  1.9255  0.5727 -0.6271
  149SAPE   C3916529  -0.374   2.438   9.912  0.0090  0.3086 -0.2934
  149SAPE   H9X16530  -0.455   2.501   9.954 -0.7971 -0.3465 -0.8420
  149SAPE   H9Y16531  -0.342   2.359   9.983  0.5002 -0.1971 -1.0573
  149SAPE  C31016532  -0.405   2.380   9.777  0.1877 -0.0077  0.7827
  149SAPE  H10X16533  -0.502   2.328   9.796  0.3352 -1.5590 -2.4466
  149SAPE  H10Y16534  -0.334   2.300   9.748  1.2625  1.0053  0.5745
  149SAPE  C31116535  -0.412   2.482   9.662  0.5771 -0.9710 -0.1368
  149SAPE  H11X16536  -0.308   2.522   9.660  0.7751 -1.4096  0.9218
  149SAPE  H11Y16537  -0.487   2.559   9.690  1.0070 -1.1621  1.6645
  149SAPE  C31216538  -0.448   2.418   9.531  0.0926 -0.6842 -0.9038
  149SAPE  H12X16539  -0.555   2.429   9.503  0.5260  1.9148 -1.6927
  149SAPE  H12Y16540  -0.437   2.309   9.549  1.7488 -0.6635 -1.7660
  149SAPE  C31316541  -0.347   2.455   9.417  0.3444 -0.5626  0.2117
  149SAPE  H13X16542  -0.342   2.361   9.358  0.4538 -0.8467  0.6705
  149SAPE  H13Y16543  -0.248   2.478   9.460  1.6116 -1.8987 -1.8754
  149SAPE  C31416544  -0.407   2.570   9.328 -0.1219  0.2356  0.0726
  149SAPE  H14X16545  -0.421   2.656   9.397  3.5148  0.9255  0.0150
  149SAPE  H14Y16546  -0.502   2.537   9.280 -0.1410 -1.1151  1.0197
  149SAPE  C31516547  -0.323   2.624   9.218 -0.5870  0.4263 -0.3669
  149SAPE  H15X16548  -0.227   2.656   9.265 -1.0096 -1.4497  1.8476
  149SAPE  H15Y16549  -0.366   2.712   9.166  0.6373 -0.0459 -2.2412
  149SAPE  C31616550  -0.278   2.530   9.101  0.5138  0.4286 -0.5502
  149SAPE  H16X16551  -0.349   2.449   9.075  1.3918 -0.5094 -0.0790
  149SAPE  H16Y16552  -0.181   2.483   9.130 -0.4033 -2.1099 -1.4758
  149SAPE  C31716553  -0.257   2.612   8.974 -1.2842  0.3387  0.5265
  149SAPE  H17X16554  -0.176   2.681   9.005 -0.1186 -0.4855 -0.6134
  149SAPE  H17Y16555  -0.341   2.677   8.940 -0.5853  0.7002 -0.5484
  149SAPE  C31816556  -0.203   2.524   8.855 -0.0486  0.1283 -0.4863
  149SAPE  H18X16557  -0.280   2.443   8.848 -2.1051  1.7095  2.6228
  149SAPE  H18Y16558  -0.108   2.484   8.894  0.0539 -0.4083 -1.2617
  149SAPE  H18Z16559  -0.195   2.576   8.757  1.3648  1.0363  0.0964
  150SAPE     N16560   0.577   2.346  10.682  0.5508 -0.2893  0.0112
  150SAPE   HN116561   0.493   2.332  10.742 -0.1565  0.3581 -0.8228
  150SAPE   HN216562   0.657   2.296  10.726 -0.6535 -2.2579  0.0291
  150SAPE   HN316563   0.590   2.449  10.690 -2.0293 -0.0307  1.3316
  150SAPE   C1216564   0.549   2.288  10.550 -0.3407 -0.3414 -0.7240
  150SAPE  H12A16565   0.644   2.311  10.497 -0.7746  1.2694 -0.8273
  150SAPE  H12B16566   0.456   2.335  10.511  0.9040  0.5173 -2.7250
  150SAPE   C1116567   0.513   2.140  10.560 -0.3214 -0.4982 -0.3171
  150SAPE  H11A16568   0.592   2.083  10.613  0.6984  1.7823  0.6850
  150SAPE  H11B16569   0.500   2.112  10.453  0.2871  0.7634 -0.7384
  150SAPE     P16570   0.248   2.098  10.588 -0.0222 -0.0664 -0.0163
  150SAPE   O1316571   0.182   2.030  10.705  0.3533  0.2793  0.3673
  150SAPE   O1416572   0.186   2.222  10.524 -0.0492  0.0818 -0.2164
  150SAPE   O1216573   0.390   2.139  10.638 -0.0756 -0.2747  0.9106
  150SAPE   O1116574   0.278   1.992  10.477  0.2766 -0.1026  0.0134
  150SAPE    C116575   0.336   1.865  10.509 -0.3036 -0.2502  0.4749
  150SAPE    HA16576   0.376   1.869  10.612 -0.8905  0.4344  0.6778
  150SAPE    HB16577   0.260   1.784  10.494 -0.2130 -0.5523  1.6114
  150SAPE    C216578   0.460   1.825  10.427 -0.7632 -0.1530 -0.2001
  150SAPE    HS16579   0.541   1.901  10.423 -2.0892  1.4109  1.7126
  150SAPE   O2116580   0.415   1.786  10.301 -1.0459  0.1142 -0.1525
  150SAPE   C2116581   0.417   1.885  10.212  0.0459 -0.8481  0.0845
  150SAPE   O2216582   0.454   1.996  10.232  0.2530  0.1551 -0.0970
  150SAPE   C2216583   0.353   1.832  10.082 -0.1897  0.0281  0.3011
  150SAPE   H2R16584   0.246   1.804  10.087 -0.6796  1.9252  0.8799
  150SAPE   H2S16585   0.356   1.917  10.010  0.2440 -0.1181  0.1411
  150SAPE    C316586   0.544   1.710  10.489 -0.3287  0.6630 -0.6793
  150SAPE    HX16587   0.484   1.617  10.476 -0.3956  0.3408  1.7098
  150SAPE    HY16588   0.550   1.725  10.599  1.1249 -2.3062 -0.2904
  150SAPE   O3116589   0.669   1.691  10.426 -0.6396 -0.1765  0.2123
  150SAPE   C3116590   0.778   1.718  10.486  0.6261 -0.5729  0.0618
  150SAPE   O3216591   0.782   1.769  10.601  0.2403  0.7332 -0.9050
  150SAPE   C3216592   0.900   1.678  10.400  0.7267 -0.5792  0.1036
  150SAPE   H2X16593   0.861   1.682  10.296  0.6751 -0.9697  0.1099
  150SAPE   H2Y16594   0.921   1.574  10.430 -2.2209 -1.5683 -1.0751
  150SAPE   C2316595   0.424   1.710  10.016  0.0748  0.7682  0.1295
  150SAPE   H3R16596   0.407   1.610  10.062  2.7449  0.0476 -0.3661
  150SAPE   H3S16597   0.534   1.725  10.011  0.4442 -1.5456  0.3749
  150SAPE   C2416598   0.377   1.702   9.872 -0.2018 -0.4952 -0.8401
  150SAPE   H4R16599   0.432   1.615   9.832  1.4349  0.1518 -0.0481
  150SAPE   H4S16600   0.429   1.789   9.826 -0.3193  0.4823  0.8306
  150SAPE   C2516601   0.227   1.692   9.842  0.1942 -0.5068 -0.4182
  150SAPE   H5R16602   0.166   1.633   9.911 -1.2575 -0.2293 -1.4573
  150SAPE   C2616603   0.173   1.723   9.718  0.1122 -0.3791 -0.9625
  150SAPE   H6R16604   0.065   1.725   9.700 -0.0635  2.8019  0.0184
  150SAPE   C2716605   0.247   1.770   9.604 -0.1596  0.1536 -0.3983
  150SAPE   H7R16606   0.309   1.690   9.560 -0.8465 -1.1367  0.9175
  150SAPE   H7S16607   0.320   1.849   9.632  0.4466 -0.7023  0.4365
  150SAPE   C2816608   0.159   1.835   9.503  0.6471  0.4524  0.0623
  150SAPE   H8R16609   0.069   1.880   9.547  1.2288  0.5349  1.1812
  150SAPE   C2916610   0.183   1.836   9.372  0.3102 -0.4691 -0.4719
  150SAPE   H9R16611   0.108   1.879   9.304  0.9647 -0.0027 -0.9050
  150SAPE  C21016612   0.298   1.776   9.293 -0.4398 -0.0730  0.7112
  150SAPE  H10R16613   0.374   1.736   9.364  0.8955  2.8698  1.0133
  150SAPE  H10S16614   0.353   1.856   9.239 -1.8231  1.2274  1.2031
  150SAPE  C21116615   0.245   1.677   9.194 -0.2683  0.1500  0.0534
  150SAPE  H11R16616   0.220   1.577   9.235 -0.4669  0.4604  0.7005
  150SAPE  C21216617   0.218   1.696   9.064  0.0857 -0.2958 -0.9643
  150SAPE  H12R16618   0.167   1.619   9.004  3.2757 -0.9315 -3.0344
  150SAPE  C21316619   0.243   1.826   8.993  0.4061  0.4413  0.3669
  150SAPE  H13R16620   0.190   1.911   9.041  1.0214  0.9975  0.0616
  150SAPE  H13S16621   0.197   1.813   8.893 -0.5647 -2.3673  1.1139
  150SAPE  C21416622   0.389   1.850   8.968 -0.1431 -0.6577 -0.0155
  150SAPE  H14R16623   0.462   1.808   9.039 -1.0872 -1.1362  0.6921
  150SAPE  C21516624   0.453   1.908   8.863 -0.3436  0.0585  0.2220
  150SAPE  H15R16625   0.563   1.916   8.858 -0.5560  2.3456 -1.7577
  150SAPE  C21616626   0.380   1.973   8.744  0.2750  0.1032  0.1904
  150SAPE  H16R16627   0.280   1.926   8.739  0.0483  0.5245  0.7584
  150SAPE  H16S16628   0.438   1.944   8.653 -2.2262 -0.8887 -1.1519
  150SAPE  C21716629   0.363   2.121   8.758  0.7308 -0.1631 -0.0817
  150SAPE  H17R16630   0.304   2.164   8.674 -1.3387  0.5066  1.6916
  150SAPE  H17S16631   0.461   2.174   8.764  0.2225  0.6621  0.9300
  150SAPE  C21816632   0.277   2.151   8.888  0.2793  0.2971 -0.3067
  150SAPE  H18R16633   0.342   2.110   8.968  0.5838  1.5042  0.0697
  150SAPE  H18S16634   0.183   2.092   8.893  0.2213  0.3104 -1.0630
  150SAPE  C21916635   0.255   2.300   8.915  1.0499 -0.1386 -0.0310
  150SAPE  H19R16636   0.172   2.326   8.845  1.0786 -0.5163 -0.2053
  150SAPE  H19S16637   0.342   2.364   8.890 -0.5003  2.6884  1.5318
  150SAPE  C22016638   0.225   2.338   9.066  0.1710 -0.4986  0.0528
  150SAPE  H20R16639   0.167   2.257   9.115  1.3152 -1.5734 -0.3123
  150SAPE  H20S16640   0.164   2.430   9.077  3.0321  1.3298  1.2455
  150SAPE  H20T16641   0.317   2.344   9.129 -0.5494 -1.5152  1.2377
  150SAPE   C3316642   1.009   1.789  10.409 -0.6407 -0.4228 -0.2410
  150SAPE   H3X16643   1.043   1.799  10.514  1.6855  2.5734 -1.2250
  150SAPE   H3Y16644   0.976   1.894  10.391 -0.4957 -0.4324 -0.5668
  150SAPE   C3416645   1.127   1.757  10.315 -0.5006  0.2313 -0.5301
  150SAPE   H4X16646   1.145   1.649  10.332 -0.8640  0.6697  2.9357
  150SAPE   H4Y16647   1.215   1.810  10.356 -1.2402  1.4024 -0.4151
  150SAPE   C3516648   1.104   1.811  10.172 -0.7148 -0.7473  0.1771
  150SAPE   H5X16649   1.103   1.921  10.182  2.2037 -0.6679 -0.2040
  150SAPE   H5Y16650   1.002   1.794  10.130  0.1471 -0.5907 -2.0441
  150SAPE   C3616651   1.212   1.772  10.069  0.3694 -0.0773  0.0215
  150SAPE   H6X16652   1.212   1.661  10.061  0.2778  0.0854 -2.3242
  150SAPE   H6Y16653   1.310   1.807  10.107  0.0581  0.1150  0.6718
  150SAPE   C3716654   1.191   1.828   9.920  0.2264  0.2281 -0.0270
  150SAPE   H7X16655   1.181   1.939   9.913  1.4004  0.3593  0.3910
  150SAPE   H7Y16656   1.091   1.792   9.887 -0.8115  2.1774  0.9194
  150SAPE   C3816657   1.301   1.772   9.831 -0.2472 -0.7768 -1.2193
  150SAPE   H8X16658   1.278   1.664   9.818  1.1292 -1.2829  0.4003
  150SAPE   H8Y16659   1.390   1.781   9.896 -0.8173 -2.2361 -0.2094
  150SAPE   C3916660   1.315   1.850   9.701 -0.0296  0.6182 -0.3276
  150SAPE   H9X16661   1.396   1.798   9.645  0.5698  1.1097  0.0818
  150SAPE   H9Y16662   1.347   1.954   9.722  1.9488 -0.2591  1.1623
  150SAPE  C31016663   1.199   1.838   9.611  0.0048 -0.1685 -0.0963
  150SAPE  H10X16664   1.130   1.923   9.629 -0.7085 -0.5722 -0.8551
  150SAPE  H10Y16665   1.148   1.741   9.631  1.2926 -0.8829 -0.2340
  150SAPE  C31116666   1.237   1.824   9.464 -0.4766 -0.3603 -0.8234
  150SAPE  H11X16667   1.287   1.726   9.446 -1.3148 -0.8286 -0.6184
  150SAPE  H11Y16668   1.306   1.910   9.453 -1.1254  0.2601 -0.1072
  150SAPE  C31216669   1.124   1.837   9.369 -0.1285 -0.3960 -0.1345
  150SAPE  H12X16670   1.061   1.921   9.405  1.5466  1.5164 -1.6016
  150SAPE  H12Y16671   1.055   1.750   9.371 -0.1084 -0.4190 -0.4832
  150SAPE  C31316672   1.172   1.858   9.229 -0.4890 -0.2968  0.0816
  150SAPE  H13X16673   1.245   1.776   9.209  0.1598  0.4710 -0.7474
  150SAPE  H13Y16674   1.227   1.954   9.232  0.6142 -0.9318  0.5404
  150SAPE  C31416675   1.053   1.861   9.129  0.5629 -0.1009 -0.4101
  150SAPE  H14X16676   0.969   1.920   9.173 -0.6379 -2.2036  0.2124
  150SAPE  H14Y16677   1.014   1.757   9.115 -0.9200  0.3744  0.0319
  150SAPE  C31516678   1.092   1.919   8.983 -0.4343  0.6740 -0.6908
  150SAPE  H15X16679   1.151   2.011   9.001 -1.2199  1.1518 -0.5771
  150SAPE  H15Y16680   0.999   1.945   8.929 -0.1571  0.2818 -1.3562
  150SAPE  C31616681   1.163   1.810   8.902  0.9233  0.0026  0.2405
  150SAPE  H16X16682   1.093   1.727   8.878  2.3809 -0.7926 -1.4615
  150SAPE  H16Y16683   1.246   1.769   8.964  0.0422 -0.2682  1.2622
  150SAPE  C31716684   1.221   1.869   8.771  0.1596 -0.1089  0.3870
  150SAPE  H17X16685   1.278   1.961   8.797 -2.7365  1.4046  1.5173
  150SAPE  H17Y16686   1.141   1.896   8.699 -0.3738  1.8427  1.6900
  150SAPE  C31816687   1.324   1.783   8.693  0.1471  0.3122 -0.0787
  150SAPE  H18X16688   1.397   1.740   8.765  1.6800  1.1921 -1.0874
  150SAPE  H18Y16689   1.371   1.835   8.607  0.7921  0.5739  0.4287
  150SAPE  H18Z16690   1.266   1.694   8.659 -1.7488  1.3922  0.2239
  151SAPE     N16691   4.428   4.957  10.382  0.6758 -0.4600  0.0273
  151SAPE   HN116692   4.439   5.053  10.345  0.3589  0.4573  2.2067
  151SAPE   HN216693   4.374   4.895  10.319  0.1672 -1.2074  1.1813
  151SAPE   HN316694   4.383   4.955  10.476 -2.4662 -4.0196 -1.4179
  151SAPE   C1216695   4.572   4.917  10.396 -0.0367  0.4377 -0.4753
  151SAPE  H12A16696   4.575   4.807  10.413 -1.1215  0.4276 -0.3108
  151SAPE  H12B16697   4.611   4.964  10.489 -1.3751 -2.4003  1.6188
  151SAPE   C1116698   4.642   4.962  10.273 -0.3088  0.1352 -0.3579
  151SAPE  H11A16699   4.592   4.920  10.183 -0.8095 -0.3700  0.1467
  151SAPE  H11B16700   4.750   4.937  10.276 -0.1513  0.6445 -1.5733
  151SAPE     P16701   4.700   5.206  10.351 -0.4443 -0.3688 -0.0785
  151SAPE   O1316702   4.627   5.208  10.478  0.7885  0.3775 -0.1163
  151SAPE   O1416703   4.840   5.165  10.341  0.0581  0.1230 -0.1925
  151SAPE   O1216704   4.621   5.102  10.258  0.8463  0.1641  0.1385
  151SAPE   O1116705   4.677   5.349  10.281 -0.6395  1.1175  0.2789
  151SAPE    C116706   4.720   5.368  10.146 -0.0160  0.3376  0.3601
  151SAPE    HA16707   4.808   5.301  10.134  0.6806  1.0614  1.3713
  151SAPE    HB16708   4.640   5.322  10.085 -0.9733  2.8600 -0.3326
  151SAPE    C216709   4.749   5.514  10.110  0.0014 -0.3352 -0.5175
  151SAPE    HS16710   4.834   5.543  10.175  0.4882 -1.8047 -0.4694
  151SAPE   O2116711   4.638   5.599  10.141 -0.4157 -0.0248 -0.3688
  151SAPE   C2116712   4.662   5.719  10.172 -0.1659 -0.5057  0.1303
  151SAPE   O2216713   4.775   5.769  10.178  0.2865  0.2605 -0.3278
  151SAPE   C2216714   4.531   5.782  10.213  0.0821  0.2315 -0.7097
  151SAPE   H2R16715   4.443   5.716  10.198 -1.0815  1.9613 -1.6859
  151SAPE   H2S16716   4.532   5.800  10.322  0.0689  0.5523 -0.7633
  151SAPE    C316717   4.789   5.530   9.957  0.2187 -0.2255 -0.0583
  151SAPE    HX16718   4.871   5.457   9.944  0.1055 -0.1593 -1.1497
  151SAPE    HY16719   4.813   5.638   9.942 -1.2749  0.7498  3.7797
  151SAPE   O3116720   4.684   5.481   9.873  0.1801 -0.4768 -0.7418
  151SAPE   C3116721   4.623   5.561   9.791 -0.3354 -0.1577 -0.3995
  151SAPE   O3216722   4.641   5.682   9.782  0.2877  0.2082 -0.5027
  151SAPE   C3216723   4.523   5.486   9.706  0.2843 -0.1278 -0.6804
  151SAPE   H2X16724   4.424   5.495   9.755 -0.6253  0.4138 -2.5719
  151SAPE   H2Y16725   4.560   5.382   9.697  1.0263  0.0352  0.3986
  151SAPE   C2316726   4.509   5.917  10.140 -1.1113  0.0689 -0.3768
  151SAPE   H3R16727   4.472   5.885  10.041 -2.3712  0.1862  0.0535
  151SAPE   H3S16728   4.607   5.970  10.146 -1.1263  0.2386 -1.5014
  151SAPE   C2416729   4.411   6.007  10.213  0.2726 -1.0283  0.3274
  151SAPE   H4R16730   4.446   6.022  10.317  0.3666  1.8084 -0.0738
  151SAPE   H4S16731   4.316   5.949  10.216 -0.5754  0.4036  2.3382
  151SAPE   C2516732   4.392   6.141  10.139  0.4326  0.0024 -0.1125
  151SAPE   H5R16733   4.471   6.217  10.146  1.2277 -0.9246  1.2404
  151SAPE   C2616734   4.295   6.164  10.051 -0.3926 -0.0743 -0.1308
  151SAPE   H6R16735   4.294   6.263  10.003 -0.1843 -1.0700 -2.2098
  151SAPE   C2716736   4.180   6.078  10.017  0.1456  0.5862 -0.5483
  151SAPE   H7R16737   4.110   6.053  10.100 -0.8853  0.2869 -1.5047
  151SAPE   H7S16738   4.220   5.974  10.014 -2.6602 -0.5286 -0.8668
  151SAPE   C2816739   4.111   6.114   9.881 -0.3614  0.5873  0.1066
  151SAPE   H8R16740   4.014   6.166   9.887  0.5769  2.7239 -2.3933
  151SAPE   C2916741   4.161   6.073   9.760  0.3991  0.1219  0.3523
  151SAPE   H9R16742   4.100   6.107   9.675 -2.8250 -2.3244  1.5273
  151SAPE  C21016743   4.302   6.011   9.738  1.3176  0.6370 -0.6475
  151SAPE  H10R16744   4.373   6.058   9.810 -2.0557 -1.0858  4.0238
  151SAPE  H10S16745   4.338   6.048   9.639  0.1442 -0.3148 -1.4448
  151SAPE  C21116746   4.305   5.856   9.734 -0.7362  0.4904  0.2796
  151SAPE  H11R16747   4.336   5.813   9.831  1.2413 -0.6212 -0.8174
  151SAPE  C21216748   4.270   5.773   9.633  0.3282 -0.0591  0.1405
  151SAPE  H12R16749   4.277   5.664   9.648  2.2029 -0.0047 -0.2178
  151SAPE  C21316750   4.211   5.813   9.500 -0.2959 -1.3532 -0.0032
  151SAPE  H13R16751   4.121   5.871   9.528 -1.1765 -2.9644  0.5426
  151SAPE  H13S16752   4.179   5.718   9.451 -1.9280 -1.8592  1.9804
  151SAPE  C21416753   4.281   5.908   9.407 -0.1589  0.1790 -0.3221
  151SAPE  H14R16754   4.371   5.965   9.433 -1.0565  2.1453 -1.3138
  151SAPE  C21516755   4.225   5.936   9.291  0.2691  0.0036 -0.2124
  151SAPE  H15R16756   4.270   6.014   9.229 -0.4875  0.8931  0.3499
  151SAPE  C21616757   4.094   5.877   9.243  0.2979  0.0426 -0.5869
  151SAPE  H16R16758   4.025   5.964   9.243 -1.6887 -1.4903  0.2319
  151SAPE  H16S16759   4.051   5.801   9.312  0.1632  1.6022  1.0683
  151SAPE  C21716760   4.083   5.815   9.101 -0.2398  0.3252 -0.8574
  151SAPE  H17R16761   3.976   5.799   9.074 -0.4627  2.0962 -1.1437
  151SAPE  H17S16762   4.127   5.714   9.106 -1.0064  0.1038  3.4925
  151SAPE  C21816763   4.161   5.890   8.995  0.8322 -0.5862  0.3371
  151SAPE  H18R16764   4.269   5.896   9.020  0.9396 -0.7817 -0.0954
  151SAPE  H18S16765   4.125   5.995   8.996 -0.4984 -1.0259 -0.4296
  151SAPE  C21916766   4.158   5.834   8.848  0.4978 -0.7610 -0.7291
  151SAPE  H19R16767   4.235   5.885   8.787 -0.0765 -0.1639 -0.9635
  151SAPE  H19S16768   4.065   5.870   8.799  0.4418 -3.7098 -2.9583
  151SAPE  C22016769   4.166   5.678   8.829 -0.4912 -0.3348 -0.3610
  151SAPE  H20R16770   4.165   5.658   8.720  0.6766 -1.0947 -0.2345
  151SAPE  H20S16771   4.083   5.622   8.879 -3.9554  3.1405 -1.9404
  151SAPE  H20T16772   4.262   5.636   8.865 -1.9771 -2.3943  1.3828
  151SAPE   C3316773   4.521   5.542   9.564 -0.3029  0.3592  0.3904
  151SAPE   H3X16774   4.621   5.540   9.515 -0.1079 -1.8875  0.8679
  151SAPE   H3Y16775   4.480   5.646   9.561 -0.4668  0.3727  2.3421
  151SAPE   C3416776   4.434   5.455   9.480  0.1892  0.5910  0.1632
  151SAPE   H4X16777   4.325   5.470   9.499 -0.0175  0.9908 -1.3451
  151SAPE   H4Y16778   4.439   5.346   9.502 -1.3911  0.9796  2.7865
  151SAPE   C3516779   4.446   5.474   9.331  0.9480  0.4818 -0.7300
  151SAPE   H5X16780   4.425   5.377   9.282  0.6933  0.2672 -0.1991
  151SAPE   H5Y16781   4.553   5.494   9.306  0.8919  1.0972 -0.5023
  151SAPE   C3616782   4.378   5.600   9.268  0.2528  0.2556 -0.5757
  151SAPE   H6X16783   4.413   5.684   9.332  0.7546  0.9241 -1.7076
  151SAPE   H6Y16784   4.268   5.593   9.278  0.3410  0.4912  0.6774
  151SAPE   C3716785   4.399   5.632   9.118 -0.2399 -0.3533  1.0677
  151SAPE   H7X16786   4.350   5.730   9.098 -1.9428 -1.3811  0.0377
  151SAPE   H7Y16787   4.351   5.553   9.056 -0.3023 -0.9733  1.9095
  151SAPE   C3816788   4.550   5.640   9.081  0.3541  0.5211 -0.0223
  151SAPE   H8X16789   4.601   5.541   9.085  0.0411  0.3249 -0.7761
  151SAPE   H8Y16790   4.608   5.716   9.137 -0.4181 -0.0607  1.5914
  151SAPE   C3916791   4.563   5.681   8.932  0.2523  0.1185 -0.3244
  151SAPE   H9X16792   4.501   5.774   8.922  0.2028  0.1429  0.2319
  151SAPE   H9Y16793   4.515   5.610   8.862 -2.0836  1.5560 -0.2421
  151SAPE  C31016794   4.717   5.714   8.898  0.6067 -0.0922  0.5790
  151SAPE  H10X16795   4.784   5.637   8.941  2.3869  0.1830 -1.5964
  151SAPE  H10Y16796   4.737   5.811   8.949 -1.7592  0.7329 -0.0390
  151SAPE  C31116797   4.748   5.737   8.747  0.3589  0.3876  0.1367
  151SAPE  H11X16798   4.675   5.795   8.687 -1.3138 -1.4300  0.3359
  151SAPE  H11Y16799   4.752   5.633   8.707  1.3390  0.3703  0.2776
  151SAPE  C31216800   4.888   5.795   8.726  0.2768 -0.0274  0.6451
  151SAPE  H12X16801   4.966   5.725   8.763 -1.9700 -1.8661  2.0886
  151SAPE  H12Y16802   4.897   5.898   8.768  0.5202  0.9910 -1.8182
  151SAPE  C31316803   4.914   5.797   8.573  0.3127  0.5560 -0.5486
  151SAPE  H13X16804   4.847   5.861   8.513 -0.8769 -0.5285 -0.3916
  151SAPE  H13Y16805   4.917   5.693   8.532  1.1175  0.1067  0.6165
  151SAPE  C31416806   5.053   5.857   8.545 -0.4167  0.1143 -0.2588
  151SAPE  H14X16807   5.132   5.779   8.543 -1.4373 -0.9378  0.1473
  151SAPE  H14Y16808   5.080   5.934   8.620 -0.1830  1.3038 -1.5395
  151SAPE  C31516809   5.075   5.918   8.405 -0.6685  0.4504  0.6577
  151SAPE  H15X16810   5.031   5.847   8.331 -0.1352  0.5557  0.2394
  151SAPE  H15Y16811   5.185   5.927   8.394 -0.9171  1.2494 -1.4453
  151SAPE  C31616812   5.009   6.059   8.382  0.1621  0.3544  0.5152
  151SAPE  H16X16813   5.079   6.122   8.441  2.2944 -1.2066 -0.2944
  151SAPE  H16Y16814   4.909   6.060   8.431  0.0337  1.4835  0.2404
  151SAPE  C31716815   5.011   6.109   8.233  0.1495  0.4293 -0.6091
  151SAPE  H17X16816   4.905   6.121   8.204  0.6539 -0.3489 -2.8634
  151SAPE  H17Y16817   5.031   6.019   8.171  2.7528 -1.0665  2.2470
  151SAPE  C31816818   5.105   6.223   8.212 -0.4542  0.3998  0.0009
  151SAPE  H18X16819   5.133   6.235   8.105  0.6993 -1.9293  0.0173
  151SAPE  H18Y16820   5.196   6.207   8.274  0.0716  1.1617 -0.5531
  151SAPE  H18Z16821   5.051   6.316   8.242 -4.4352 -1.2214 -1.8485
  152SAPE     N16822   6.343   4.778  10.642 -0.6418 -0.2567  0.1850
  152SAPE   HN116823   6.441   4.806  10.626 -0.1783 -2.1075 -0.3043
  152SAPE   HN216824   6.307   4.820  10.731 -0.2377 -3.4688  1.9220
  152SAPE   HN316825   6.342   4.675  10.657 -0.1705 -0.5775 -1.9274
  152SAPE   C1216826   6.265   4.813  10.517 -0.3946  0.1869  0.2769
  152SAPE  H12A16827   6.296   4.740  10.439 -0.6092  0.1016  0.2723
  152SAPE  H12B16828   6.307   4.915  10.499 -1.0830  0.4010 -0.1367
  152SAPE   C1116829   6.116   4.800  10.546  0.6532  0.3307 -0.2335
  152SAPE  H11A16830   6.086   4.696  10.571  0.6160  0.1010 -1.2000
  152SAPE  H11B16831   6.067   4.828  10.450 -0.8101  0.7625  0.6221
  152SAPE     P16832   6.015   5.042  10.620 -0.4223  0.0559 -0.2044
  152SAPE   O1316833   5.872   5.029  10.592 -0.0314  0.8155  0.0217
  152SAPE   O1416834   6.052   5.118  10.739 -0.1719  0.4685 -0.4556
  152SAPE   O1216835   6.069   4.892  10.651  0.3035 -0.2821 -0.0538
  152SAPE   O1116836   6.100   5.082  10.495  0.0341  0.2341  0.8681
  152SAPE    C116837   6.177   5.197  10.480 -0.5644  0.2872 -0.3399
  152SAPE    HA16838   6.133   5.279  10.541 -1.1391 -0.5054  0.3191
  152SAPE    HB16839   6.271   5.179  10.536 -1.9827 -3.0270  1.1111
  152SAPE    C216840   6.209   5.223  10.331  0.2632 -0.2463 -0.2399
  152SAPE    HS16841   6.319   5.230  10.320  0.4778  0.1165  1.8988
  152SAPE   O2116842   6.139   5.341  10.289 -0.4439 -0.4354  0.4444
  152SAPE   C2116843   6.183   5.403  10.185  0.0575  0.1461  0.0065
  152SAPE   O2216844   6.292   5.390  10.139  0.1361 -0.3543  0.3925
  152SAPE   C2216845   6.076   5.510  10.142  0.1793 -0.2650  0.0415
  152SAPE   H2R16846   5.981   5.460  10.114  0.5616 -1.1492  0.3167
  152SAPE   H2S16847   6.063   5.564  10.238  0.0247 -3.0736  1.6453
  152SAPE    C316848   6.157   5.102  10.243 -0.0219  0.6169  0.5230
  152SAPE    HX16849   6.048   5.078  10.243  0.3781 -1.3152 -0.5153
  152SAPE    HY16850   6.212   5.015  10.284 -1.6908  0.5344  2.6490
  152SAPE   O3116851   6.196   5.123  10.108  0.2334  0.2116  0.0735
  152SAPE   C3116852   6.295   5.064  10.055  0.3609  0.4633 -0.9235
  152SAPE   O3216853   6.373   4.979  10.106  0.6056 -0.0263  0.5018
  152SAPE   C3216854   6.298   5.099   9.906  0.1402 -0.8238  0.2993
  152SAPE   H2X16855   6.248   5.197   9.889 -1.3001 -1.6978 -0.6336
  152SAPE   H2Y16856   6.235   5.020   9.859 -0.0940 -0.2057 -0.4452
  152SAPE   C2316857   6.130   5.603  10.028  0.0995 -0.4103 -0.3350
  152SAPE   H3R16858   6.228   5.647  10.057  0.9329 -3.0732  1.0282
  152SAPE   H3S16859   6.063   5.688  10.002  0.2414 -0.3562 -0.5218
  152SAPE   C2416860   6.143   5.513   9.900  0.0122  0.7209  0.7686
  152SAPE   H4R16861   6.050   5.515   9.839  1.1699  1.6793 -1.0109
  152SAPE   H4S16862   6.172   5.407   9.919 -2.0847  0.3037  1.7590
  152SAPE   C2516863   6.249   5.561   9.804 -0.2324 -0.5434  0.3657
  152SAPE   H5R16864   6.344   5.575   9.858 -0.5192  0.7872  0.5613
  152SAPE   C2616865   6.234   5.622   9.686  0.2338 -0.5060 -0.2070
  152SAPE   H6R16866   6.318   5.641   9.617 -1.9114  0.2335 -2.7080
  152SAPE   C2716867   6.095   5.628   9.613 -0.5230  0.1434 -0.5661
  152SAPE   H7R16868   6.007   5.644   9.679  0.0711  0.4712  0.1523
  152SAPE   H7S16869   6.071   5.536   9.555 -2.3222 -0.2296  0.6956
  152SAPE   C2816870   6.100   5.730   9.508 -0.3482  0.5452  0.0682
  152SAPE   H8R16871   6.028   5.811   9.524 -0.6005 -0.1316  2.4958
  152SAPE   C2916872   6.160   5.738   9.386  0.5081  0.0731  0.1331
  152SAPE   H9R16873   6.117   5.813   9.318 -0.8588 -1.8246 -1.1401
  152SAPE  C21016874   6.255   5.637   9.321  0.1821 -0.4453  0.1282
  152SAPE  H10R16875   6.219   5.591   9.227  1.5111  0.2792 -0.7626
  152SAPE  H10S16876   6.264   5.548   9.386  0.4986 -0.1258  0.5267
  152SAPE  C21116877   6.391   5.697   9.291 -0.2469 -0.1846  0.3180
  152SAPE  H11R16878   6.452   5.718   9.381 -1.5584  1.2309  0.8991
  152SAPE  C21216879   6.436   5.748   9.176  0.0400 -0.2784 -0.0040
  152SAPE  H12R16880   6.535   5.795   9.173 -0.8619  1.5724 -2.6648
  152SAPE  C21316881   6.358   5.747   9.047 -0.3586  0.3886 -0.9764
  152SAPE  H13R16882   6.360   5.855   9.022 -0.6357  0.9908  1.4221
  152SAPE  H13S16883   6.253   5.714   9.063  0.4633 -1.2565  1.4538
  152SAPE  C21416884   6.414   5.663   8.936  0.0302 -0.3825  0.0151
  152SAPE  H14R16885   6.421   5.558   8.967 -0.2582  0.1894  2.0606
  152SAPE  C21516886   6.434   5.702   8.807 -0.3672  0.8128  0.0158
  152SAPE  H15R16887   6.471   5.632   8.732 -2.8183  0.4207 -0.8740
  152SAPE  C21616888   6.413   5.840   8.745 -0.4139 -0.4398 -0.0317
  152SAPE  H16R16889   6.307   5.870   8.763 -0.4576 -0.5888 -0.0419
  152SAPE  H16S16890   6.438   5.830   8.638 -1.9159 -1.7999 -0.2822
  152SAPE  C21716891   6.509   5.946   8.808 -0.1174 -0.5888  0.1321
  152SAPE  H17R16892   6.504   5.928   8.918 -0.6705  0.7608  0.3421
  152SAPE  H17S16893   6.462   6.044   8.784 -1.0547 -0.4516  2.3337
  152SAPE  C21816894   6.656   5.940   8.766  0.2497 -0.6324  0.2452
  152SAPE  H18R16895   6.656   5.948   8.655  0.1565 -2.3295  0.1039
  152SAPE  H18S16896   6.709   5.847   8.794  0.4784 -1.0528 -1.5049
  152SAPE  C21916897   6.746   6.049   8.827  0.5291 -0.6191 -0.2183
  152SAPE  H19R16898   6.694   6.143   8.799  0.3681 -1.0921 -1.5514
  152SAPE  H19S16899   6.846   6.044   8.779  0.3035  2.0944 -1.1205
  152SAPE  C22016900   6.757   6.038   8.982  0.2431  0.0675 -1.3869
  152SAPE  H20R16901   6.797   5.940   9.016  0.4905 -0.3414 -2.8397
  152SAPE  H20S16902   6.651   6.049   9.015  0.2488  1.0388 -1.6845
  152SAPE  H20T16903   6.829   6.113   9.022  1.3472 -1.3642 -0.6570
  152SAPE   C3316904   6.432   5.085   9.826  0.2478 -0.1831 -0.1953
  152SAPE   H3X16905   6.523   5.123   9.878 -0.2989  0.0876  0.5894
  152SAPE   H3Y16906   6.412   5.153   9.741  0.9350  0.6692  0.3162
  152SAPE   C3416907   6.472   4.949   9.769  0.4577 -0.5433  0.1887
  152SAPE   H4X16908   6.425   4.872   9.835  2.0239 -0.9904  0.8051
  152SAPE   H4Y16909   6.583   4.946   9.773  0.4171 -0.5810  1.7503
  152SAPE   C3516910   6.408   4.918   9.637  0.8514 -0.2409  0.3087
  152SAPE   H5X16911   6.305   4.959   9.649  0.4107 -0.7012 -1.7277
  152SAPE   H5Y16912   6.398   4.808   9.627  1.1329 -0.0885 -1.8331
  152SAPE   C3616913   6.483   4.965   9.518  0.3008 -0.0200  0.1661
  152SAPE   H6X16914   6.592   4.950   9.530  0.5249 -2.5423 -3.8929
  152SAPE   H6Y16915   6.463   5.074   9.506 -0.6216 -0.2741 -0.7357
  152SAPE   C3716916   6.455   4.899   9.378 -0.2608  0.1777  0.4998
  152SAPE   H7X16917   6.349   4.908   9.346 -0.0673 -1.5854 -0.7425
  152SAPE   H7Y16918   6.467   4.790   9.398  1.8644  0.6315  1.7449
  152SAPE   C3816919   6.551   4.931   9.263 -0.3175  0.3157 -0.1582
  152SAPE   H8X16920   6.654   4.916   9.304 -0.8966 -1.6853  0.6487
  152SAPE   H8Y16921   6.531   5.036   9.232  2.2453  1.9562  3.3556
  152SAPE   C3916922   6.536   4.841   9.147 -0.3867 -0.1533 -0.0840
  152SAPE   H9X16923   6.429   4.837   9.118 -0.4015  0.1844 -0.0733
  152SAPE   H9Y16924   6.568   4.736   9.162 -1.7047 -0.5135  0.2531
  152SAPE  C31016925   6.608   4.898   9.022 -0.7321 -0.0243 -0.8330
  152SAPE  H10X16926   6.717   4.885   9.036 -0.7548  0.0356 -0.5988
  152SAPE  H10Y16927   6.578   5.004   9.011  2.0650  1.3314  3.3574
  152SAPE  C31116928   6.566   4.824   8.894  0.0336 -0.3935 -0.2606
  152SAPE  H11X16929   6.595   4.881   8.802 -1.0843  0.1910 -0.2497
  152SAPE  H11Y16930   6.456   4.813   8.890  0.1369 -1.4142 -0.5321
  152SAPE  C31216931   6.639   4.687   8.884  0.3768  0.6205 -0.0655
  152SAPE  H12X16932   6.647   4.631   8.980  0.3454  2.0145  0.7636
  152SAPE  H12Y16933   6.745   4.702   8.852 -0.2317  1.0791 -1.9137
  152SAPE  C31316934   6.561   4.599   8.780 -0.5933 -0.0493  0.0387
  152SAPE  H13X16935   6.457   4.588   8.818 -1.5937 -0.3179 -2.6146
  152SAPE  H13Y16936   6.612   4.501   8.795  1.8956  1.4013  1.1639
  152SAPE  C31416937   6.554   4.661   8.642  0.0495  0.2433  0.6654
  152SAPE  H14X16938   6.661   4.687   8.627 -0.1943 -0.3495 -2.5007
  152SAPE  H14Y16939   6.485   4.748   8.645 -1.9931 -1.2219 -1.6212
  152SAPE  C31516940   6.509   4.571   8.525 -0.1702 -0.3125  0.2219
  152SAPE  H15X16941   6.404   4.537   8.535  0.6058 -2.2429  2.3016
  152SAPE  H15Y16942   6.571   4.479   8.520  1.5732  0.8525 -0.5380
  152SAPE  C31616943   6.519   4.657   8.396  0.0570  0.1442  0.1618
  152SAPE  H16X16944   6.617   4.706   8.376  0.5710 -0.3687  1.3901
  152SAPE  H16Y16945   6.448   4.736   8.428  1.0634  1.1946 -0.1861
  152SAPE  C31716946   6.470   4.575   8.274 -0.2078  0.2098  0.7901
  152SAPE  H17X16947   6.424   4.645   8.201  0.6083  0.7239  0.7728
  152SAPE  H17Y16948   6.389   4.503   8.301 -1.7476  1.3620 -0.6573
  152SAPE  C31816949   6.576   4.500   8.198  0.3565 -0.0378 -0.1093
  152SAPE  H18X16950   6.534   4.475   8.098  0.1107  1.4388 -0.3921
  152SAPE  H18Y16951   6.614   4.406   8.244 -0.4265  0.8861  2.4848
  152SAPE  H18Z16952   6.668   4.560   8.181  0.4314  0.5530  2.3107
  153SAPE     N16953   5.634   6.058  10.886 -0.2774 -0.3623  0.4804
  153SAPE   HN116954   5.651   5.957  10.904  0.3990 -0.3337  0.0001
  153SAPE   HN216955   5.567   6.095  10.957  0.5953 -1.2889  1.8136
  153SAPE   HN316956   5.587   6.071  10.794  0.7720 -0.4464 -0.0750
  153SAPE   C1216957   5.762   6.125  10.889 -0.2010 -0.5864 -0.2949
  153SAPE  H12A16958   5.802   6.151  10.989 -2.7111  1.1461  0.3066
  153SAPE  H12B16959   5.761   6.219  10.830  2.3429  0.7941  1.8007
  153SAPE   C1116960   5.860   6.023  10.827 -0.3168  0.0010 -0.7249
  153SAPE  H11A16961   5.872   5.930  10.887  0.7270  0.5630 -0.0286
  153SAPE  H11B16962   5.959   6.074  10.827  1.3843 -3.0732  0.8161
  153SAPE     P16963   5.799   5.861  10.622 -0.1070 -0.1018 -0.4360
  153SAPE   O1316964   5.906   5.775  10.674  0.4719 -0.0853  0.6372
  153SAPE   O1416965   5.661   5.808  10.630  0.0082  0.1989  0.8605
  153SAPE   O1216966   5.820   6.007  10.694  0.4447 -0.3760 -0.1576
  153SAPE   O1116967   5.834   5.896  10.463  0.1739  0.5661 -0.1844
  153SAPE    C116968   5.830   6.030  10.417 -0.6732 -0.4165 -0.1040
  153SAPE    HA16969   5.733   6.073  10.449 -1.2982 -2.3824  0.7402
  153SAPE    HB16970   5.912   6.097  10.450 -0.7405 -1.2810  1.8493
  153SAPE    C216971   5.826   6.046  10.266  0.4794  0.4067 -0.6261
  153SAPE    HS16972   5.852   6.147  10.229  0.1352  1.2373  1.3268
  153SAPE   O2116973   5.690   6.005  10.221  0.0269 -0.3717  0.7442
  153SAPE   C2116974   5.641   6.079  10.122  0.2568 -0.0130 -0.0621
  153SAPE   O2216975   5.685   6.191  10.093 -0.1995 -0.5748  0.3181
  153SAPE   C2216976   5.516   6.016  10.056  0.1519 -0.4555 -0.3140
  153SAPE   H2R16977   5.546   5.916  10.018 -0.3912 -0.1914 -1.4684
  153SAPE   H2S16978   5.425   6.002  10.119 -1.0081 -0.9206 -2.0563
  153SAPE    C316979   5.941   5.948  10.202 -0.0747 -0.2137 -0.0959
  153SAPE    HX16980   5.914   5.846  10.238  0.2381 -1.4736 -3.2628
  153SAPE    HY16981   6.038   5.983  10.242  1.5860 -1.0343 -3.2564
  153SAPE   O3116982   5.921   5.948  10.058  0.0572 -0.4688  0.5417
  153SAPE   C3116983   6.032   5.988   9.994  0.1325  0.3124  0.1450
  153SAPE   O3216984   6.144   6.002  10.039 -0.2394  0.2188  0.4001
  153SAPE   C3216985   5.997   5.994   9.848  0.4033  0.1401  0.1599
  153SAPE   H2X16986   5.980   5.894   9.803  3.6590 -0.1508 -0.5907
  153SAPE   H2Y16987   6.091   6.030   9.801 -1.0029  0.9383 -2.1295
  153SAPE   C2316988   5.473   6.117   9.940 -0.0733  0.0222  0.5806
  153SAPE   H3R16989   5.563   6.131   9.876 -1.6022  3.0948 -0.9704
  153SAPE   H3S16990   5.453   6.215   9.987 -0.0567 -0.6150  1.9371
  153SAPE   C2416991   5.347   6.078   9.866 -0.2897 -0.8933  0.3291
  153SAPE   H4R16992   5.260   6.045   9.927  0.3654 -1.3448  1.0396
  153SAPE   H4S16993   5.361   5.979   9.817 -1.3080 -0.4514 -0.8783
  153SAPE   C2516994   5.293   6.178   9.771  0.3616 -0.7717  0.0269
  153SAPE   H5R16995   5.243   6.261   9.823  0.1752  0.3579 -1.9114
  153SAPE   C2616996   5.310   6.180   9.638 -0.3084  0.1115  0.5105
  153SAPE   H6R16997   5.254   6.256   9.583 -0.1693  0.7748  1.2808
  153SAPE   C2716998   5.387   6.084   9.552  0.7384 -0.5164 -0.1170
  153SAPE   H7R16999   5.451   6.035   9.628  1.6058  1.9736  0.8290
  153SAPE   H7S17000   5.452   6.151   9.491  0.7441 -0.6818 -0.2912
  153SAPE   C2817001   5.315   5.981   9.472  0.2258  0.6795  0.0661
  153SAPE   H8R17002   5.331   5.881   9.513 -0.7747 -0.7766 -2.8882
  153SAPE   C2917003   5.243   5.992   9.361 -1.0332 -0.6308  0.2147
  153SAPE   H9R17004   5.216   5.896   9.315  1.3690 -0.5967 -1.3248
  153SAPE  C21017005   5.216   6.126   9.290  0.6043 -0.2561  0.0203
  153SAPE  H10R17006   5.305   6.140   9.226  0.2193 -1.6917 -0.8547
  153SAPE  H10S17007   5.223   6.208   9.364  0.0429 -0.2731  0.0958
  153SAPE  C21117008   5.084   6.135   9.212 -0.3672  0.2528 -0.4859
  153SAPE  H11R17009   4.990   6.138   9.269 -1.0067 -0.1603 -1.4926
  153SAPE  C21217010   5.069   6.146   9.078  0.2186  0.5346  0.3262
  153SAPE  H12R17011   4.965   6.160   9.044  0.7542  0.4119 -1.4145
  153SAPE  C21317012   5.186   6.132   8.983 -0.8345  0.1821  0.0748
  153SAPE  H13R17013   5.226   6.031   9.009 -1.4864 -0.1110 -0.0741
  153SAPE  H13S17014   5.271   6.200   9.008 -2.0225  1.9228 -0.5169
  153SAPE  C21417015   5.148   6.139   8.836  0.3221  0.3319  0.3984
  153SAPE  H14R17016   5.054   6.088   8.813  1.6438 -1.8216 -0.3910
  153SAPE  C21517017   5.200   6.218   8.743  0.3801 -0.2542  0.0598
  153SAPE  H15R17018   5.170   6.201   8.638 -0.0935 -4.9113  0.8707
  153SAPE  C21617019   5.318   6.316   8.755  0.3568  0.3502 -0.4885
  153SAPE  H16R17020   5.407   6.270   8.706 -0.8915  0.3399 -2.7982
  153SAPE  H16S17021   5.337   6.337   8.862  0.6021  0.4190 -0.5444
  153SAPE  C21717022   5.319   6.450   8.672 -0.3496  0.6518  0.2891
  153SAPE  H17R17023   5.220   6.494   8.698  0.2971  1.7757  0.8473
  153SAPE  H17S17024   5.323   6.431   8.562  0.3477  0.6024  0.3251
  153SAPE  C21817025   5.430   6.549   8.722  0.0033 -0.0152 -0.5658
  153SAPE  H18R17026   5.532   6.504   8.711  0.0038 -0.1245 -0.1255
  153SAPE  H18S17027   5.418   6.570   8.830 -2.4056 -2.8979 -0.2203
  153SAPE  C21917028   5.438   6.683   8.646 -0.0639  0.0335  0.2757
  153SAPE  H19R17029   5.338   6.726   8.669 -0.2835 -1.4105  2.1225
  153SAPE  H19S17030   5.457   6.665   8.538  3.2849  0.3286  0.7609
  153SAPE  C22017031   5.548   6.772   8.694 -0.6101 -0.3576 -0.3098
  153SAPE  H20R17032   5.534   6.881   8.675 -1.6819 -0.3176  0.6857
  153SAPE  H20S17033   5.636   6.731   8.639 -0.8527 -0.4622 -0.6158
  153SAPE  H20T17034   5.550   6.750   8.803 -3.2593  0.5228 -0.0589
  153SAPE   C3317035   5.884   6.092   9.803  0.6859  0.5625  0.1669
  153SAPE   H3X17036   5.906   6.192   9.845 -0.4206  1.8565 -2.2060
  153SAPE   H3Y17037   5.783   6.069   9.844 -0.2149  0.8844 -1.7847
  153SAPE   C3417038   5.873   6.100   9.650  0.1353  0.1086 -0.0602
  153SAPE   H4X17039   5.857   6.011   9.586  0.0384  1.1218 -1.4812
  153SAPE   H4Y17040   5.966   6.139   9.604  0.9284 -2.1574 -0.4221
  153SAPE   C3517041   5.752   6.195   9.614  0.0892  0.3081 -1.1678
  153SAPE   H5X17042   5.748   6.275   9.691  1.1664  2.8782 -3.6871
  153SAPE   H5Y17043   5.662   6.130   9.623  0.9417 -1.0568 -2.3039
  153SAPE   C3617044   5.773   6.248   9.469  0.1325 -0.2753  0.2455
  153SAPE   H6X17045   5.776   6.162   9.399  1.3194 -0.2425  0.2535
  153SAPE   H6Y17046   5.873   6.295   9.461 -0.2579  0.5691  0.3126
  153SAPE   C3717047   5.672   6.354   9.425 -0.6090  0.0434 -0.1572
  153SAPE   H7X17048   5.665   6.419   9.514  0.8732 -5.2579  4.1261
  153SAPE   H7Y17049   5.575   6.303   9.408 -0.2296 -0.8818  0.3676
  153SAPE   C3817050   5.714   6.443   9.307 -0.1590 -0.2432  0.0438
  153SAPE   H8X17051   5.789   6.513   9.349  1.6743 -1.7797 -0.6373
  153SAPE   H8Y17052   5.631   6.513   9.283 -0.2484  0.5815  2.5979
  153SAPE   C3917053   5.771   6.364   9.188 -0.0281  0.6885 -0.7674
  153SAPE   H9X17054   5.746   6.256   9.195  2.2229 -0.0050 -2.8434
  153SAPE   H9Y17055   5.881   6.375   9.200  0.2498  1.6360 -3.9028
  153SAPE  C31017056   5.719   6.424   9.056  0.1187  0.2281  0.0942
  153SAPE  H10X17057   5.780   6.517   9.059  0.1370  0.2001  0.5628
  153SAPE  H10Y17058   5.612   6.448   9.069  0.0898 -0.4199  1.0504
  153SAPE  C31117059   5.760   6.338   8.936 -0.0974 -0.0642 -0.9607
  153SAPE  H11X17060   5.674   6.278   8.900 -1.4145  1.7509 -0.9170
  153SAPE  H11Y17061   5.845   6.271   8.961  1.6177  2.3276 -0.1495
  153SAPE  C31217062   5.819   6.422   8.818 -0.0900  0.2170 -0.1302
  153SAPE  H12X17063   5.909   6.478   8.851 -0.0667 -0.1538  0.4474
  153SAPE  H12Y17064   5.740   6.493   8.788 -1.9663 -1.3803  0.9432
  153SAPE  C31317065   5.851   6.338   8.700 -0.5359  0.0388  0.3573
  153SAPE  H13X17066   5.758   6.283   8.673  0.0440 -0.6084 -0.3366
  153SAPE  H13Y17067   5.931   6.264   8.721  1.6404  1.1123 -3.5988
  153SAPE  C31417068   5.883   6.417   8.566 -0.4446  0.3645  0.3935
  153SAPE  H14X17069   5.990   6.446   8.572 -0.8924  2.3008 -0.7043
  153SAPE  H14Y17070   5.826   6.510   8.546  1.2873  1.5333  0.7393
  153SAPE  C31517071   5.852   6.324   8.445  0.3848  0.1986 -0.6865
  153SAPE  H15X17072   5.744   6.317   8.420  0.3372 -1.3131 -0.0985
  153SAPE  H15Y17073   5.903   6.232   8.479  0.4157  0.6841  0.6129
  153SAPE  C31617074   5.920   6.377   8.320 -0.0274  0.5326  0.4151
  153SAPE  H16X17075   6.029   6.392   8.335  0.1708  1.0339 -1.4096
  153SAPE  H16Y17076   5.884   6.481   8.306 -0.0899  0.3729 -0.6603
  153SAPE  C31717077   5.905   6.285   8.203  0.0706 -0.0895  0.7129
  153SAPE  H17X17078   5.800   6.280   8.165  0.7719 -1.3332 -1.1551
  153SAPE  H17Y17079   5.933   6.184   8.241  0.8805  0.2360  0.9752
  153SAPE  C31817080   5.984   6.329   8.086 -0.3802  0.9729  0.3080
  153SAPE  H18X17081   6.081   6.376   8.112  0.4003 -0.7111  0.5027
  153SAPE  H18Y17082   5.919   6.394   8.023  1.1466 -0.5130 -2.8894
  153SAPE  H18Z17083   6.005   6.237   8.029 -3.8759 -1.2632  2.3982
  154SAPE     N17084   5.934   6.410  10.518 -0.1261  0.0482 -0.0400
  154SAPE   HN117085   6.010   6.395  10.587 -0.9185  0.0565  0.8625
  154SAPE   HN217086   5.840   6.367  10.535  0.1496 -0.7015 -0.3838
  154SAPE   HN317087   5.967   6.374  10.426 -1.3329 -1.2603  0.0159
  154SAPE   C1217088   5.904   6.557  10.506 -0.4117  0.3226 -0.0597
  154SAPE  H12A17089   5.855   6.588  10.601 -0.7382 -0.1276 -0.0816
  154SAPE  H12B17090   5.826   6.565  10.428 -1.3285  0.8995  0.8946
  154SAPE   C1117091   6.032   6.636  10.480  0.5016 -0.2007 -0.0124
  154SAPE  H11A17092   6.007   6.742  10.458  0.0253 -0.6661 -1.7885
  154SAPE  H11B17093   6.074   6.607  10.382 -0.0417  0.2021 -0.3661
  154SAPE     P17094   6.176   6.754  10.658  0.0566 -0.3187  0.1618
  154SAPE   O1317095   6.053   6.836  10.688 -0.3219  0.2303  0.0601
  154SAPE   O1417096   6.270   6.725  10.764 -0.1728  0.1029 -0.3380
  154SAPE   O1217097   6.129   6.624  10.581 -0.3617 -0.6686  0.0521
  154SAPE   O1117098   6.254   6.842  10.551 -0.2151  0.1180  0.9900
  154SAPE    C117099   6.364   6.786  10.479  0.3988 -0.3835 -0.1075
  154SAPE    HA17100   6.450   6.849  10.508 -1.7383  3.4021 -1.4794
  154SAPE    HB17101   6.395   6.683  10.503 -1.1541 -0.8954 -0.1956
  154SAPE    C217102   6.349   6.802  10.323  0.7255  0.0556 -0.2709
  154SAPE    HS17103   6.290   6.712  10.296  0.1910 -0.3815  2.2913
  154SAPE   O2117104   6.477   6.811  10.268 -0.2388 -0.5703 -0.9034
  154SAPE   C2117105   6.547   6.697  10.239 -0.0163  0.0114 -0.2867
  154SAPE   O2217106   6.502   6.584  10.226 -0.6375 -0.5779  0.2264
  154SAPE   C2217107   6.690   6.724  10.220  0.4558 -0.2403  0.1152
  154SAPE   H2R17108   6.718   6.831  10.233 -1.3246  0.2139  0.3320
  154SAPE   H2S17109   6.738   6.672  10.305  0.9504 -1.7921 -1.0946
  154SAPE    C317110   6.271   6.934  10.288  0.2605  0.0959 -0.0376
  154SAPE    HX17111   6.297   7.012  10.362 -1.6419  0.1480  0.6062
  154SAPE    HY17112   6.162   6.914  10.295  0.8016 -3.1433 -0.1297
  154SAPE   O3117113   6.295   6.977  10.154 -0.4013 -0.5472 -0.0853
  154SAPE   C3117114   6.261   6.902  10.056 -0.4778  0.3641 -0.4346
  154SAPE   O3217115   6.184   6.804  10.062  0.2360 -0.0602 -0.0293
  154SAPE   C3217116   6.342   6.944   9.931  0.3939  0.8833  0.3849
  154SAPE   H2X17117   6.439   6.891   9.945 -1.0524 -1.3716  2.1824
  154SAPE   H2Y17118   6.341   7.054   9.922  0.0303  0.8108 -0.5110
  154SAPE   C2317119   6.742   6.673  10.083  0.4125  0.2049  0.8175
  154SAPE   H3R17120   6.732   6.563  10.071  0.9217  0.3053 -0.7455
  154SAPE   H3S17121   6.852   6.690  10.076  0.5732 -1.7786 -2.6785
  154SAPE   C2417122   6.676   6.738   9.959  0.1114 -0.3176  0.3678
  154SAPE   H4R17123   6.693   6.848   9.967 -0.3043  0.0428 -3.1355
  154SAPE   H4S17124   6.566   6.726   9.963  0.2917 -2.1586 -0.0481
  154SAPE   C2517125   6.740   6.688   9.831 -0.1031 -0.8234 -0.3144
  154SAPE   H5R17126   6.849   6.701   9.827 -0.0487 -1.4278 -0.8174
  154SAPE   C2617127   6.686   6.616   9.732  0.5404  0.2067  0.9550
  154SAPE   H6R17128   6.747   6.597   9.642  2.2994  4.1471  1.2310
  154SAPE   C2717129   6.542   6.576   9.716 -0.1823  0.1544 -0.6971
  154SAPE   H7R17130   6.478   6.656   9.673 -0.0871 -0.0276 -1.1796
  154SAPE   H7S17131   6.500   6.540   9.813  0.5582  1.9769  0.3188
  154SAPE   C2817132   6.536   6.455   9.627 -0.5198 -0.0469  0.1237
  154SAPE   H8R17133   6.501   6.362   9.675  1.6948 -1.6003 -1.1925
  154SAPE   C2917134   6.552   6.453   9.490  0.2304  0.1264  0.0382
  154SAPE   H9R17135   6.554   6.358   9.434  0.4922  0.4703 -0.5454
  154SAPE  C21017136   6.584   6.569   9.399 -0.7100 -0.3525  0.0286
  154SAPE  H10R17137   6.601   6.663   9.455  0.2560  0.7150 -2.0173
  154SAPE  H10S17138   6.496   6.597   9.337  0.8680  3.0327 -0.7675
  154SAPE  C21117139   6.701   6.544   9.309 -0.1204 -0.0980 -0.6898
  154SAPE  H11R17140   6.800   6.573   9.346 -0.1998  0.1271 -0.6520
  154SAPE  C21217141   6.697   6.520   9.181 -0.3669 -0.5006 -0.2341
  154SAPE  H12R17142   6.794   6.510   9.130 -0.3712 -0.0522 -0.3323
  154SAPE  C21317143   6.575   6.504   9.093 -0.3672  0.0604  0.3539
  154SAPE  H13R17144   6.566   6.596   9.031 -1.6084 -1.8686 -2.4935
  154SAPE  H13S17145   6.482   6.495   9.152 -0.0173  1.0089  1.0546
  154SAPE  C21417146   6.574   6.382   8.997  0.9540  0.2508 -0.1499
  154SAPE  H14R17147   6.631   6.299   9.041  0.3820  0.3540  0.7845
  154SAPE  C21517148   6.524   6.374   8.870 -0.7785  0.3689 -0.0055
  154SAPE  H15R17149   6.536   6.279   8.817 -2.1470  0.6502 -0.8299
  154SAPE  C21617150   6.443   6.482   8.797  0.1177 -0.3913  0.0682
  154SAPE  H16R17151   6.507   6.529   8.720 -1.2725  2.6643  0.7116
  154SAPE  H16S17152   6.402   6.563   8.861  1.7371  1.4821 -1.2042
  154SAPE  C21717153   6.315   6.430   8.722 -0.5710 -0.3172  1.0191
  154SAPE  H17R17154   6.272   6.510   8.657 -1.2716  1.1742  3.2682
  154SAPE  H17S17155   6.247   6.402   8.805 -2.3442 -1.1083 -0.6641
  154SAPE  C21817156   6.354   6.317   8.629 -0.0266  0.1577  0.3645
  154SAPE  H18R17157   6.378   6.227   8.690 -2.9431 -0.2793  0.9894
  154SAPE  H18S17158   6.447   6.343   8.575 -2.1384  1.5248 -2.7417
  154SAPE  C21917159   6.240   6.282   8.539 -0.2434 -0.6239  0.3673
  154SAPE  H19R17160   6.213   6.362   8.467  0.8472 -0.0339  0.5985
  154SAPE  H19S17161   6.150   6.285   8.604  0.3402  0.9750  1.1107
  154SAPE  C22017162   6.256   6.152   8.467 -0.3433  0.9803  0.9448
  154SAPE  H20R17163   6.349   6.154   8.407 -0.2234 -2.0630  0.9191
  154SAPE  H20S17164   6.164   6.131   8.409  0.9680  0.7789 -1.1128
  154SAPE  H20T17165   6.255   6.059   8.528 -0.0140 -0.3093 -0.9673
  154SAPE   C3317166   6.281   6.891   9.800  0.3814  0.0421  0.7176
  154SAPE   H3X17167   6.180   6.938   9.794  0.0536 -0.5787  1.2346
  154SAPE   H3Y17168   6.268   6.781   9.803  1.3686 -0.0827  0.5417
  154SAPE   C3417169   6.369   6.939   9.682 -0.3158  0.0854  0.5638
  154SAPE   H4X17170   6.475   6.912   9.699 -0.7498 -2.0409  0.1413
  154SAPE   H4Y17171   6.376   7.047   9.661 -1.4499  0.0253 -0.2220
  154SAPE   C3517172   6.322   6.876   9.548  0.0425 -0.6778 -0.0351
  154SAPE   H5X17173   6.215   6.900   9.530  0.2063  0.6696  0.7405
  154SAPE   H5Y17174   6.324   6.765   9.556 -0.4048 -0.4503  4.4880
  154SAPE   C3617175   6.407   6.919   9.437  0.2061  0.2728  0.3956
  154SAPE   H6X17176   6.511   6.879   9.445 -0.7033 -2.1752  0.1392
  154SAPE   H6Y17177   6.407   7.030   9.427  1.2307  0.0937 -1.9441
  154SAPE   C3717178   6.353   6.869   9.301 -0.0791  0.0678  0.6688
  154SAPE   H7X17179   6.245   6.896   9.294  0.2320  1.0710 -0.4111
  154SAPE   H7Y17180   6.356   6.758   9.305 -0.5837  0.1048  2.1884
  154SAPE   C3817181   6.443   6.919   9.186  0.7337 -0.4417 -0.1774
  154SAPE   H8X17182   6.550   6.891   9.195  0.9968  1.1764  2.1053
  154SAPE   H8Y17183   6.443   7.030   9.195 -1.2203 -0.3318 -1.2940
  154SAPE   C3917184   6.393   6.882   9.055 -0.0975  0.0217  0.8227
  154SAPE   H9X17185   6.285   6.905   9.044  0.3214  3.0965  2.6587
  154SAPE   H9Y17186   6.401   6.771   9.053  1.8371  0.1571  0.5023
  154SAPE  C31017187   6.472   6.942   8.936  0.5286 -0.2544 -0.5244
  154SAPE  H10X17188   6.578   6.920   8.959  0.3546 -2.2628 -1.4819
  154SAPE  H10Y17189   6.461   7.052   8.939 -0.7408 -0.3898  0.0516
  154SAPE  C31117190   6.440   6.879   8.791  0.2451 -0.4696  0.1492
  154SAPE  H11X17191   6.332   6.898   8.769  0.4417 -0.6360 -0.9721
  154SAPE  H11Y17192   6.464   6.771   8.789 -1.0760 -0.7721  0.0137
  154SAPE  C31217193   6.515   6.943   8.676  0.2186 -0.6579  0.8510
  154SAPE  H12X17194   6.621   6.958   8.708  0.9038 -1.5089 -0.9313
  154SAPE  H12Y17195   6.481   7.048   8.664  2.0167 -0.0154  1.1918
  154SAPE  C31317196   6.515   6.870   8.544 -0.1786  0.0316 -0.1629
  154SAPE  H13X17197   6.417   6.831   8.511 -0.6010  0.6593  0.3386
  154SAPE  H13Y17198   6.590   6.788   8.542 -1.0119 -0.7804  0.9284
  154SAPE  C31417199   6.569   6.966   8.437 -0.5536 -0.2472 -0.6380
  154SAPE  H14X17200   6.597   6.900   8.352  2.1520  0.0743 -0.0532
  154SAPE  H14Y17201   6.667   6.999   8.477  0.8424 -3.2441 -1.4165
  154SAPE  C31517202   6.472   7.068   8.390  0.0486 -0.0130 -0.4667
  154SAPE  H15X17203   6.430   7.113   8.483 -1.1119  0.6509 -1.3001
  154SAPE  H15Y17204   6.392   7.014   8.336  0.5683 -0.8800 -0.3799
  154SAPE  C31617205   6.533   7.186   8.313 -0.2367 -0.0556  0.1311
  154SAPE  H16X17206   6.596   7.158   8.226  0.4508  3.3920 -0.5638
  154SAPE  H16Y17207   6.603   7.238   8.383  2.2422 -0.8229 -1.7021
  154SAPE  C31717208   6.419   7.282   8.277 -0.7323  0.2112  1.2761
  154SAPE  H17X17209   6.346   7.300   8.358 -0.6513  3.0762  0.7605
  154SAPE  H17Y17210   6.346   7.229   8.212  2.1522  0.1203 -2.0657
  154SAPE  C31817211   6.471   7.401   8.197  0.7622  0.2886  0.8230
  154SAPE  H18X17212   6.393   7.480   8.186  0.8187  0.0173 -1.9174
  154SAPE  H18Y17213   6.511   7.375   8.097 -0.2276  2.3048 -0.1279
  154SAPE  H18Z17214   6.554   7.444   8.257  0.5660  1.8771 -0.0066
  155SAPE     N17215   1.263   0.909  11.192 -0.2262  0.0975 -0.1266
  155SAPE   HN117216   1.210   0.888  11.279  1.4703 -3.9339  0.0388
  155SAPE   HN217217   1.354   0.860  11.204 -0.0449  1.0016  2.3121
  155SAPE   HN317218   1.283   1.011  11.190  1.2510 -0.1759  0.3775
  155SAPE   C1217219   1.186   0.879  11.068 -0.5184  0.6176  0.1333
  155SAPE  H12A17220   1.164   0.771  11.073  1.4873  0.1416 -0.6430
  155SAPE  H12B17221   1.258   0.894  10.984 -0.6508 -0.6135 -0.2094
  155SAPE   C1117222   1.064   0.957  11.064  0.4636  0.1746  0.1038
  155SAPE  H11A17223   1.005   0.928  11.154 -1.3444 -0.5867 -1.2963
  155SAPE  H11B17224   1.012   0.920  10.973 -1.6586 -0.2230  1.4341
  155SAPE     P17225   1.155   1.157  10.938 -0.2922 -0.1041  0.2463
  155SAPE   O1317226   1.109   1.299  10.926  0.5385 -0.3285 -0.2292
  155SAPE   O1417227   1.305   1.142  10.951 -0.1646  0.6173 -0.5956
  155SAPE   O1217228   1.086   1.098  11.061 -0.2241  0.1119 -0.0561
  155SAPE   O1117229   1.109   1.061  10.821 -0.3307  0.2411  0.3897
  155SAPE    C117230   0.976   1.075  10.764 -0.4975  0.4820 -0.1573
  155SAPE    HA17231   0.893   1.040  10.829  0.1871 -2.9164 -1.0088
  155SAPE    HB17232   0.961   1.182  10.739  0.3074  0.9142  1.1446
  155SAPE    C217233   0.960   0.989  10.633  0.0437 -0.5905 -0.1856
  155SAPE    HS17234   1.038   0.910  10.637  0.0316 -0.5921 -0.0158
  155SAPE   O2117235   0.959   1.066  10.515  0.3904 -0.0181 -0.3939
  155SAPE   C2117236   1.073   1.095  10.466 -0.0132  0.2295  0.1919
  155SAPE   O2217237   1.183   1.060  10.506 -0.5386  0.4470 -0.1113
  155SAPE   C2217238   1.044   1.196  10.344 -0.3149 -0.1810 -0.0979
  155SAPE   H2R17239   0.962   1.150  10.285 -2.2099 -0.9249  2.9917
  155SAPE   H2S17240   1.005   1.290  10.388  0.6022  0.1618 -0.0145
  155SAPE    C317241   0.826   0.914  10.648 -0.3772  0.0501 -0.1279
  155SAPE    HX17242   0.746   0.988  10.669  1.1970  2.1312 -1.2641
  155SAPE    HY17243   0.844   0.847  10.735 -2.3487 -0.7858 -0.3117
  155SAPE   O3117244   0.795   0.824  10.533  0.3663  0.5618 -0.5310
  155SAPE   C3117245   0.694   0.870  10.451  0.0643 -0.8307  0.3164
  155SAPE   O3217246   0.615   0.955  10.485  0.6155 -0.0825 -0.0003
  155SAPE   C3217247   0.726   0.825  10.311  0.3756 -0.8880 -0.2661
  155SAPE   H2X17248   0.680   0.726  10.286 -1.4111 -0.0242 -0.5080
  155SAPE   H2Y17249   0.836   0.816  10.300  0.2512  0.2153 -2.8845
  155SAPE   C2317250   1.168   1.226  10.261 -0.5850 -0.4311  0.0281
  155SAPE   H3R17251   1.197   1.138  10.200 -1.6262 -0.4301 -0.4778
  155SAPE   H3S17252   1.249   1.264  10.328 -2.2018  1.0666  1.1744
  155SAPE   C2417253   1.138   1.344  10.168  0.0183  0.0531  0.2288
  155SAPE   H4R17254   1.108   1.426  10.236  0.2952  1.2682 -1.0724
  155SAPE   H4S17255   1.050   1.330  10.102 -0.0963 -2.4798  0.8724
  155SAPE   C2517256   1.254   1.370  10.082  0.1897  0.4034  0.4676
  155SAPE   H5R17257   1.347   1.396  10.135  2.0977 -2.0649 -1.4461
  155SAPE   C2617258   1.269   1.351   9.949  0.2339  0.5851 -0.5383
  155SAPE   H6R17259   1.365   1.374   9.901  0.8224  1.8267  1.1591
  155SAPE   C2717260   1.166   1.302   9.851  0.1783 -0.2754 -0.0301
  155SAPE   H7R17261   1.072   1.284   9.907 -0.1624 -1.2822 -0.9097
  155SAPE   H7S17262   1.199   1.208   9.802 -0.0899 -1.0355  1.2177
  155SAPE   C2817263   1.147   1.413   9.753  0.4724 -0.0391 -0.4500
  155SAPE   H8R17264   1.099   1.497   9.805 -0.6762 -0.3776 -0.9464
  155SAPE   C2917265   1.169   1.418   9.625 -0.4496 -0.0390 -0.9611
  155SAPE   H9R17266   1.128   1.510   9.580 -0.9952  0.4701  0.5595
  155SAPE  C21017267   1.231   1.311   9.532 -0.6706  0.1779  0.8525
  155SAPE  H10R17268   1.243   1.217   9.591  0.7263 -0.3968 -0.3163
  155SAPE  H10S17269   1.325   1.345   9.485 -1.4291  0.6565 -0.3453
  155SAPE  C21117270   1.134   1.279   9.425  0.5031  0.2185  0.1877
  155SAPE  H11R17271   1.064   1.207   9.470  2.1978 -1.3813  0.2980
  155SAPE  C21217272   1.146   1.302   9.290 -0.3440  0.0389 -0.3332
  155SAPE  H12R17273   1.061   1.272   9.227 -2.8425  0.5186  2.6858
  155SAPE  C21317274   1.263   1.368   9.218  0.3451  0.5142  0.0018
  155SAPE  H13R17275   1.317   1.283   9.171  1.9863  0.3531  2.0969
  155SAPE  H13S17276   1.333   1.412   9.292  0.9006 -1.2070  0.5239
  155SAPE  C21417277   1.223   1.468   9.114  0.2145  0.7883 -0.3427
  155SAPE  H14R17278   1.160   1.545   9.161  2.8877  3.0754 -0.3334
  155SAPE  C21517279   1.243   1.467   8.980 -0.1452  0.0218  0.1850
  155SAPE  H15R17280   1.205   1.552   8.922 -0.4312 -1.3321 -1.6419
  155SAPE  C21617281   1.320   1.366   8.898 -0.0010  0.2461  0.3683
  155SAPE  H16R17282   1.360   1.283   8.960  0.9085  1.9601  2.1195
  155SAPE  H16S17283   1.414   1.406   8.855  0.5633 -2.7558 -1.3277
  155SAPE  C21717284   1.241   1.310   8.783 -0.5283  0.4235  0.7007
  155SAPE  H17R17285   1.139   1.290   8.823 -1.4250  0.9459 -1.2817
  155SAPE  H17S17286   1.290   1.214   8.756  0.0783  0.8244  0.3808
  155SAPE  C21817287   1.241   1.392   8.654  0.0515  0.2328 -0.3362
  155SAPE  H18R17288   1.200   1.489   8.688 -0.4869 -0.7254  1.8722
  155SAPE  H18S17289   1.173   1.347   8.578 -0.5956 -2.8487  1.9711
  155SAPE  C21917290   1.376   1.415   8.591  0.0805 -0.3069  0.0064
  155SAPE  H19R17291   1.451   1.453   8.664  1.5713 -1.7390 -0.7293
  155SAPE  H19S17292   1.360   1.491   8.512  0.9080 -0.1534 -0.0144
  155SAPE  C22017293   1.441   1.293   8.527 -0.1087 -0.1113  0.4652
  155SAPE  H20R17294   1.364   1.215   8.510 -0.0853 -0.2098  0.8111
  155SAPE  H20S17295   1.522   1.251   8.590 -0.8022  1.8242  2.7538
  155SAPE  H20T17296   1.486   1.314   8.428  1.2400 -1.8474  0.7013
  155SAPE   C3317297   0.683   0.929  10.204 -0.0237 -0.9679  0.4438
  155SAPE   H3X17298   0.731   1.025  10.233 -0.4036 -0.9010  0.8574
  155SAPE   H3Y17299   0.574   0.949  10.214 -0.2156 -1.4259 -0.6555
  155SAPE   C3417300   0.722   0.901  10.059 -0.3699  0.4041 -0.5692
  155SAPE   H4X17301   0.676   0.984  10.001  1.1345  1.8557  0.2711
  155SAPE   H4Y17302   0.681   0.802  10.031  2.1125 -1.0710  0.8053
  155SAPE   C3517303   0.867   0.904  10.032 -1.0830  0.1501  0.3334
  155SAPE   H5X17304   0.925   0.832  10.095 -0.3535  0.2489 -0.2124
  155SAPE   H5Y17305   0.902   1.009  10.043  0.5180 -0.5980  2.7280
  155SAPE   C3617306   0.900   0.856   9.883  0.8186  0.1629  0.4883
  155SAPE   H6X17307   0.848   0.760   9.863  1.9335 -0.5016  0.7610
  155SAPE   H6Y17308   1.010   0.845   9.882  1.0259  1.9129  1.4255
  155SAPE   C3717309   0.860   0.969   9.784  0.1166 -0.5062  0.2155
  155SAPE   H7X17310   0.924   1.057   9.811 -0.7791  0.2641 -0.1401
  155SAPE   H7Y17311   0.752   0.993   9.786  0.5394  1.6662 -1.0004
  155SAPE   C3817312   0.888   0.930   9.641 -0.3755 -0.1008  0.2029
  155SAPE   H8X17313   0.845   0.828   9.631 -2.2396  0.7302 -0.4552
  155SAPE   H8Y17314   0.998   0.928   9.626 -0.4949  0.4352 -0.7473
  155SAPE   C3917315   0.831   1.026   9.537  0.0164 -0.3937  0.2093
  155SAPE   H9X17316   0.846   1.134   9.554  1.3260 -0.5426  0.0362
  155SAPE   H9Y17317   0.720   1.021   9.547 -0.0615 -0.9802 -0.8050
  155SAPE  C31017318   0.878   0.998   9.390  0.0568  0.0169  0.8270
  155SAPE  H10X17319   0.868   0.895   9.351 -2.4666  0.0184  1.4042
  155SAPE  H10Y17320   0.985   1.028   9.390  0.1172 -0.1812  0.1858
  155SAPE  C31117321   0.807   1.087   9.286 -0.3620 -0.2454  0.9864
  155SAPE  H11X17322   0.812   1.192   9.323  0.6356 -0.5983  1.8671
  155SAPE  H11Y17323   0.700   1.055   9.280 -0.1302 -0.5515 -2.2409
  155SAPE  C31217324   0.867   1.073   9.143  0.5241 -0.5645 -0.7607
  155SAPE  H12X17325   0.853   0.968   9.109 -0.1909 -0.4665 -0.7671
  155SAPE  H12Y17326   0.972   1.109   9.139 -0.3574  2.1737  0.1266
  155SAPE  C31317327   0.787   1.169   9.052  0.1297  0.4730 -0.1440
  155SAPE  H13X17328   0.788   1.275   9.085  0.5696  0.4359 -0.0341
  155SAPE  H13Y17329   0.680   1.143   9.046  0.2103 -0.3670  1.6853
  155SAPE  C31417330   0.851   1.173   8.910 -0.3669  0.1897 -0.0639
  155SAPE  H14X17331   0.868   1.065   8.888 -1.5789 -0.0539  0.1486
  155SAPE  H14Y17332   0.944   1.232   8.906  0.2226 -0.8482 -3.6359
  155SAPE  C31517333   0.748   1.227   8.813 -0.1647  0.1947 -0.2305
  155SAPE  H15X17334   0.709   1.323   8.852 -0.8157  0.1326 -0.7201
  155SAPE  H15Y17335   0.674   1.147   8.794 -0.6830  0.9702 -1.6213
  155SAPE  C31617336   0.817   1.265   8.682  0.0135  0.0735 -0.1282
  155SAPE  H16X17337   0.891   1.348   8.693 -0.7030  0.5718  1.0105
  155SAPE  H16Y17338   0.738   1.309   8.617  0.8812  2.0108  0.0799
  155SAPE  C31717339   0.894   1.149   8.614 -1.0054  0.2482  0.0327
  155SAPE  H17X17340   0.822   1.067   8.599 -3.3063  2.0172  1.1202
  155SAPE  H17Y17341   0.979   1.118   8.679 -2.0018 -1.3296  0.6056
  155SAPE  C31817342   0.944   1.190   8.478  0.4157  0.1526 -0.0569
  155SAPE  H18X17343   1.000   1.286   8.483 -1.2096  1.2984 -2.6198
  155SAPE  H18Y17344   0.853   1.217   8.419  0.2347  3.6127  1.6541
  155SAPE  H18Z17345   1.001   1.113   8.423  1.5183  0.9445 -0.0375
  156SAPE     N17346   5.637   5.127  10.716 -0.0858 -0.0663  0.2783
  156SAPE   HN117347   5.679   5.198  10.779 -0.7571  1.5307 -1.0101
  156SAPE   HN217348   5.717   5.080  10.668 -0.4867 -0.3697 -0.0978
  156SAPE   HN317349   5.575   5.176  10.648  0.8711  1.8872  0.7640
  156SAPE   C1217350   5.566   5.032  10.800 -0.7012 -0.1987 -0.0949
  156SAPE  H12A17351   5.530   5.089  10.888  0.3829 -1.2384  1.0465
  156SAPE  H12B17352   5.639   4.952  10.825  0.0048  0.9968  1.7218
  156SAPE   C1117353   5.467   4.953  10.710  0.0769 -0.0601  0.0776
  156SAPE  H11A17354   5.369   4.999  10.735  0.7997  2.1318 -0.8807
  156SAPE  H11B17355   5.471   4.848  10.744  0.7985 -0.2104 -0.4597
  156SAPE     P17356   5.375   4.896  10.480  0.2463 -0.3370  0.0501
  156SAPE   O1317357   5.340   4.764  10.534  0.1170 -0.1837 -0.3067
  156SAPE   O1417358   5.261   4.988  10.489 -0.2904  0.4412  0.2802
  156SAPE   O1217359   5.495   4.956  10.570 -0.0378  0.4356  0.1699
  156SAPE   O1117360   5.440   4.889  10.345 -0.1772  0.5828  0.1686
  156SAPE    C117361   5.524   4.990  10.286 -0.2334 -0.2214 -0.0716
  156SAPE    HA17362   5.598   5.026  10.360 -0.1241 -0.1311 -0.2246
  156SAPE    HB17363   5.577   4.948  10.198 -0.6274  0.8794 -0.8524
  156SAPE    C217364   5.436   5.104  10.238  0.5169  0.5868  0.4890
  156SAPE    HS17365   5.371   5.142  10.320 -1.5267 -2.4248  0.2989
  156SAPE   O2117366   5.368   5.080  10.115  0.4750 -0.2058 -0.4327
  156SAPE   C2117367   5.267   5.162  10.085  0.0398 -0.5146 -0.5484
  156SAPE   O2217368   5.224   5.237  10.169 -0.3392 -0.5073 -0.0993
  156SAPE   C2217369   5.222   5.151   9.937 -0.3466 -0.3015 -0.1172
  156SAPE   H2R17370   5.295   5.078   9.896  0.0689 -1.0493  1.9365
  156SAPE   H2S17371   5.120   5.107   9.926 -0.6407  0.4228 -0.3322
  156SAPE    C317372   5.535   5.228  10.206 -0.2882  0.3518  0.5338
  156SAPE    HX17373   5.596   5.245  10.297  0.4826 -0.8447  0.2518
  156SAPE    HY17374   5.485   5.318  10.165 -1.4140 -1.4598 -2.2494
  156SAPE   O3117375   5.610   5.183  10.089 -0.1050  0.1506  0.3585
  156SAPE   C3117376   5.737   5.207  10.079 -0.1379 -0.0903 -0.2857
  156SAPE   O3217377   5.805   5.262  10.160 -0.0267 -0.9799  0.1579
  156SAPE   C3217378   5.785   5.157   9.945 -0.0439 -0.2025  0.1721
  156SAPE   H2X17379   5.698   5.165   9.876  0.3162  0.7942 -0.1816
  156SAPE   H2Y17380   5.803   5.050   9.967 -0.2913 -0.0706  1.0174
  156SAPE   C2317381   5.223   5.293   9.862  0.0874  0.4250 -0.3580
  156SAPE   H3R17382   5.191   5.372   9.933  0.1011  1.0722 -1.0620
  156SAPE   H3S17383   5.140   5.285   9.788 -0.7452  2.3576  0.3243
  156SAPE   C2417384   5.359   5.339   9.807 -0.1744 -0.7795  0.2424
  156SAPE   H4R17385   5.428   5.337   9.894  1.4948  0.4228 -1.0309
  156SAPE   H4S17386   5.359   5.445   9.773 -1.4132 -1.1741 -1.0117
  156SAPE   C2517387   5.410   5.250   9.698 -0.3926 -0.1240  0.1707
  156SAPE   H5R17388   5.457   5.159   9.737 -1.7729 -0.7848  0.3284
  156SAPE   C2617389   5.395   5.268   9.563 -0.7077 -0.3882  0.8227
  156SAPE   H6R17390   5.429   5.192   9.490  4.1349  1.4199  0.9923
  156SAPE   C2717391   5.330   5.396   9.508 -0.4404  0.2558 -0.7540
  156SAPE   H7R17392   5.409   5.473   9.499  0.6324 -0.8214 -0.6409
  156SAPE   H7S17393   5.252   5.440   9.574 -2.0322  0.0468 -2.4653
  156SAPE   C2817394   5.283   5.357   9.370  0.0110  0.5909 -0.7509
  156SAPE   H8R17395   5.204   5.281   9.378  0.3923  0.4425  2.0628
  156SAPE   C2917396   5.337   5.389   9.253  0.0960  0.7179 -0.5794
  156SAPE   H9R17397   5.293   5.350   9.160  0.2359 -2.0572  0.4716
  156SAPE  C21017398   5.472   5.462   9.233 -0.6255  0.2744  0.8214
  156SAPE  H10R17399   5.471   5.535   9.317 -2.6392 -0.5577  1.5656
  156SAPE  H10S17400   5.470   5.527   9.143 -1.2306 -0.5183  0.2526
  156SAPE  C21117401   5.593   5.373   9.228 -0.2005 -0.1644 -0.0324
  156SAPE  H11R17402   5.595   5.288   9.298  3.1011 -0.4161 -0.3213
  156SAPE  C21217403   5.703   5.391   9.151 -0.0212  0.4003 -0.4720
  156SAPE  H12R17404   5.772   5.305   9.147 -1.7675 -1.0279 -0.7177
  156SAPE  C21317405   5.739   5.497   9.054  0.3194 -0.2804  0.0069
  156SAPE  H13R17406   5.680   5.586   9.083 -0.3762 -0.8301  0.2811
  156SAPE  H13S17407   5.695   5.467   8.956 -0.5916 -0.5446  0.4970
  156SAPE  C21417408   5.882   5.531   9.064 -0.9049  0.3279  0.0935
  156SAPE  H14R17409   5.914   5.548   9.167 -2.8427 -2.8151  1.2848
  156SAPE  C21517410   5.975   5.549   8.971 -0.0403 -0.6703 -0.2079
  156SAPE  H15R17411   6.074   5.568   9.016 -1.5639 -1.4864  3.6881
  156SAPE  C21617412   5.956   5.540   8.827  0.3501  1.2235  0.0430
  156SAPE  H16R17413   6.015   5.622   8.779  1.8495  1.2464  1.8687
  156SAPE  H16S17414   5.853   5.554   8.789  0.2623  1.8547  0.5194
  156SAPE  C21717415   6.013   5.402   8.776 -0.0590 -0.2729  0.4814
  156SAPE  H17R17416   5.950   5.321   8.819 -0.1138 -1.7852 -2.3640
  156SAPE  H17S17417   6.118   5.371   8.793 -0.2768 -0.6619  1.1668
  156SAPE  C21817418   5.996   5.407   8.627 -0.5592  0.1629  0.3599
  156SAPE  H18R17419   6.063   5.477   8.572  0.0154  0.6411  1.6539
  156SAPE  H18S17420   5.894   5.444   8.602 -0.7189 -1.2726 -1.2680
  156SAPE  C21917421   5.998   5.272   8.550 -0.2756 -0.2343 -0.7296
  156SAPE  H19R17422   5.912   5.203   8.565  0.1834 -0.8004 -0.6789
  156SAPE  H19S17423   6.088   5.224   8.595 -0.2876 -0.2393 -0.7112
  156SAPE  C22017424   6.012   5.296   8.401 -0.1862  0.4313 -0.5721
  156SAPE  H20R17425   6.037   5.206   8.341 -1.9744 -0.6219  0.2451
  156SAPE  H20S17426   6.091   5.375   8.395 -0.1244  0.2208 -3.0565
  156SAPE  H20T17427   5.926   5.352   8.358  0.3786  2.7136  1.1628
  156SAPE   C3317428   5.917   5.223   9.886  0.7683  0.1863 -0.4494
  156SAPE   H3X17429   6.014   5.178   9.914 -0.8019 -1.7638  2.2167
  156SAPE   H3Y17430   5.920   5.332   9.907  1.3772 -0.7224  5.1388
  156SAPE   C3417431   5.917   5.201   9.729 -0.1745 -0.4994  0.1541
  156SAPE   H4X17432   5.833   5.264   9.694  0.9440  0.8765 -0.1216
  156SAPE   H4Y17433   5.893   5.098   9.696  0.4558 -0.4494 -0.4874
  156SAPE   C3517434   6.052   5.237   9.660 -0.0425  0.3338 -0.1316
  156SAPE   H5X17435   6.134   5.173   9.701 -0.8806  0.0957  1.1746
  156SAPE   H5Y17436   6.073   5.341   9.691  3.1309  0.4854 -2.4822
  156SAPE   C3617437   6.040   5.222   9.507  0.8161  0.0204 -0.2350
  156SAPE   H6X17438   5.971   5.294   9.458 -0.0434 -0.4228  0.3079
  156SAPE   H6Y17439   5.986   5.126   9.490 -1.5876  1.5635 -1.7578
  156SAPE   C3717440   6.172   5.230   9.433  0.3126  0.2582  0.4834
  156SAPE   H7X17441   6.234   5.140   9.454 -1.0039 -1.2558 -1.8931
  156SAPE   H7Y17442   6.220   5.327   9.457 -0.4797  0.9512 -0.6748
  156SAPE   C3817443   6.142   5.236   9.278 -0.2845 -0.2919 -0.3111
  156SAPE   H8X17444   6.058   5.305   9.257 -1.2054 -0.9952  1.0373
  156SAPE   H8Y17445   6.108   5.134   9.249 -0.6904 -0.2961  0.1809
  156SAPE   C3917446   6.250   5.280   9.185  0.1423 -0.1399 -0.9333
  156SAPE   H9X17447   6.352   5.244   9.213  0.6661  2.5698  0.7790
  156SAPE   H9Y17448   6.257   5.390   9.189  0.8494 -0.1307 -1.9445
  156SAPE  C31017449   6.229   5.238   9.039 -0.1245  0.4296  0.4875
  156SAPE  H10X17450   6.138   5.284   8.996 -1.8324 -2.3055  1.0305
  156SAPE  H10Y17451   6.207   5.130   9.022  0.2746  0.6552 -1.5987
  156SAPE  C31117452   6.347   5.271   8.939 -0.3367  0.4127  0.0352
  156SAPE  H11X17453   6.449   5.259   8.980 -0.0402  0.9221 -0.5352
  156SAPE  H11Y17454   6.343   5.381   8.920 -1.3751  0.4943  0.6787
  156SAPE  C31217455   6.340   5.193   8.807  0.8529 -0.0183 -0.0871
  156SAPE  H12X17456   6.243   5.209   8.756  0.2343  0.3006  1.1878
  156SAPE  H12Y17457   6.349   5.083   8.826  0.5449  0.0848  0.6722
  156SAPE  C31317458   6.463   5.225   8.722 -0.2089  0.5287 -1.1608
  156SAPE  H13X17459   6.548   5.239   8.792 -0.5800 -2.0360 -0.1277
  156SAPE  H13Y17460   6.452   5.328   8.681 -1.3548  1.1640  0.6536
  156SAPE  C31417461   6.482   5.127   8.613  0.8628 -0.2016  0.5055
  156SAPE  H14X17462   6.409   5.153   8.533  0.6225 -1.1501  0.4113
  156SAPE  H14Y17463   6.474   5.020   8.644 -0.8448  0.4590  2.4359
  156SAPE  C31517464   6.622   5.127   8.552 -0.1372 -0.7183  0.0682
  156SAPE  H15X17465   6.692   5.091   8.630  0.6503  0.2679 -0.1746
  156SAPE  H15Y17466   6.657   5.232   8.541 -0.5444 -0.2671  2.7322
  156SAPE  C31617467   6.630   5.046   8.423 -0.3450  0.0567 -0.9304
  156SAPE  H16X17468   6.544   5.062   8.355  0.7788 -0.6175 -2.5349
  156SAPE  H16Y17469   6.627   4.940   8.456  0.3746  0.6233  1.0843
  156SAPE  C31717470   6.761   5.052   8.341 -0.4226  0.3882  0.5437
  156SAPE  H17X17471   6.782   5.157   8.312  0.2421  0.1809  0.2547
  156SAPE  H17Y17472   6.751   4.993   8.247  1.2953  1.3483 -0.2651
  156SAPE  C31817473   6.895   4.999   8.412 -0.1974 -0.2428  0.2133
  156SAPE  H18X17474   6.978   5.019   8.341  0.8311 -0.4453  1.3460
  156SAPE  H18Y17475   6.884   4.890   8.427 -0.1068 -0.3447 -0.4288
  156SAPE  H18Z17476   6.914   5.051   8.509 -0.8201 -1.4807  1.0025
  157SAPE     N17477   3.942   5.480  10.850 -0.6010  0.8162 -0.8865
  157SAPE   HN117478   3.949   5.474  10.746  2.3741  0.4136 -0.7042
  157SAPE   HN217479   3.875   5.406  10.878 -0.2657  0.2388 -1.5669
  157SAPE   HN317480   3.909   5.572  10.885 -1.1281  0.4433 -0.3882
  157SAPE   C1217481   4.081   5.448  10.903  0.5696 -0.0981 -0.7342
  157SAPE  H12A17482   4.116   5.350  10.865 -3.1035 -2.4333  1.5772
  157SAPE  H12B17483   4.070   5.432  11.012  1.2331 -1.5270 -0.8640
  157SAPE   C1117484   4.169   5.570  10.876 -0.3198 -0.0659 -0.6039
  157SAPE  H11A17485   4.252   5.560  10.949 -0.3022  1.4766 -0.4013
  157SAPE  H11B17486   4.116   5.663  10.904  0.4850  0.9511 -2.3911
  157SAPE     P17487   4.337   5.669  10.700  0.5114  0.2491 -0.0571
  157SAPE   O1317488   4.309   5.815  10.684 -0.5534 -0.2548 -0.6109
  157SAPE   O1417489   4.446   5.641  10.784 -0.5033 -0.1696 -0.2109
  157SAPE   O1217490   4.213   5.574  10.741  0.1900 -0.2057  0.0099
  157SAPE   O1117491   4.381   5.617  10.560  0.1728 -0.2237 -0.4863
  157SAPE    C117492   4.294   5.515  10.508 -0.4018  0.9536 -0.1667
  157SAPE    HA17493   4.300   5.417  10.559 -2.8413  0.0328 -1.5421
  157SAPE    HB17494   4.189   5.553  10.510 -0.3828  1.1959 -2.6655
  157SAPE    C217495   4.330   5.485  10.355 -0.3562 -0.5206  0.2622
  157SAPE    HS17496   4.440   5.473  10.347 -0.2674  0.7994 -0.5733
  157SAPE   O2117497   4.276   5.585  10.265 -0.0813  0.0151 -0.2874
  157SAPE   C2117498   4.148   5.595  10.246  0.5617 -0.1694 -0.6825
  157SAPE   O2217499   4.062   5.544  10.319 -0.0654 -0.5299  0.0861
  157SAPE   C2217500   4.116   5.678  10.117  0.1951 -0.1680 -0.0716
  157SAPE   H2R17501   4.115   5.787  10.140 -0.4897 -0.1067 -0.3713
  157SAPE   H2S17502   4.197   5.666  10.042 -0.1600 -0.8193 -0.3571
  157SAPE    C317503   4.283   5.344  10.307 -0.1860 -0.7813  0.3474
  157SAPE    HX17504   4.176   5.317  10.320 -0.4466 -0.0640 -0.2030
  157SAPE    HY17505   4.353   5.279  10.362  1.2545 -0.0354 -0.5679
  157SAPE   O3117506   4.311   5.338  10.166  0.1608 -0.2626 -0.2023
  157SAPE   C3117507   4.332   5.215  10.117  1.3525  0.1704  0.2784
  157SAPE   O3217508   4.334   5.116  10.186 -0.0977 -0.1696  0.9987
  157SAPE   C3217509   4.358   5.210   9.973 -0.0505 -0.9175  0.5848
  157SAPE   H2X17510   4.467   5.227   9.967 -0.1080 -0.8519 -0.3605
  157SAPE   H2Y17511   4.323   5.296   9.912  2.0425 -0.4569  0.0088
  157SAPE   C2317512   3.982   5.646  10.046  0.3826  0.6381 -0.4529
  157SAPE   H3R17513   3.966   5.714   9.959 -2.4904 -1.2602 -1.4824
  157SAPE   H3S17514   3.896   5.667  10.112  0.8239  0.0138  0.3167
  157SAPE   C2417515   3.974   5.504   9.993 -0.5973  0.3419  0.1571
  157SAPE   H4R17516   3.870   5.482   9.962 -0.3573 -1.7103  0.7448
  157SAPE   H4S17517   4.001   5.435  10.076  0.7774 -1.7970 -1.9819
  157SAPE   C2517518   4.076   5.484   9.880 -0.0678 -0.2460  0.4336
  157SAPE   H5R17519   4.179   5.473   9.918  0.1727 -1.1552 -0.4455
  157SAPE   C2617520   4.053   5.470   9.751  0.1674  1.0941  0.1890
  157SAPE   H6R17521   4.142   5.453   9.689 -1.1555  0.6590 -1.6364
  157SAPE   C2717522   3.916   5.467   9.680 -0.2740 -0.1859  0.3232
  157SAPE   H7R17523   3.898   5.559   9.621  0.8703  0.2893  0.7058
  157SAPE   H7S17524   3.840   5.479   9.760  0.3833 -1.0986  1.0959
  157SAPE   C2817525   3.886   5.345   9.595 -0.7596  0.0718  0.2504
  157SAPE   H8R17526   3.819   5.273   9.645 -1.7991  2.0425  1.7552
  157SAPE   C2917527   3.912   5.309   9.465 -0.4769 -0.0272  0.5071
  157SAPE   H9R17528   3.882   5.208   9.434 -0.6847  0.2214 -0.1045
  157SAPE  C21017529   3.996   5.392   9.377  0.5099  0.2202  0.0663
  157SAPE  H10R17530   4.057   5.324   9.314  1.0704  1.4664 -0.7481
  157SAPE  H10S17531   4.061   5.461   9.435 -0.6063  0.1163  1.4776
  157SAPE  C21117532   3.898   5.470   9.289 -0.4181 -0.4436 -0.5300
  157SAPE  H11R17533   3.891   5.576   9.317  2.0957 -0.2429 -0.5783
  157SAPE  C21217534   3.837   5.413   9.178 -0.2348  1.1788  0.1785
  157SAPE  H12R17535   3.774   5.479   9.116  1.1376  2.4365  0.0933
  157SAPE  C21317536   3.859   5.274   9.129  0.7766  0.2536  0.0452
  157SAPE  H13R17537   3.775   5.243   9.064 -0.0149  1.5684  0.4138
  157SAPE  H13S17538   3.849   5.200   9.212  0.1981 -1.7353 -1.7624
  157SAPE  C21417539   3.984   5.238   9.052  0.4453 -0.1695 -0.2388
  157SAPE  H14R17540   4.063   5.183   9.106  0.0144 -0.9912 -0.4372
  157SAPE  C21517541   3.999   5.263   8.924  0.0728 -0.2273 -0.0011
  157SAPE  H15R17542   4.098   5.231   8.889  0.7853  0.8439  0.9937
  157SAPE  C21617543   3.909   5.323   8.814 -0.3112 -0.0849 -0.7032
  157SAPE  H16R17544   3.958   5.417   8.779 -0.2132 -0.4693 -1.6087
  157SAPE  H16S17545   3.814   5.355   8.861 -0.0302 -0.9412  0.4569
  157SAPE  C21717546   3.894   5.237   8.690 -0.0517 -0.1769 -0.5146
  157SAPE  H17R17547   3.817   5.159   8.710 -1.3458  0.4280 -2.8584
  157SAPE  H17S17548   3.991   5.189   8.663 -0.8121 -0.4914 -2.8211
  157SAPE  C21817549   3.866   5.322   8.566  0.9951  0.6374  0.1847
  157SAPE  H18R17550   3.962   5.369   8.537  1.4629 -2.1491 -3.1861
  157SAPE  H18S17551   3.789   5.399   8.588 -0.6815 -1.4662  1.9246
  157SAPE  C21917552   3.810   5.242   8.447 -0.3479 -0.7542  0.1777
  157SAPE  H19R17553   3.889   5.165   8.435  0.3620  0.0201 -0.1902
  157SAPE  H19S17554   3.818   5.314   8.362  1.3321  1.5828  2.2480
  157SAPE  C22017555   3.663   5.203   8.452  1.1644 -0.2112 -0.2196
  157SAPE  H20R17556   3.639   5.097   8.472 -1.0178  0.2333 -0.3485
  157SAPE  H20S17557   3.602   5.222   8.362  0.2966 -4.0239 -0.5243
  157SAPE  H20T17558   3.628   5.252   8.546  1.5786 -0.9536  0.3340
  157SAPE   C3317559   4.316   5.078   9.906  0.0916  0.2709  0.2028
  157SAPE   H3X17560   4.209   5.049   9.920 -0.1329  0.3867 -1.1415
  157SAPE   H3Y17561   4.380   4.992   9.936 -0.1597 -0.2527 -0.7089
  157SAPE   C3417562   4.331   5.092   9.749 -0.0352  0.2238  0.3476
  157SAPE   H4X17563   4.423   5.143   9.714 -0.4149  0.7490  0.1135
  157SAPE   H4Y17564   4.254   5.162   9.710  1.2272  1.6376  0.3663
  157SAPE   C3517565   4.322   4.950   9.683  0.4747  0.0736  0.2314
  157SAPE   H5X17566   4.221   4.906   9.685  0.5628 -0.1097  0.8721
  157SAPE   H5Y17567   4.385   4.894   9.755 -0.5724 -0.1277  1.0051
  157SAPE   C3617568   4.389   4.944   9.551 -0.4382  0.6079  0.6934
  157SAPE   H6X17569   4.383   4.838   9.517  1.9866  0.6103  0.2410
  157SAPE   H6Y17570   4.495   4.972   9.541 -0.6868  1.8585  1.4910
  157SAPE   C3717571   4.303   5.018   9.443 -0.6245  0.3640  0.1719
  157SAPE   H7X17572   4.296   5.126   9.471 -0.4908  0.2775  0.5361
  157SAPE   H7Y17573   4.199   4.980   9.431  0.4394 -2.6029 -0.0383
  157SAPE   C3817574   4.380   5.001   9.306  0.4152 -0.7823  0.0896
  157SAPE   H8X17575   4.387   4.891   9.293 -3.8659 -1.5151  2.8750
  157SAPE   H8Y17576   4.485   5.037   9.315 -0.3517  1.9699 -1.5426
  157SAPE   C3917577   4.321   5.094   9.203 -0.2418  0.3921  0.0527
  157SAPE   H9X17578   4.292   5.184   9.262  3.6421  1.2732  0.7711
  157SAPE   H9Y17579   4.231   5.039   9.166 -0.0339 -1.3646  2.0133
  157SAPE  C31017580   4.414   5.140   9.091 -0.4732  0.0504 -0.0482
  157SAPE  H10X17581   4.459   5.045   9.056 -0.2097  0.8857 -2.0178
  157SAPE  H10Y17582   4.499   5.203   9.124  2.2486 -2.6932 -1.5918
  157SAPE  C31117583   4.352   5.210   8.966 -0.8181 -0.4768 -0.3767
  157SAPE  H11X17584   4.293   5.299   8.998 -3.1114 -2.2831  0.5420
  157SAPE  H11Y17585   4.278   5.135   8.931 -0.7927 -1.4253  1.5213
  157SAPE  C31217586   4.465   5.242   8.867  0.4160 -0.0930  0.5700
  157SAPE  H12X17587   4.497   5.147   8.820 -0.3849 -0.6245  1.0814
  157SAPE  H12Y17588   4.550   5.294   8.917  1.2904 -0.4982 -0.4942
  157SAPE  C31317589   4.411   5.339   8.770 -0.5264  0.1139 -0.1928
  157SAPE  H13X17590   4.408   5.445   8.804  0.6880  0.4258 -1.0217
  157SAPE  H13Y17591   4.303   5.313   8.761 -0.6018  0.4809 -0.3523
  157SAPE  C31417592   4.480   5.339   8.632  0.0571 -0.6085  1.0147
  157SAPE  H14X17593   4.489   5.237   8.588  2.2557  0.1795 -0.4574
  157SAPE  H14Y17594   4.587   5.369   8.642 -0.2460  0.7826  0.1286
  157SAPE  C31517595   4.408   5.435   8.532  0.1211  0.0581  0.3962
  157SAPE  H15X17596   4.301   5.434   8.559  0.4888 -1.0675  1.8362
  157SAPE  H15Y17597   4.417   5.398   8.427  0.5114  3.6272 -0.8887
  157SAPE  C31617598   4.473   5.576   8.534 -0.5974 -0.3245 -0.6448
  157SAPE  H16X17599   4.583   5.564   8.527 -0.4784  0.9528 -1.0619
  157SAPE  H16Y17600   4.442   5.630   8.627 -1.9412 -0.4579 -0.9982
  157SAPE  C31717601   4.416   5.666   8.425 -0.1276  0.1674 -0.3063
  157SAPE  H17X17602   4.436   5.633   8.321  0.5976  3.2699 -1.2080
  157SAPE  H17Y17603   4.468   5.764   8.420  2.3300 -1.1573 -1.1743
  157SAPE  C31817604   4.264   5.695   8.442  0.6505 -0.0341  0.5919
  157SAPE  H18X17605   4.207   5.601   8.461  1.5729 -0.7405 -0.0911
  157SAPE  H18Y17606   4.227   5.758   8.359  0.7788  0.0199  0.5762
  157SAPE  H18Z17607   4.246   5.759   8.531 -0.4617  0.1604  0.2306
  158SAPE     N17608   5.094   5.169  10.401  0.2129 -0.4188  0.4241
  158SAPE   HN117609   5.142   5.194  10.312  1.9063 -2.2398  0.7704
  158SAPE   HN217610   5.151   5.098  10.451  1.3584  0.4173  0.3256
  158SAPE   HN317611   5.003   5.135  10.363  0.4589  1.6870 -2.1910
  158SAPE   C1217612   5.078   5.293  10.489 -0.2102  0.2070  0.8001
  158SAPE  H12A17613   5.011   5.268  10.575 -1.2443  0.1499 -0.0171
  158SAPE  H12B17614   5.021   5.366  10.428  0.3056 -1.1865 -1.3824
  158SAPE   C1117615   5.212   5.343  10.549  0.1080  0.0461 -0.2739
  158SAPE  H11A17616   5.255   5.248  10.586  2.7203  0.9872 -0.8414
  158SAPE  H11B17617   5.189   5.403  10.640 -3.1184 -1.2834 -0.1241
  158SAPE     P17618   5.445   5.421  10.508  0.2084 -0.1069  0.1682
  158SAPE   O1317619   5.438   5.520  10.621 -0.5776  0.2162 -0.1224
  158SAPE   O1417620   5.507   5.293  10.546 -0.1349 -0.1887 -0.2219
  158SAPE   O1217621   5.299   5.403  10.453 -1.1187 -0.4834 -0.1460
  158SAPE   O1117622   5.525   5.474  10.372  0.3042  0.5325 -0.3236
  158SAPE    C117623   5.582   5.607  10.365 -0.3087  0.2146  0.6365
  158SAPE    HA17624   5.527   5.681  10.427 -1.3012 -0.0929  0.1268
  158SAPE    HB17625   5.686   5.595  10.402 -0.6417 -1.0099  1.1869
  158SAPE    C217626   5.582   5.666  10.225 -0.4854  0.2595  0.1001
  158SAPE    HS17627   5.588   5.777  10.227 -1.1538  0.3114 -0.6905
  158SAPE   O2117628   5.471   5.622  10.150  0.2187  0.4048 -0.1226
  158SAPE   C2117629   5.357   5.672  10.189 -0.2932  0.0503 -0.1986
  158SAPE   O2217630   5.346   5.768  10.269  0.2353 -0.3301  0.3148
  158SAPE   C2217631   5.241   5.602  10.133 -0.8395 -0.2030 -0.3994
  158SAPE   H2R17632   5.278   5.515  10.075 -1.9105 -2.2602  1.9322
  158SAPE   H2S17633   5.173   5.565  10.213  0.8867  2.1882  2.2569
  158SAPE    C317634   5.714   5.630  10.151 -0.0318 -0.5131  0.1876
  158SAPE    HX17635   5.714   5.519  10.159  0.4264 -0.4447  1.2201
  158SAPE    HY17636   5.799   5.667  10.212  1.2299 -1.6980 -0.8237
  158SAPE   O3117637   5.714   5.680  10.013 -0.0495 -0.1178 -0.0537
  158SAPE   C3117638   5.674   5.588   9.927 -0.5791  0.2655  0.2520
  158SAPE   O3217639   5.640   5.479   9.945  0.5388  0.0037 -0.3107
  158SAPE   C3217640   5.714   5.652   9.795 -0.1481  0.6140  0.3359
  158SAPE   H2X17641   5.823   5.633   9.793 -0.2985 -0.5537  2.3490
  158SAPE   H2Y17642   5.698   5.762   9.790 -0.6279  0.5349  0.1146
  158SAPE   C2317643   5.143   5.689  10.052 -0.0782  0.6486 -0.6555
  158SAPE   H3R17644   5.131   5.788  10.100  0.4714  0.0036  0.8311
  158SAPE   H3S17645   5.051   5.628  10.065  0.1768  0.6747  1.4019
  158SAPE   C2417646   5.172   5.701   9.905 -0.2558 -0.2537 -0.3770
  158SAPE   H4R17647   5.184   5.600   9.860  0.3170 -1.2224  1.8542
  158SAPE   H4S17648   5.270   5.749   9.883 -0.7768  0.5791 -0.9128
  158SAPE   C2517649   5.062   5.774   9.835  0.1198 -0.2171  0.1630
  158SAPE   H5R17650   5.030   5.862   9.892  2.4973  0.8152 -0.0602
  158SAPE   C2617651   4.999   5.741   9.723  0.3814 -0.1105  0.0182
  158SAPE   H6R17652   4.919   5.808   9.687 -3.4238 -3.5716  1.7027
  158SAPE   C2717653   5.023   5.622   9.631  0.5076  0.1200 -0.3203
  158SAPE   H7R17654   5.051   5.531   9.688  2.7741 -0.2011 -1.8529
  158SAPE   H7S17655   5.117   5.647   9.577 -0.3360  2.2344 -0.8463
  158SAPE   C2817656   4.910   5.587   9.538  0.5714 -0.2161 -0.1178
  158SAPE   H8R17657   4.819   5.560   9.593  0.5967  1.1942  0.6366
  158SAPE   C2917658   4.902   5.584   9.405  0.4758  0.0235 -0.2424
  158SAPE   H9R17659   4.807   5.546   9.366 -0.8350  3.1158 -0.1521
  158SAPE  C21017660   5.009   5.631   9.307  0.6512  0.0177 -0.3362
  158SAPE  H10R17661   5.029   5.534   9.258 -2.8926 -0.5165 -0.8697
  158SAPE  H10S17662   5.107   5.655   9.353  0.4558 -0.5557  0.3737
  158SAPE  C21117663   4.970   5.734   9.202 -0.5224  0.0239 -0.2634
  158SAPE  H11R17664   4.867   5.773   9.210 -0.4898  0.7782 -2.9375
  158SAPE  C21217665   5.044   5.764   9.095 -0.1720  0.5194 -0.7913
  158SAPE  H12R17666   4.998   5.838   9.029  0.3852 -0.4566 -2.2977
  158SAPE  C21317667   5.184   5.711   9.067 -0.5476 -0.7526 -0.2520
  158SAPE  H13R17668   5.192   5.608   9.108  1.2298 -0.9971 -1.1480
  158SAPE  H13S17669   5.246   5.782   9.125 -1.8572  0.8836 -0.8356
  158SAPE  C21417670   5.221   5.722   8.920 -0.2817 -0.6682 -0.1536
  158SAPE  H14R17671   5.217   5.818   8.867 -0.7917 -0.7204 -0.2077
  158SAPE  C21517672   5.260   5.618   8.841  0.3694 -0.3247  0.0874
  158SAPE  H15R17673   5.268   5.637   8.733  0.1484 -0.5782  0.0280
  158SAPE  C21617674   5.279   5.470   8.884 -0.9138 -0.2255 -0.5373
  158SAPE  H16R17675   5.190   5.406   8.868 -0.5836 -0.6933 -0.5050
  158SAPE  H16S17676   5.300   5.462   8.993 -1.0475 -0.9872 -0.5648
  158SAPE  C21717677   5.393   5.394   8.806 -0.7043  0.3371 -0.1674
  158SAPE  H17R17678   5.486   5.448   8.833 -2.0448  0.4362  4.8376
  158SAPE  H17S17679   5.378   5.409   8.697 -0.2349 -1.3084 -0.4602
  158SAPE  C21817680   5.395   5.240   8.832  0.0460  0.0442  0.1639
  158SAPE  H18R17681   5.292   5.202   8.819 -0.2977  0.1168  2.4869
  158SAPE  H18S17682   5.406   5.207   8.937  0.3649  0.6277  0.3139
  158SAPE  C21917683   5.484   5.170   8.736  0.0297  0.5059 -0.2145
  158SAPE  H19R17684   5.454   5.198   8.633  1.0188  0.8436 -0.4238
  158SAPE  H19S17685   5.464   5.065   8.763  1.8741  0.0868 -0.3763
  158SAPE  C22017686   5.637   5.197   8.747  0.6836 -0.0202  0.7130
  158SAPE  H20R17687   5.659   5.297   8.703  0.6296 -0.1917  0.2864
  158SAPE  H20S17688   5.685   5.118   8.685  1.0430 -0.1079  1.1046
  158SAPE  H20T17689   5.676   5.197   8.851  1.5508  0.1643  0.3911
  158SAPE   C3317690   5.642   5.573   9.678  0.2170  0.2912 -0.0539
  158SAPE   H3X17691   5.531   5.584   9.685  0.0653 -0.7534 -0.6768
  158SAPE   H3Y17692   5.669   5.465   9.679  1.4274  0.5979  0.6508
  158SAPE   C3417693   5.675   5.626   9.541 -0.7517 -0.0527  0.2310
  158SAPE   H4X17694   5.602   5.584   9.468  1.7969 -2.6564 -0.9472
  158SAPE   H4Y17695   5.776   5.590   9.510 -0.7693  1.7358 -2.0217
  158SAPE   C3517696   5.676   5.778   9.530 -0.0790  0.4959 -0.3307
  158SAPE   H5X17697   5.751   5.813   9.604  0.9526  1.1367 -1.6550
  158SAPE   H5Y17698   5.579   5.825   9.556  0.4384 -0.2112  3.0966
  158SAPE   C3617699   5.728   5.822   9.395 -0.0304 -0.7267  0.7136
  158SAPE   H6X17700   5.810   5.761   9.351  0.8411 -0.4090  1.8772
  158SAPE   H6Y17701   5.764   5.927   9.391 -1.6661 -0.1459  0.9073
  158SAPE   C3717702   5.614   5.813   9.287  0.3003 -0.1738 -0.2821
  158SAPE   H7X17703   5.518   5.849   9.330 -0.9372 -0.5304 -2.6330
  158SAPE   H7Y17704   5.598   5.707   9.257  0.3492 -0.0734 -0.6672
  158SAPE   C3817705   5.655   5.890   9.164 -0.0610 -0.2229 -0.1283
  158SAPE   H8X17706   5.745   5.838   9.124  0.6213 -1.9523  3.4651
  158SAPE   H8Y17707   5.691   5.993   9.188  0.5813 -0.5963  0.5345
  158SAPE   C3917708   5.547   5.896   9.056  0.1325  0.5606  0.4470
  158SAPE   H9X17709   5.459   5.959   9.082 -0.5310  0.0928 -0.6337
  158SAPE   H9Y17710   5.509   5.793   9.038  0.8864  0.1756  1.0469
  158SAPE  C31017711   5.605   5.951   8.922 -0.1543 -0.2846 -0.5129
  158SAPE  H10X17712   5.690   5.895   8.878 -0.3236  1.4630 -3.1770
  158SAPE  H10Y17713   5.657   6.048   8.940  1.7023 -1.8227  2.6427
  158SAPE  C31117714   5.500   5.969   8.805 -1.3458  0.0121 -0.4363
  158SAPE  H11X17715   5.426   6.047   8.832  0.0122  0.9601  0.6382
  158SAPE  H11Y17716   5.448   5.871   8.799 -0.5654 -0.3963 -0.6399
  158SAPE  C31217717   5.560   6.005   8.669 -0.0928 -0.3336 -0.1468
  158SAPE  H12X17718   5.618   6.100   8.669 -1.7186  0.7523 -3.6649
  158SAPE  H12Y17719   5.467   6.018   8.610 -0.1559  0.9670  0.2230
  158SAPE  C31317720   5.642   5.890   8.600 -0.8702 -0.1146 -0.3113
  158SAPE  H13X17721   5.718   5.863   8.676 -1.3872 -3.0241 -0.7724
  158SAPE  H13Y17722   5.692   5.929   8.508  1.8737 -1.4928  0.5409
  158SAPE  C31417723   5.554   5.775   8.548  0.6572  0.0625  0.3393
  158SAPE  H14X17724   5.482   5.804   8.469  0.4903  0.1880  0.5399
  158SAPE  H14Y17725   5.493   5.729   8.629  1.2986  2.2134  2.0991
  158SAPE  C31517726   5.653   5.671   8.489  0.4375 -0.1985  0.5821
  158SAPE  H15X17727   5.726   5.640   8.568  0.4911  1.8036  1.3416
  158SAPE  H15Y17728   5.712   5.724   8.412  1.2219 -2.6148 -0.5319
  158SAPE  C31617729   5.574   5.563   8.416 -0.3788 -0.4889  1.1238
  158SAPE  H16X17730   5.530   5.612   8.326 -0.7667 -1.4471  0.7867
  158SAPE  H16Y17731   5.489   5.534   8.481 -2.0418 -0.1808 -0.8664
  158SAPE  C31717732   5.648   5.442   8.378  0.1239  0.3956  0.0604
  158SAPE  H17X17733   5.680   5.397   8.475  0.1100  0.1213 -0.0600
  158SAPE  H17Y17734   5.739   5.462   8.317  1.2123  1.2488  1.9231
  158SAPE  C31817735   5.560   5.339   8.314  0.1756 -1.0795  0.4631
  158SAPE  H18X17736   5.461   5.343   8.365  0.2261  0.9380  0.4337
  158SAPE  H18Y17737   5.610   5.240   8.328 -0.2586 -1.3370  0.1899
  158SAPE  H18Z17738   5.538   5.351   8.206 -0.9564 -1.9493  0.5930
  159SAPE     N17739   4.649   3.350   6.623  0.4208 -0.3677  0.1213
  159SAPE   HN117740   4.584   3.306   6.691  0.2810 -0.8995 -0.3419
  159SAPE   HN217741   4.735   3.380   6.672 -0.5097 -0.5686  1.9234
  159SAPE   HN317742   4.602   3.436   6.587  0.9542 -0.6104 -1.1961
  159SAPE   C1217743   4.685   3.244   6.519  0.1130  0.5770 -0.3511
  159SAPE  H12A17744   4.591   3.203   6.478 -0.0820  0.5459  0.1240
  159SAPE  H12B17745   4.739   3.159   6.566  0.4582  0.4223 -1.0147
  159SAPE   C1117746   4.761   3.313   6.405  0.0059  0.4517 -0.0213
  159SAPE  H11A17747   4.687   3.379   6.356  0.0925  0.4853 -0.1084
  159SAPE  H11B17748   4.780   3.232   6.331 -1.1877  0.4818 -0.3534
  159SAPE     P17749   5.006   3.288   6.480  0.3688  0.0835 -0.6185
  159SAPE   O1317750   5.017   3.178   6.380 -0.5621  0.5260 -0.0305
  159SAPE   O1417751   5.120   3.379   6.505 -0.2199  0.0623 -0.0697
  159SAPE   O1217752   4.881   3.380   6.441 -0.1914  0.0252  0.6280
  159SAPE   O1117753   4.953   3.219   6.615 -0.5436  0.1371 -0.1114
  159SAPE    C117754   4.981   3.076   6.633  0.2853 -0.1474 -0.1919
  159SAPE    HA17755   4.882   3.030   6.612  0.1421  1.1073 -2.3568
  159SAPE    HB17756   5.059   3.032   6.567 -1.6429  0.3058 -2.8487
  159SAPE    C217757   5.034   3.054   6.778  0.3080  0.5709  0.8930
  159SAPE    HS17758   5.028   2.943   6.790 -0.0222  0.4820 -0.0990
  159SAPE   O2117759   4.960   3.117   6.881  0.2123 -0.1518  0.1298
  159SAPE   C2117760   4.830   3.090   6.891  0.3376  0.0825 -0.2382
  159SAPE   O2217761   4.774   2.998   6.836 -0.1879 -1.0417 -0.3906
  159SAPE   C2217762   4.756   3.189   6.985  1.2219 -0.1331  0.2176
  159SAPE   H2R17763   4.835   3.255   7.027  3.3398 -1.8836 -0.9053
  159SAPE   H2S17764   4.694   3.255   6.921  0.9980 -1.1307 -0.6113
  159SAPE    C317765   5.187   3.092   6.795  0.2689 -0.2867 -0.3685
  159SAPE    HX17766   5.201   3.203   6.794 -3.2772  0.2318  1.6302
  159SAPE    HY17767   5.242   3.056   6.706  0.2667 -2.1176  0.3653
  159SAPE   O3117768   5.249   3.029   6.917 -0.0879 -0.4649  0.4766
  159SAPE   C3117769   5.289   3.113   7.012  0.2598 -0.1448 -0.0794
  159SAPE   O3217770   5.317   3.232   6.993 -0.2463  0.3540 -0.6687
  159SAPE   C3217771   5.304   3.028   7.138  0.0947 -0.1007  0.0947
  159SAPE   H2X17772   5.378   2.945   7.132  0.4263  0.3156 -2.3550
  159SAPE   H2Y17773   5.209   2.974   7.156  0.1116  0.0180  0.5275
  159SAPE   C2317774   4.667   3.108   7.090  1.0751 -0.8991  0.4451
  159SAPE   H3R17775   4.600   3.048   7.026 -1.5116  1.4507  0.8594
  159SAPE   H3S17776   4.612   3.178   7.157  1.3569  0.7312 -0.9811
  159SAPE   C2417777   4.743   3.018   7.187  0.4468  0.9637 -0.6101
  159SAPE   H4R17778   4.810   2.944   7.139 -0.1157 -1.2794  1.8720
  159SAPE   H4S17779   4.663   2.956   7.234  0.9920  0.1107 -0.7909
  159SAPE   C2517780   4.836   3.085   7.278 -0.2861  0.5867 -0.2059
  159SAPE   H5R17781   4.913   3.151   7.234 -0.9382  3.0645  2.2082
  159SAPE   C2617782   4.845   3.071   7.411 -0.4227 -0.5095 -0.4801
  159SAPE   H6R17783   4.923   3.125   7.466  0.4223 -0.8648 -1.3108
  159SAPE   C2717784   4.752   2.986   7.495  0.1146  0.0331  0.3202
  159SAPE   H7R17785   4.799   2.886   7.503 -1.7611 -0.9158 -0.1964
  159SAPE   H7S17786   4.647   2.975   7.461 -0.8457  1.7338  2.5931
  159SAPE   C2817787   4.730   3.049   7.627 -0.4607  0.9604 -0.1949
  159SAPE   H8R17788   4.671   3.141   7.617 -0.5817  0.7901 -1.1204
  159SAPE   C2917789   4.754   2.991   7.745  0.1935 -0.1971  0.0117
  159SAPE   H9R17790   4.716   3.047   7.832 -0.3145 -0.6214  0.0680
  159SAPE  C21017791   4.809   2.854   7.768  0.9086  0.2636 -0.0541
  159SAPE  H10R17792   4.919   2.857   7.780  0.8431 -1.0059  1.0311
  159SAPE  H10S17793   4.795   2.791   7.678  0.0629  2.2857 -1.3494
  159SAPE  C21117794   4.751   2.776   7.883  0.2027  0.9127  0.1824
  159SAPE  H11R17795   4.674   2.699   7.867  1.4984  0.1486 -2.7427
  159SAPE  C21217796   4.781   2.793   8.012 -0.3339 -0.3627 -0.7004
  159SAPE  H12R17797   4.733   2.716   8.075  2.9162 -2.2525 -0.4202
  159SAPE  C21317798   4.887   2.884   8.073 -0.7794 -0.2674  0.2479
  159SAPE  H13R17799   4.848   2.928   8.167 -0.1168  0.8913 -0.0056
  159SAPE  H13S17800   4.911   2.970   8.007 -3.7400  2.9796  3.1508
  159SAPE  C21417801   5.013   2.808   8.100  0.3377 -0.0120  0.4634
  159SAPE  H14R17802   5.070   2.787   8.009  1.0208  3.2326  0.0584
  159SAPE  C21517803   5.071   2.772   8.215  0.1090 -0.7854 -1.2619
  159SAPE  H15R17804   5.171   2.726   8.214  0.1038 -0.8540  0.0153
  159SAPE  C21617805   5.016   2.814   8.354 -0.4237  0.6181 -0.2206
  159SAPE  H16R17806   4.936   2.748   8.395 -0.7755  0.5459 -1.0009
  159SAPE  H16S17807   4.978   2.918   8.356 -0.5389  0.5849 -0.5942
  159SAPE  C21717808   5.136   2.821   8.455  0.4440 -0.3511  0.9729
  159SAPE  H17R17809   5.091   2.846   8.554 -0.7294  0.3357  0.2704
  159SAPE  H17S17810   5.200   2.904   8.418 -1.5528  1.1344  0.7621
  159SAPE  C21817811   5.223   2.695   8.468  0.0400  0.1482  0.3788
  159SAPE  H18R17812   5.298   2.685   8.387  1.0793  0.7394  1.2548
  159SAPE  H18S17813   5.152   2.610   8.469 -3.3803  2.8134 -1.3599
  159SAPE  C21917814   5.305   2.695   8.601  0.2797  0.5894 -0.2802
  159SAPE  H19R17815   5.236   2.708   8.687  0.0126 -0.6158 -0.3000
  159SAPE  H19S17816   5.360   2.791   8.598 -2.0052  2.0152  1.8374
  159SAPE  C22017817   5.403   2.580   8.606 -0.3816  0.4589  0.3353
  159SAPE  H20R17818   5.459   2.574   8.702 -1.0633  1.0189  0.7727
  159SAPE  H20S17819   5.489   2.589   8.536 -0.2072 -1.6342  0.2466
  159SAPE  H20T17820   5.358   2.479   8.591 -0.8951  0.7198  0.1000
  159SAPE   C3317821   5.325   3.124   7.264  0.6537 -0.5234  0.4160
  159SAPE   H3X17822   5.241   3.197   7.262  0.1090 -1.1704 -0.4435
  159SAPE   H3Y17823   5.413   3.187   7.237 -0.1075  0.2580 -0.2864
  159SAPE   C3417824   5.347   3.048   7.393 -0.0043  0.2939 -0.2695
  159SAPE   H4X17825   5.436   2.982   7.392  0.9337  1.5252  0.8435
  159SAPE   H4Y17826   5.259   2.981   7.406 -0.9313  1.3262 -1.1300
  159SAPE   C3517827   5.372   3.140   7.511  0.4313 -0.3662 -0.2195
  159SAPE   H5X17828   5.295   3.220   7.514  1.2206  0.3779  0.7736
  159SAPE   H5Y17829   5.465   3.199   7.495 -0.6898  0.8172 -2.6372
  159SAPE   C3617830   5.371   3.067   7.643  0.5059  0.5911  0.0964
  159SAPE   H6X17831   5.459   3.000   7.654  0.3141  0.3115 -0.0538
  159SAPE   H6Y17832   5.274   3.014   7.645  0.6705  0.2986  0.3598
  159SAPE   C3717833   5.393   3.166   7.752  0.2132  0.1246 -0.0445
  159SAPE   H7X17834   5.304   3.232   7.760 -1.1700 -1.6536 -0.4846
  159SAPE   H7Y17835   5.487   3.217   7.722  1.0715 -1.9566 -0.9809
  159SAPE   C3817836   5.409   3.112   7.894  0.3392  0.0245 -0.6516
  159SAPE   H8X17837   5.493   3.039   7.896 -0.4096 -0.8111  1.6882
  159SAPE   H8Y17838   5.321   3.051   7.924 -0.0986  0.6592 -0.6185
  159SAPE   C3917839   5.446   3.218   7.997  0.1973  0.2537 -0.2825
  159SAPE   H9X17840   5.345   3.263   8.009  0.5181  0.7041  0.7495
  159SAPE   H9Y17841   5.503   3.300   7.947 -0.4389  0.5482 -0.5364
  159SAPE  C31017842   5.504   3.166   8.129 -0.1104  0.0952  0.3081
  159SAPE  H10X17843   5.564   3.251   8.168 -0.8325  0.0716  1.5103
  159SAPE  H10Y17844   5.574   3.081   8.121  2.0257  1.6991  1.4152
  159SAPE  C31117845   5.394   3.158   8.242 -0.4360  0.6305  0.2778
  159SAPE  H11X17846   5.343   3.060   8.237  1.4550 -0.4372  1.2093
  159SAPE  H11Y17847   5.320   3.241   8.239 -2.4808 -1.2094 -1.7545
  159SAPE  C31217848   5.462   3.174   8.382 -0.6883  0.1993  0.4017
  159SAPE  H12X17849   5.507   3.276   8.382 -0.6360  0.1824 -0.8252
  159SAPE  H12Y17850   5.543   3.098   8.390 -0.3028  0.4177 -1.2142
  159SAPE  C31317851   5.367   3.159   8.501 -0.2564 -0.5160  0.1646
  159SAPE  H13X17852   5.327   3.056   8.501  0.3180 -0.7356  1.2529
  159SAPE  H13Y17853   5.287   3.233   8.478  0.3237 -0.3179 -1.2930
  159SAPE  C31417854   5.421   3.202   8.637  0.2874  0.0371 -0.0089
  159SAPE  H14X17855   5.342   3.211   8.714  1.3524 -3.2865  1.5763
  159SAPE  H14Y17856   5.458   3.306   8.638  0.4848 -0.0336  0.0328
  159SAPE  C31517857   5.537   3.116   8.685  0.4297  0.2095 -0.1383
  159SAPE  H15X17858   5.622   3.136   8.617 -0.2537 -0.5916 -1.2551
  159SAPE  H15Y17859   5.524   3.006   8.675  1.3052  0.1760 -0.9207
  159SAPE  C31617860   5.567   3.163   8.831 -0.0180 -0.1894  0.3942
  159SAPE  H16X17861   5.480   3.139   8.896 -2.9243 -2.0076 -3.9352
  159SAPE  H16Y17862   5.566   3.274   8.833  0.0737 -0.1072 -2.0938
  159SAPE  C31717863   5.690   3.107   8.885 -0.0958 -0.5347 -0.0595
  159SAPE  H17X17864   5.781   3.116   8.822 -0.6384 -0.1199 -0.7885
  159SAPE  H17Y17865   5.676   2.999   8.905 -1.4080 -0.1445  1.2413
  159SAPE  C31817866   5.722   3.161   9.028 -0.1764 -0.1589  0.2271
  159SAPE  H18X17867   5.772   3.260   9.023 -0.3417  0.1907  4.1189
  159SAPE  H18Y17868   5.798   3.093   9.074  0.9220 -1.2409 -3.0726
  159SAPE  H18Z17869   5.630   3.166   9.089 -0.0807  1.9049  0.2246
  160SAPE     N17870   3.830   3.395   6.533 -0.4308 -0.5974  0.1892
  160SAPE   HN117871   3.891   3.469   6.574  0.6406 -0.8228 -0.9731
  160SAPE   HN217872   3.831   3.319   6.605 -1.3569 -1.3628 -0.5951
  160SAPE   HN317873   3.873   3.358   6.446 -2.4393 -0.3536 -0.9501
  160SAPE   C1217874   3.692   3.460   6.517  0.6187 -0.1023 -0.0051
  160SAPE  H12A17875   3.617   3.379   6.526 -0.4604  0.5819 -2.5098
  160SAPE  H12B17876   3.677   3.498   6.414 -1.2449  0.8360  0.5921
  160SAPE   C1117877   3.670   3.576   6.619  0.1257 -0.0180 -0.4643
  160SAPE  H11A17878   3.698   3.522   6.712 -0.3340 -0.5161 -0.6108
  160SAPE  H11B17879   3.570   3.624   6.610  0.1439 -0.2104 -1.8268
  160SAPE     P17880   3.759   3.800   6.500 -0.1263  0.1144  0.2375
  160SAPE   O1317881   3.895   3.827   6.458  0.0756 -0.7293  0.0870
  160SAPE   O1417882   3.661   3.769   6.391  0.4133  0.0063 -0.0148
  160SAPE   O1217883   3.764   3.683   6.604  0.3315  0.3175 -0.0511
  160SAPE   O1117884   3.706   3.916   6.585 -0.3968  0.2281 -0.3213
  160SAPE    C117885   3.696   3.906   6.728  0.4034 -0.0762 -0.0943
  160SAPE    HA17886   3.602   3.855   6.760 -1.2269  2.2863 -1.0202
  160SAPE    HB17887   3.775   3.842   6.774 -0.4601 -0.0774  1.4130
  160SAPE    C217888   3.704   4.047   6.789 -0.1695  0.4945 -0.6304
  160SAPE    HS17889   3.674   4.046   6.896  1.2281 -0.5319 -0.2330
  160SAPE   O2117890   3.622   4.141   6.724 -0.2912  0.3470  0.2873
  160SAPE   C2117891   3.491   4.124   6.754  0.1049 -0.2946  0.1683
  160SAPE   O2217892   3.452   4.034   6.828  0.2531 -0.0886 -0.0235
  160SAPE   C2217893   3.399   4.217   6.675  0.2852 -0.2136  0.2506
  160SAPE   H2R17894   3.447   4.286   6.603 -0.6306 -1.3611 -1.4972
  160SAPE   H2S17895   3.339   4.146   6.615  1.8072 -2.8455  1.7820
  160SAPE    C317896   3.851   4.096   6.775 -0.2834 -0.5521 -0.6710
  160SAPE    HX17897   3.866   4.131   6.671 -0.1789 -3.3028 -1.6407
  160SAPE    HY17898   3.922   4.012   6.791 -2.1597 -1.9071  0.8516
  160SAPE   O3117899   3.877   4.208   6.870  0.3625  0.0811  0.7216
  160SAPE   C3117900   3.998   4.208   6.934  0.4763  0.6801  0.6636
  160SAPE   O3217901   4.090   4.135   6.917  0.2731 -0.3336 -0.3633
  160SAPE   C3217902   3.998   4.320   7.040  0.1821  0.5643 -1.5996
  160SAPE   H2X17903   3.891   4.336   7.061 -0.0909 -0.8113 -1.9059
  160SAPE   H2Y17904   4.036   4.415   6.995 -0.7189  0.7628 -1.9425
  160SAPE   C2317905   3.312   4.302   6.778  0.0716  0.0604 -0.3733
  160SAPE   H3R17906   3.294   4.242   6.869  1.2339 -0.2411 -0.3303
  160SAPE   H3S17907   3.216   4.308   6.722 -0.4691 -2.9533  0.1703
  160SAPE   C2417908   3.359   4.441   6.809 -0.5443  0.0010  0.3684
  160SAPE   H4R17909   3.302   4.490   6.891  0.4355  1.5949  0.1333
  160SAPE   H4S17910   3.329   4.513   6.730 -1.3163 -1.2276 -0.4670
  160SAPE   C2517911   3.515   4.442   6.825  0.1584  0.6893  0.6682
  160SAPE   H5R17912   3.562   4.451   6.725 -0.1261 -0.8783  0.3843
  160SAPE   C2617913   3.591   4.423   6.938  0.3880 -0.1312 -0.2481
  160SAPE   H6R17914   3.701   4.420   6.939  0.4675  2.4682  0.8362
  160SAPE   C2717915   3.517   4.398   7.068 -0.2070  0.4513 -0.2072
  160SAPE   H7R17916   3.522   4.290   7.096  1.4752  0.0510 -1.9667
  160SAPE   H7S17917   3.409   4.425   7.073 -0.0835  0.9845 -0.4664
  160SAPE   C2817918   3.590   4.480   7.169 -0.8793 -0.4654  0.0020
  160SAPE   H8R17919   3.617   4.581   7.135 -0.4283  0.0458  1.8105
  160SAPE   C2917920   3.609   4.448   7.297 -0.4645  0.0890  0.2630
  160SAPE   H9R17921   3.667   4.518   7.360  0.4212 -2.0495  1.9394
  160SAPE  C21017922   3.579   4.319   7.363  0.7987  0.3172 -0.0941
  160SAPE  H10R17923   3.571   4.233   7.293 -1.6980  0.9594 -0.6244
  160SAPE  H10S17924   3.476   4.318   7.404  1.6852  0.7045  2.2747
  160SAPE  C21117925   3.682   4.275   7.467 -0.1375 -0.5358 -0.0147
  160SAPE  H11R17926   3.765   4.219   7.420  1.3279  0.3071  1.4886
  160SAPE  C21217927   3.686   4.300   7.603  0.5194  0.8825  0.2175
  160SAPE  H12R17928   3.770   4.259   7.661 -0.3479 -0.0157  0.8657
  160SAPE  C21317929   3.571   4.367   7.675 -0.2592  0.1648 -0.1635
  160SAPE  H13R17930   3.498   4.287   7.700  0.8941 -0.9327 -0.2878
  160SAPE  H13S17931   3.538   4.441   7.599  1.4705 -0.7166 -1.8098
  160SAPE  C21417932   3.606   4.434   7.804  0.8551 -0.1035 -0.4918
  160SAPE  H14R17933   3.661   4.529   7.793 -0.9965  0.6683 -3.4960
  160SAPE  C21517934   3.573   4.400   7.932  0.9214 -0.1611  0.7196
  160SAPE  H15R17935   3.628   4.453   8.010  1.5898  1.0112 -0.5336
  160SAPE  C21617936   3.475   4.292   7.973  0.8787 -0.1110  0.1552
  160SAPE  H16R17937   3.431   4.241   7.885 -0.0841  0.3361  0.3719
  160SAPE  H16S17938   3.399   4.347   8.033 -2.2712 -2.5683 -1.4771
  160SAPE  C21717939   3.523   4.176   8.061  0.4690  0.2626 -0.1852
  160SAPE  H17R17940   3.609   4.118   8.021  1.2507  0.4634  1.1669
  160SAPE  H17S17941   3.446   4.097   8.055  0.2250  0.6524 -2.6248
  160SAPE  C21817942   3.552   4.214   8.211  0.0996 -0.2881 -0.4466
  160SAPE  H18R17943   3.463   4.252   8.266  1.2725  1.3383  0.3829
  160SAPE  H18S17944   3.620   4.302   8.218 -0.9268  0.3648  2.0060
  160SAPE  C21917945   3.615   4.095   8.287  0.2494  0.0065  1.2650
  160SAPE  H19R17946   3.713   4.075   8.238  0.0446  0.9689  0.4467
  160SAPE  H19S17947   3.547   4.007   8.278 -0.6259  0.6963  1.1300
  160SAPE  C22017948   3.663   4.127   8.432  0.1316 -0.7083  0.4361
  160SAPE  H20R17949   3.697   4.233   8.431  0.4103 -0.7961  0.5185
  160SAPE  H20S17950   3.730   4.054   8.482  0.2494 -1.7288 -1.1914
  160SAPE  H20T17951   3.570   4.131   8.492 -0.5349  0.1806 -0.6273
  160SAPE   C3317952   4.073   4.294   7.178 -0.2763  0.1292 -0.1684
  160SAPE   H3X17953   4.181   4.312   7.158  0.3817 -0.8219  2.4203
  160SAPE   H3Y17954   4.060   4.186   7.199  2.1812 -0.2736 -0.4814
  160SAPE   C3417955   4.020   4.385   7.284 -0.3230  0.7535  0.5049
  160SAPE   H4X17956   3.919   4.357   7.321 -0.0270 -1.1332 -0.0319
  160SAPE   H4Y17957   4.011   4.484   7.235  0.5583 -0.0820 -1.4020
  160SAPE   C3517958   4.121   4.417   7.392  0.0803  0.4099 -0.2960
  160SAPE   H5X17959   4.216   4.446   7.342  0.4062 -0.3254 -0.1075
  160SAPE   H5Y17960   4.139   4.317   7.436  2.6332 -0.2347 -2.6319
  160SAPE   C3617961   4.074   4.523   7.497  0.1391 -0.5696  0.4395
  160SAPE   H6X17962   3.963   4.516   7.510  0.4056 -1.8808  2.1649
  160SAPE   H6Y17963   4.105   4.626   7.470 -1.1631  0.0010  1.0278
  160SAPE   C3717964   4.127   4.499   7.634 -0.2988  0.2133  0.4669
  160SAPE   H7X17965   4.117   4.389   7.651  3.2230 -0.1944  0.4496
  160SAPE   H7Y17966   4.071   4.546   7.717 -1.1171 -0.7020  0.4376
  160SAPE   C3817967   4.267   4.543   7.649  0.4061 -0.2446  0.2916
  160SAPE   H8X17968   4.282   4.645   7.606  1.1665 -0.0790  0.9342
  160SAPE   H8Y17969   4.329   4.472   7.591  0.4797  0.7334 -0.8392
  160SAPE   C3917970   4.320   4.542   7.790 -0.1233  0.1446  0.0909
  160SAPE   H9X17971   4.308   4.441   7.836  0.0406 -0.0222 -0.2322
  160SAPE   H9Y17972   4.265   4.622   7.844  2.3560  0.8654  1.6419
  160SAPE  C31017973   4.472   4.579   7.793 -0.1689  0.0162  0.1200
  160SAPE  H10X17974   4.470   4.685   7.759 -2.2081 -1.1155 -3.4816
  160SAPE  H10Y17975   4.521   4.510   7.722  0.3680  0.2135  0.3004
  160SAPE  C31117976   4.552   4.571   7.927  0.3053  0.1704 -0.0730
  160SAPE  H11X17977   4.653   4.607   7.897 -0.2663  0.9181 -1.1330
  160SAPE  H11Y17978   4.555   4.466   7.963  0.1265 -0.0307 -0.6392
  160SAPE  C31217979   4.501   4.671   8.029 -1.1319 -0.4611 -0.4887
  160SAPE  H12X17980   4.391   4.686   8.023 -0.8706  3.5171  2.2429
  160SAPE  H12Y17981   4.529   4.777   8.014  1.4195 -0.7846  1.6194
  160SAPE  C31317982   4.534   4.628   8.174  0.2298  0.1399  0.7886
  160SAPE  H13X17983   4.572   4.721   8.222  2.0333  1.4346 -2.9349
  160SAPE  H13Y17984   4.619   4.557   8.165  1.1534  1.5208 -1.6801
  160SAPE  C31417985   4.416   4.558   8.248  0.0272 -1.1235 -0.0936
  160SAPE  H14X17986   4.383   4.473   8.184 -1.6646  0.1871 -1.0491
  160SAPE  H14Y17987   4.329   4.628   8.256 -0.6246 -2.0665  1.1897
  160SAPE  C31517988   4.446   4.518   8.395 -0.3629  0.3581 -0.0687
  160SAPE  H15X17989   4.360   4.460   8.434  0.3772 -1.1269 -0.5940
  160SAPE  H15Y17990   4.478   4.604   8.457 -2.9776  0.7898  0.7339
  160SAPE  C31617991   4.567   4.430   8.397  0.1459  0.2097  0.0032
  160SAPE  H16X17992   4.655   4.498   8.406 -0.5322  1.0901 -0.0770
  160SAPE  H16Y17993   4.579   4.375   8.301 -0.7351 -0.5642  0.3297
  160SAPE  C31717994   4.590   4.328   8.510  0.2540  0.1169 -0.4418
  160SAPE  H17X17995   4.689   4.279   8.496 -0.1362 -1.1051  1.0004
  160SAPE  H17Y17996   4.512   4.251   8.496 -2.7417  2.9985 -0.3279
  160SAPE  C31817997   4.576   4.393   8.645  0.1618  0.1862 -0.3438
  160SAPE  H18X17998   4.625   4.493   8.643  2.2161 -0.8066 -0.5169
  160SAPE  H18Y17999   4.638   4.342   8.721  0.2486  1.5664  0.5307
  160SAPE  H18Z18000   4.470   4.397   8.678  0.4555  1.3425  0.5109
  161SAPE     N18001   6.270   1.517   6.526  0.1374 -0.1370  0.7327
  161SAPE   HN118002   6.177   1.504   6.572  0.0162  0.4173  0.6537
  161SAPE   HN218003   6.333   1.438   6.550 -0.5526 -1.2075 -0.8232
  161SAPE   HN318004   6.309   1.608   6.558 -2.7608  1.4736 -0.0866
  161SAPE   C1218005   6.257   1.515   6.379  0.7798 -0.2938  0.2888
  161SAPE  H12A18006   6.206   1.421   6.351 -4.3773  1.6235  2.5692
  161SAPE  H12B18007   6.358   1.516   6.334  0.7003  2.0050  0.0581
  161SAPE   C1118008   6.181   1.635   6.328 -1.1423  0.2940  0.4166
  161SAPE  H11A18009   6.149   1.616   6.224 -0.7385 -1.3035  0.5763
  161SAPE  H11B18010   6.248   1.724   6.328 -1.4978  0.6086 -2.7178
  161SAPE     P18011   5.970   1.778   6.400  0.0653  0.0764  0.0541
  161SAPE   O1318012   6.046   1.881   6.328 -0.0817 -0.5349 -0.1816
  161SAPE   O1418013   5.841   1.741   6.341 -0.8228  0.3795  0.3437
  161SAPE   O1218014   6.058   1.649   6.406  0.1713 -0.1646 -0.6079
  161SAPE   O1118015   5.957   1.819   6.555 -0.1866  0.7675  0.0881
  161SAPE    C118016   5.865   1.733   6.627  0.3739 -0.3384 -0.7298
  161SAPE    HA18017   5.757   1.745   6.603  0.4805 -1.0759 -1.6477
  161SAPE    HB18018   5.869   1.623   6.609  0.4235 -0.5920  0.7620
  161SAPE    C218019   5.901   1.743   6.779 -0.5984 -0.0635 -0.4424
  161SAPE    HS18020   5.832   1.670   6.825 -1.9288  0.3987 -1.6689
  161SAPE   O2118021   5.880   1.875   6.828 -0.1068 -0.2520  0.2646
  161SAPE   C2118022   5.753   1.911   6.822 -0.1092  0.5704 -0.0540
  161SAPE   O2218023   5.658   1.838   6.808 -0.2137 -0.8500  0.4113
  161SAPE   C2218024   5.736   2.057   6.841  0.2431 -0.8362  0.2950
  161SAPE   H2R18025   5.804   2.102   6.916  0.4650 -2.4384  1.0529
  161SAPE   H2S18026   5.761   2.100   6.741 -0.9284 -0.8511 -0.0164
  161SAPE    C318027   6.055   1.705   6.804  0.3466 -0.7571  0.1731
  161SAPE    HX18028   6.121   1.777   6.752  1.3390 -2.3236 -0.7758
  161SAPE    HY18029   6.049   1.614   6.741  1.1778  0.0394 -1.0761
  161SAPE   O3118030   6.085   1.681   6.935  0.3579  0.6392 -1.0926
  161SAPE   C3118031   6.109   1.781   7.016  1.0905 -0.3721 -0.1826
  161SAPE   O3218032   6.108   1.898   6.984  0.0614 -0.9535 -0.7447
  161SAPE   C3218033   6.104   1.731   7.165  0.5460 -0.1841  0.0299
  161SAPE   H2X18034   6.124   1.622   7.167  0.3971 -0.2253 -0.7062
  161SAPE   H2Y18035   6.003   1.746   7.208  0.8790  0.3500  0.6234
  161SAPE   C2318036   5.591   2.102   6.878  1.0270  0.2956 -0.0908
  161SAPE   H3R18037   5.515   2.055   6.812  1.4481  0.2775 -0.5656
  161SAPE   H3S18038   5.573   2.212   6.873  1.8045  0.3696 -1.6570
  161SAPE   C2418039   5.564   2.068   7.021 -0.1209 -0.4743  0.3715
  161SAPE   H4R18040   5.486   2.139   7.057 -0.9780 -0.5303 -1.3750
  161SAPE   H4S18041   5.650   2.104   7.082  1.4514 -0.9835 -1.4942
  161SAPE   C2518042   5.531   1.929   7.055  0.1005 -0.6572  0.4812
  161SAPE   H5R18043   5.477   1.873   6.977  0.2674 -0.5736  0.3054
  161SAPE   C2618044   5.555   1.872   7.176  0.3531 -0.0559  0.1475
  161SAPE   H6R18045   5.522   1.768   7.192  1.2777 -0.8655 -2.8739
  161SAPE   C2718046   5.617   1.946   7.291  0.0775 -0.0208 -0.7841
  161SAPE   H7R18047   5.558   1.940   7.385  0.6648 -5.6173 -0.6518
  161SAPE   H7S18048   5.609   2.055   7.269 -1.3264  0.2010  0.7727
  161SAPE   C2818049   5.755   1.901   7.330 -0.3355  0.7681  0.2714
  161SAPE   H8R18050   5.792   1.803   7.296  0.5179  0.9180  0.7650
  161SAPE   C2918051   5.840   1.979   7.404  0.4988  0.7068  0.4289
  161SAPE   H9R18052   5.937   1.939   7.437 -0.6865 -1.3009  1.6132
  161SAPE  C21018053   5.802   2.117   7.457  0.9051 -0.2199 -0.7573
  161SAPE  H10R18054   5.762   2.182   7.376  0.6063 -0.9196 -1.1808
  161SAPE  H10S18055   5.893   2.166   7.497 -0.5994  0.1169  2.4327
  161SAPE  C21118056   5.709   2.119   7.579  0.0953  0.1438  0.5907
  161SAPE  H11R18057   5.622   2.185   7.567 -0.5589  0.3737  5.5221
  161SAPE  C21218058   5.737   2.089   7.704  0.0719  0.2623  0.2087
  161SAPE  H12R18059   5.658   2.100   7.780 -0.6333  0.2698 -0.5109
  161SAPE  C21318060   5.870   2.024   7.734 -0.3931 -0.0291  0.1051
  161SAPE  H13R18061   5.945   2.028   7.652  0.0578 -0.0231  0.5187
  161SAPE  H13S18062   5.851   1.915   7.734 -1.2424  0.0807  3.0666
  161SAPE  C21418063   5.923   2.079   7.867  0.2374 -0.1026 -0.0579
  161SAPE  H14R18064   5.986   2.169   7.860 -2.5040  1.9052  0.0972
  161SAPE  C21518065   5.893   2.037   7.994  0.6075  0.2144 -0.9221
  161SAPE  H15R18066   5.934   2.097   8.077  2.4605 -1.4963 -0.5425
  161SAPE  C21618067   5.809   1.914   8.025  0.2741 -0.4243  0.0982
  161SAPE  H16R18068   5.776   1.853   7.938  0.4403 -1.0561  0.4778
  161SAPE  H16S18069   5.707   1.944   8.056  0.4231  2.0059 -1.5962
  161SAPE  C21718070   5.850   1.825   8.140 -0.3642 -0.1920 -0.2488
  161SAPE  H17R18071   5.951   1.786   8.113 -0.3322  0.1601 -0.6402
  161SAPE  H17S18072   5.785   1.735   8.134 -0.2924 -0.5177  3.0737
  161SAPE  C21818073   5.850   1.897   8.278 -0.2774  0.2079  0.1351
  161SAPE  H18R18074   5.750   1.942   8.295 -0.4574  0.2817 -1.1095
  161SAPE  H18S18075   5.928   1.976   8.280 -2.3365  2.3690 -2.2380
  161SAPE  C21918076   5.896   1.796   8.382 -0.7271  0.2341  0.8480
  161SAPE  H19R18077   5.999   1.762   8.361 -1.0329  1.0491 -2.1851
  161SAPE  H19S18078   5.830   1.707   8.373 -0.4587  0.1331 -0.2106
  161SAPE  C22018079   5.887   1.839   8.527 -0.0120 -0.1541 -0.0965
  161SAPE  H20R18080   5.780   1.854   8.554  0.8039 -0.7816  3.7213
  161SAPE  H20S18081   5.941   1.936   8.532 -1.9623  0.8609  1.7391
  161SAPE  H20T18082   5.924   1.767   8.602  1.8142  3.3072  2.4740
  161SAPE   C3318083   6.205   1.788   7.268 -0.3294  0.3691 -0.6343
  161SAPE   H3X18084   6.191   1.897   7.278  2.1711  0.9331 -2.7230
  161SAPE   H3Y18085   6.311   1.775   7.237  0.4789 -3.3708  3.1255
  161SAPE   C3418086   6.195   1.719   7.402  0.6787  0.5754 -0.2406
  161SAPE   H4X18087   6.244   1.619   7.399 -1.3093 -0.5022  1.5939
  161SAPE   H4Y18088   6.097   1.676   7.430  1.1148 -1.1902 -1.3878
  161SAPE   C3518089   6.247   1.810   7.517 -0.0196 -0.4783  0.5432
  161SAPE   H5X18090   6.177   1.896   7.526 -1.1492 -1.3845  0.5193
  161SAPE   H5Y18091   6.346   1.848   7.483 -0.3547  0.7585  0.9211
  161SAPE   C3618092   6.252   1.735   7.645  0.0006  0.3383 -0.2058
  161SAPE   H6X18093   6.336   1.662   7.650  1.1935  1.7721  0.8950
  161SAPE   H6Y18094   6.152   1.689   7.663 -0.0926  0.2268 -0.9765
  161SAPE   C3718095   6.269   1.828   7.768 -0.2029  0.2382  0.1821
  161SAPE   H7X18096   6.184   1.899   7.758  0.1051  0.2740 -2.7173
  161SAPE   H7Y18097   6.367   1.881   7.767 -0.4507  0.7007 -0.0119
  161SAPE   C3818098   6.271   1.747   7.905 -0.3694  0.2672 -0.1424
  161SAPE   H8X18099   6.349   1.668   7.901 -1.7628 -1.0444 -2.7048
  161SAPE   H8Y18100   6.174   1.694   7.906  0.5753 -1.5117 -0.8213
  161SAPE   C3918101   6.279   1.842   8.015 -0.2844  0.6556  0.0712
  161SAPE   H9X18102   6.188   1.905   8.023  0.9116  2.7943 -2.3446
  161SAPE   H9Y18103   6.359   1.919   8.004  1.5493 -1.1678  0.3244
  161SAPE  C31018104   6.307   1.773   8.151 -0.4010  0.2676 -0.2595
  161SAPE  H10X18105   6.414   1.740   8.152 -0.6515 -0.5518 -0.2915
  161SAPE  H10Y18106   6.230   1.695   8.168 -1.1550  1.5574  2.6019
  161SAPE  C31118107   6.306   1.854   8.278 -0.2556  0.0696  0.1589
  161SAPE  H11X18108   6.212   1.913   8.270 -0.4876 -0.1894  0.9056
  161SAPE  H11Y18109   6.396   1.918   8.282 -0.9578  1.1566 -1.0485
  161SAPE  C31218110   6.319   1.767   8.406 -0.3654 -0.0367  0.9042
  161SAPE  H12X18111   6.398   1.693   8.379 -0.1715  0.7979 -0.8943
  161SAPE  H12Y18112   6.231   1.699   8.410  1.0380 -1.9656 -0.0306
  161SAPE  C31318113   6.362   1.833   8.536  0.3767 -0.1331  0.0301
  161SAPE  H13X18114   6.454   1.894   8.534  1.9136 -2.2707  2.6476
  161SAPE  H13Y18115   6.399   1.749   8.599  0.6344 -1.9259 -2.4488
  161SAPE  C31418116   6.242   1.908   8.607 -0.9435  0.8156  0.3638
  161SAPE  H14X18117   6.176   1.828   8.647 -0.3865  1.0800  1.8488
  161SAPE  H14Y18118   6.175   1.972   8.545  1.1461  0.7946 -2.0247
  161SAPE  C31518119   6.287   1.997   8.724 -0.4305  0.0697 -0.4801
  161SAPE  H15X18120   6.374   2.059   8.691 -0.8985  1.3037  0.5852
  161SAPE  H15Y18121   6.319   1.929   8.806  0.2982  1.4557  0.4079
  161SAPE  C31618122   6.172   2.068   8.794  0.6002  0.0186 -0.4772
  161SAPE  H16X18123   6.092   1.992   8.801 -1.1668  1.8626 -0.2037
  161SAPE  H16Y18124   6.129   2.140   8.722 -3.1775 -1.9519 -0.2995
  161SAPE  C31718125   6.208   2.126   8.934  0.2005 -0.1374  0.7420
  161SAPE  H17X18126   6.257   2.043   8.989 -0.8366 -0.5821  1.0013
  161SAPE  H17Y18127   6.111   2.144   8.986 -1.2320 -2.1112 -1.1620
  161SAPE  C31818128   6.308   2.249   8.922  0.2975 -0.6085 -0.9088
  161SAPE  H18X18129   6.273   2.334   8.859  1.1659  1.4615  1.3111
  161SAPE  H18Y18130   6.403   2.214   8.876  1.5248  2.0280 -0.4892
  161SAPE  H18Z18131   6.317   2.282   9.028 -1.1599  0.3615 -1.0813
  162SAPE     N18132   3.714   5.208   6.044  0.0361  0.4650  0.2793
  162SAPE   HN118133   3.788   5.281   6.050  1.7959 -1.0145 -2.2264
  162SAPE   HN218134   3.714   5.172   5.946  1.4300  0.3147  0.3306
  162SAPE   HN318135   3.621   5.253   6.052 -0.7467 -1.6916  4.7062
  162SAPE   C1218136   3.723   5.105   6.156 -0.0553 -0.3195  0.3219
  162SAPE  H12A18137   3.620   5.066   6.162  0.3124 -1.6087 -1.2611
  162SAPE  H12B18138   3.753   5.161   6.247  0.6448 -0.8088  0.3974
  162SAPE   C1118139   3.819   5.001   6.105  0.1380 -0.1469 -0.6544
  162SAPE  H11A18140   3.816   4.983   5.996 -0.0031  0.1902 -0.7043
  162SAPE  H11B18141   3.796   4.905   6.157  0.3335 -1.3039 -2.6384
  162SAPE     P18142   4.065   4.922   6.147  0.2087  0.8171  0.6496
  162SAPE   O1318143   4.011   4.797   6.088  0.0951  0.0013 -0.6429
  162SAPE   O1418144   4.195   4.962   6.097  0.2041  0.2893 -0.1891
  162SAPE   O1218145   3.960   5.038   6.125 -0.0079 -0.4566 -0.4530
  162SAPE   O1118146   4.072   4.891   6.305 -0.1886 -0.5408 -0.0312
  162SAPE    C118147   3.996   4.966   6.404 -0.3556 -0.5946 -0.3943
  162SAPE    HA18148   3.893   4.986   6.369 -0.0171 -0.3332 -1.2466
  162SAPE    HB18149   3.993   4.918   6.504 -0.7118 -0.0028 -0.1186
  162SAPE    C218150   4.057   5.107   6.440  0.2820 -0.3356 -0.3906
  162SAPE    HS18151   4.050   5.174   6.352  0.9242  2.2479  1.4614
  162SAPE   O2118152   4.187   5.086   6.482  0.1883  0.7678 -0.0029
  162SAPE   C2118153   4.266   5.188   6.465 -0.6676  0.4913 -0.4854
  162SAPE   O2218154   4.236   5.296   6.418 -0.2474  0.4483  0.0564
  162SAPE   C2218155   4.416   5.144   6.477 -0.1185 -0.1034  0.1905
  162SAPE   H2R18156   4.472   5.229   6.520 -0.7665  0.6398 -0.4308
  162SAPE   H2S18157   4.409   5.057   6.547 -2.3250  0.2640  0.4661
  162SAPE    C318158   3.962   5.174   6.549  0.0937 -0.4438  0.0600
  162SAPE    HX18159   3.857   5.182   6.514 -0.0751  1.4440  0.9265
  162SAPE    HY18160   3.993   5.280   6.560  0.5549 -0.7305  1.6909
  162SAPE   O3118161   3.957   5.105   6.674  0.0537  0.2009 -0.4562
  162SAPE   C3118162   4.054   5.143   6.765  0.7659  0.2319  0.5402
  162SAPE   O3218163   4.139   5.231   6.755 -0.0928  0.6417  0.0349
  162SAPE   C3218164   4.047   5.050   6.888 -0.7937 -0.7851 -0.8372
  162SAPE   H2X18165   4.073   4.948   6.854  2.5067 -0.8558  1.6845
  162SAPE   H2Y18166   3.940   5.054   6.919 -1.5515  1.0693 -3.5192
  162SAPE   C2318167   4.470   5.122   6.333 -0.1092  0.4905 -0.7340
  162SAPE   H3R18168   4.442   5.213   6.277  1.3229  0.1296 -2.0698
  162SAPE   H3S18169   4.427   5.029   6.289  3.2337 -1.7428  0.4850
  162SAPE   C2418170   4.623   5.116   6.333 -0.3249  0.1642  0.1825
  162SAPE   H4R18171   4.670   5.209   6.371 -0.4350 -0.9047  3.0744
  162SAPE   H4S18172   4.652   5.122   6.226 -0.8953 -0.5452 -0.0166
  162SAPE   C2518173   4.690   5.001   6.398  0.2920  0.8959  0.0724
  162SAPE   H5R18174   4.634   4.909   6.377  1.2860  0.3548 -0.2335
  162SAPE   C2618175   4.802   4.993   6.469 -0.3697 -0.1256  0.6653
  162SAPE   H6R18176   4.817   4.902   6.530  0.2877  0.2484  1.0717
  162SAPE   C2718177   4.898   5.107   6.510  0.1710  0.4176  0.2880
  162SAPE   H7R18178   4.878   5.139   6.614  0.1467 -1.8382  0.9966
  162SAPE   H7S18179   4.886   5.198   6.448 -3.3694 -1.6028 -2.2054
  162SAPE   C2818180   5.043   5.063   6.481  0.7006  0.5249  0.8802
  162SAPE   H8R18181   5.072   5.085   6.377 -1.7879 -0.4752 -0.0647
  162SAPE   C2918182   5.131   5.014   6.569 -0.1181 -0.2799 -0.4208
  162SAPE   H9R18183   5.231   4.986   6.530  1.0489  2.2644  0.6175
  162SAPE  C21018184   5.109   4.994   6.717 -0.5795  0.0516  0.3210
  162SAPE  H10R18185   5.166   4.907   6.756 -0.4491  1.2055  2.8719
  162SAPE  H10S18186   5.004   4.964   6.733 -2.2757  4.6577 -1.1885
  162SAPE  C21118187   5.138   5.123   6.802 -0.2735 -0.0524 -0.1924
  162SAPE  H11R18188   5.204   5.192   6.747 -2.6768 -0.2007 -3.4071
  162SAPE  C21218189   5.096   5.156   6.926  0.6070 -0.5591  0.3450
  162SAPE  H12R18190   5.102   5.253   6.977 -0.4999  0.2421 -1.0119
  162SAPE  C21318191   5.008   5.066   7.004 -0.2708 -1.2944 -1.3286
  162SAPE  H13R18192   4.986   4.971   6.951 -1.0305 -1.5616 -0.5664
  162SAPE  H13S18193   4.907   5.108   7.028  0.0401 -0.0716 -2.1149
  162SAPE  C21418194   5.068   5.032   7.142 -0.1002  0.2746  0.3712
  162SAPE  H14R18195   5.086   4.926   7.167 -1.4213  0.4093  1.9687
  162SAPE  C21518196   5.099   5.116   7.241 -0.3878 -0.0758 -0.3498
  162SAPE  H15R18197   5.134   5.064   7.331 -1.2412  0.1924  0.1437
  162SAPE  C21618198   5.091   5.263   7.258 -0.6850  0.4816 -0.0458
  162SAPE  H16R18199   5.052   5.312   7.166 -0.5529 -1.8681 -1.3969
  162SAPE  H16S18200   5.184   5.311   7.294 -0.4849  1.6235 -2.0284
  162SAPE  C21718201   4.987   5.295   7.369 -0.1415  0.2963  0.5609
  162SAPE  H17R18202   4.886   5.266   7.332  0.1907 -0.2442  0.0693
  162SAPE  H17S18203   4.990   5.403   7.394  0.8917  0.5894 -0.7426
  162SAPE  C21818204   5.015   5.229   7.504 -0.2408 -0.7612 -0.4178
  162SAPE  H18R18205   5.118   5.247   7.541 -0.1256 -0.5069 -0.8662
  162SAPE  H18S18206   5.008   5.118   7.496  0.6164 -0.6784 -2.4615
  162SAPE  C21918207   4.917   5.279   7.621 -0.0634 -0.0113 -0.1210
  162SAPE  H19R18208   4.821   5.224   7.624  0.7518 -1.3863  1.3672
  162SAPE  H19S18209   4.906   5.388   7.601  4.2984  0.7930  1.3722
  162SAPE  C22018210   4.981   5.250   7.760 -0.4837 -0.3304  0.0766
  162SAPE  H20R18211   5.038   5.155   7.763  1.6369  0.9631  1.6197
  162SAPE  H20S18212   4.905   5.244   7.842  0.0053  1.9659  0.7178
  162SAPE  H20T18213   5.039   5.341   7.786  2.5462 -1.6397 -1.8581
  162SAPE   C3318214   4.152   5.090   6.995  0.3640  0.1399 -0.2860
  162SAPE   H3X18215   4.155   5.199   7.016  0.5327 -0.1828  1.4159
  162SAPE   H3Y18216   4.255   5.070   6.960  0.4274  0.8974 -0.5451
  162SAPE   C3418217   4.132   5.022   7.136  0.3559  0.0335  0.5559
  162SAPE   H4X18218   4.127   4.913   7.121 -0.2738  0.1850 -0.3988
  162SAPE   H4Y18219   4.038   5.064   7.177  0.4750 -0.1377  1.0042
  162SAPE   C3518220   4.238   5.065   7.229 -0.3231 -0.6929  0.5352
  162SAPE   H5X18221   4.207   5.164   7.270  1.1907  0.7079 -1.5849
  162SAPE   H5Y18222   4.336   5.079   7.179 -0.0814 -1.3763  0.8142
  162SAPE   C3618223   4.274   4.970   7.347 -0.1159  0.5994 -1.1360
  162SAPE   H6X18224   4.297   4.870   7.304  2.3329  0.1387  1.0994
  162SAPE   H6Y18225   4.188   4.959   7.417 -0.4479  1.0459 -1.4787
  162SAPE   C3718226   4.385   5.026   7.436  0.2508 -0.1188 -0.1373
  162SAPE   H7X18227   4.363   5.134   7.442  2.7217  0.2938  2.8534
  162SAPE   H7Y18228   4.483   5.023   7.382 -0.6734 -0.8904 -1.8012
  162SAPE   C3818229   4.384   4.974   7.576 -0.0794 -0.4800  0.4662
  162SAPE   H8X18230   4.403   4.864   7.573 -1.7528 -0.8106  1.1835
  162SAPE   H8Y18231   4.290   4.994   7.632 -1.9480  1.1773 -3.1347
  162SAPE   C3918232   4.498   5.028   7.660  0.2262 -0.0229 -0.0614
  162SAPE   H9X18233   4.491   5.138   7.652 -0.5273  0.1783  2.9506
  162SAPE   H9Y18234   4.591   4.986   7.615  0.1987 -1.2980  1.0345
  162SAPE  C31018235   4.487   4.992   7.808  0.0856  0.1739  0.3079
  162SAPE  H10X18236   4.478   4.882   7.816 -1.5227  0.3850  1.7751
  162SAPE  H10Y18237   4.399   5.041   7.855  1.3135  2.3403  0.4332
  162SAPE  C31118238   4.610   5.029   7.888  0.7348  0.7618  0.3392
  162SAPE  H11X18239   4.694   4.978   7.836 -1.3337 -2.4930  0.1021
  162SAPE  H11Y18240   4.612   4.985   7.990  1.0471  2.3318  1.0282
  162SAPE  C31218241   4.617   5.183   7.904 -0.0128  0.4242  0.7253
  162SAPE  H12X18242   4.516   5.230   7.894 -0.2831 -0.1916  0.5239
  162SAPE  H12Y18243   4.674   5.225   7.819 -0.6375 -2.0577 -0.9785
  162SAPE  C31318244   4.674   5.236   8.037  0.6182 -0.2439 -0.1998
  162SAPE  H13X18245   4.723   5.335   8.025 -1.1809  0.5491 -1.1859
  162SAPE  H13Y18246   4.747   5.157   8.064 -2.2424 -2.5163  1.1542
  162SAPE  C31418247   4.574   5.241   8.152 -0.5877 -0.4389 -1.0388
  162SAPE  H14X18248   4.511   5.331   8.137  0.9904  0.7551 -0.6080
  162SAPE  H14Y18249   4.635   5.260   8.243 -0.3484 -2.2463 -0.8035
  162SAPE  C31518250   4.475   5.134   8.170  0.2111  0.4589 -0.5479
  162SAPE  H15X18251   4.531   5.038   8.174  0.1518  0.4693  0.9589
  162SAPE  H15Y18252   4.413   5.127   8.078 -0.2686  1.2121 -0.2809
  162SAPE  C31618253   4.382   5.158   8.294 -0.0797  0.0158 -0.4861
  162SAPE  H16X18254   4.338   5.259   8.276  0.2698  0.9041  3.1327
  162SAPE  H16Y18255   4.443   5.180   8.384 -1.8309  1.2521  0.4534
  162SAPE  C31718256   4.281   5.047   8.318  0.3032  0.2984  0.5132
  162SAPE  H17X18257   4.324   4.954   8.362  0.7211 -0.0484 -0.6071
  162SAPE  H17Y18258   4.257   5.004   8.219  0.1668  0.7736  0.3366
  162SAPE  C31818259   4.151   5.091   8.383 -0.3329  0.4617 -0.1015
  162SAPE  H18X18260   4.119   5.001   8.439  1.3680  2.1777  3.8041
  162SAPE  H18Y18261   4.081   5.138   8.311 -0.5057  1.9234  1.0191
  162SAPE  H18Z18262   4.175   5.174   8.453  1.6021 -0.3749  0.2725
  163SAPE     N18263   3.589   2.822   6.563 -0.4571 -0.0139  0.3497
  163SAPE   HN118264   3.649   2.866   6.636  0.7334  1.3089 -1.4012
  163SAPE   HN218265   3.490   2.809   6.590 -0.6988  1.5304  0.2659
  163SAPE   HN318266   3.636   2.731   6.542  0.0635  0.2187  0.4872
  163SAPE   C1218267   3.594   2.919   6.455  0.0062  0.3387  0.6808
  163SAPE  H12A18268   3.492   2.965   6.453 -0.3278 -0.2465  3.0939
  163SAPE  H12B18269   3.616   2.861   6.363  0.3942  1.9534 -0.2731
  163SAPE   C1118270   3.698   3.023   6.494 -0.0064 -0.1512  0.0789
  163SAPE  H11A18271   3.698   3.093   6.408 -0.8613 -0.7501 -0.4212
  163SAPE  H11B18272   3.796   2.974   6.507 -0.8014 -1.3997  1.6497
  163SAPE     P18273   3.748   3.096   6.743  0.1083 -0.2622 -0.3209
  163SAPE   O1318274   3.758   2.948   6.783 -0.9349 -0.7701  0.4840
  163SAPE   O1418275   3.867   3.173   6.700 -0.0072  0.6159  0.0356
  163SAPE   O1218276   3.656   3.096   6.619  0.0920  0.5507  0.1202
  163SAPE   O1118277   3.666   3.180   6.846  0.2934  0.3826  0.2656
  163SAPE    C118278   3.547   3.259   6.813 -0.4291 -0.4351  0.3332
  163SAPE    HA18279   3.572   3.366   6.827 -1.9227 -0.2191  1.4812
  163SAPE    HB18280   3.503   3.233   6.715  0.1962 -3.1843  0.7256
  163SAPE    C218281   3.431   3.227   6.922  0.3847 -0.0300 -0.1534
  163SAPE    HS18282   3.367   3.318   6.922 -0.4899 -0.6325 -1.2372
  163SAPE   O2118283   3.494   3.207   7.044 -0.3564  0.7526 -0.8670
  163SAPE   C2118284   3.558   3.310   7.098  0.4213 -0.6126  0.3643
  163SAPE   O2218285   3.563   3.421   7.051 -0.1369 -0.3967  0.0421
  163SAPE   C2218286   3.617   3.263   7.224  0.1679 -0.4856  0.6677
  163SAPE   H2R18287   3.542   3.204   7.280 -0.4296 -0.2045  0.1729
  163SAPE   H2S18288   3.714   3.215   7.195  0.6473  0.4049  0.7775
  163SAPE    C318289   3.335   3.116   6.878 -0.1297 -0.1784 -0.4550
  163SAPE    HX18290   3.397   3.026   6.860 -1.2444 -0.4917 -2.8624
  163SAPE    HY18291   3.286   3.138   6.781  1.2629  0.9017 -0.9238
  163SAPE   O3118292   3.225   3.090   6.968  0.3631 -0.7148 -0.3267
  163SAPE   C3118293   3.182   2.961   6.966 -0.4808  0.4572  0.2375
  163SAPE   O3218294   3.225   2.870   6.895  0.3056  0.0682 -0.1008
  163SAPE   C3218295   3.060   2.942   7.060  0.5120 -0.5030  0.1756
  163SAPE   H2X18296   2.985   2.889   6.999 -0.5543 -1.8054  2.5728
  163SAPE   H2Y18297   3.015   3.042   7.077  0.6245 -0.6939  1.6066
  163SAPE   C2318298   3.663   3.384   7.312 -0.0030  0.3455  0.9363
  163SAPE   H3R18299   3.567   3.409   7.362  0.6207  2.6122  1.0426
  163SAPE   H3S18300   3.701   3.474   7.259 -0.3306 -0.4222 -0.6194
  163SAPE   C2418301   3.767   3.350   7.409 -0.4505  0.1006  0.2127
  163SAPE   H4R18302   3.864   3.330   7.358  0.0080 -0.7488  1.3831
  163SAPE   H4S18303   3.736   3.255   7.458 -0.3605  0.3767  0.8124
  163SAPE   C2518304   3.780   3.466   7.507  0.6910 -0.7204  0.2174
  163SAPE   H5R18305   3.775   3.565   7.458 -1.2406 -0.4980  0.8325
  163SAPE   C2618306   3.812   3.448   7.638 -0.6819 -0.0646  0.2487
  163SAPE   H6R18307   3.818   3.540   7.699  0.4288  0.1028 -0.1021
  163SAPE   C2718308   3.833   3.326   7.723  0.3794 -0.7357  0.2596
  163SAPE   H7R18309   3.938   3.332   7.759  0.3571  1.0216  0.0995
  163SAPE   H7S18310   3.837   3.233   7.664 -0.2521 -2.2873  2.6003
  163SAPE   C2818311   3.739   3.303   7.836  0.2027  0.0949  0.0692
  163SAPE   H8R18312   3.653   3.236   7.818  0.7553 -1.0066  1.3740
  163SAPE   C2918313   3.746   3.351   7.962  1.1056 -0.4366 -0.1872
  163SAPE   H9R18314   3.664   3.332   8.032 -1.2925  0.9880 -2.5235
  163SAPE  C21018315   3.839   3.454   8.022  0.0670  0.6410  0.0350
  163SAPE  H10R18316   3.821   3.476   8.130  0.4004  2.6825 -0.2900
  163SAPE  H10S18317   3.831   3.552   7.970 -1.6902  0.7960  0.5888
  163SAPE  C21118318   3.985   3.404   8.021 -0.7729 -0.3386  0.3765
  163SAPE  H11R18319   4.030   3.441   7.928 -0.0339 -0.8941  0.5119
  163SAPE  C21218320   4.056   3.330   8.107 -0.3297 -0.2875 -0.6183
  163SAPE  H12R18321   4.160   3.310   8.079 -0.4553 -0.5666 -0.8804
  163SAPE  C21318322   4.010   3.281   8.245  0.4361  0.0339 -0.1230
  163SAPE  H13R18323   4.063   3.183   8.247 -0.4831 -0.4458  2.1182
  163SAPE  H13S18324   3.900   3.264   8.246  0.1839  1.6765  1.4680
  163SAPE  C21418325   4.044   3.384   8.356  0.9483 -0.5039  0.1983
  163SAPE  H14R18326   4.011   3.487   8.337 -1.7508 -1.4058 -0.2095
  163SAPE  C21518327   4.086   3.346   8.476 -0.0052 -0.1742 -0.2874
  163SAPE  H15R18328   4.091   3.419   8.558  1.0736 -0.5212 -0.0392
  163SAPE  C21618329   4.101   3.209   8.520  0.5203 -0.6708 -0.1472
  163SAPE  H16R18330   4.199   3.210   8.571  0.3201 -0.9010  0.2403
  163SAPE  H16S18331   4.108   3.129   8.444  1.1605 -1.7131  0.9939
  163SAPE  C21718332   3.989   3.178   8.616 -0.4294 -0.2468 -0.1798
  163SAPE  H17R18333   3.941   3.081   8.591  0.5641 -1.0153  0.8421
  163SAPE  H17S18334   3.908   3.254   8.624  0.0333  0.1701  0.6962
  163SAPE  C21818335   4.048   3.182   8.762 -0.3655  0.3481  0.0019
  163SAPE  H18R18336   4.142   3.123   8.757 -0.2940  0.4136  0.4970
  163SAPE  H18S18337   3.969   3.125   8.817  1.3734 -3.8057 -1.6141
  163SAPE  C21918338   4.078   3.317   8.818 -0.1727  0.9015 -0.5456
  163SAPE  H19R18339   4.002   3.394   8.793 -1.2296  0.0247 -0.1010
  163SAPE  H19S18340   4.167   3.358   8.766  1.4572 -0.6213  0.9779
  163SAPE  C22018341   4.083   3.316   8.970 -0.2569  0.1338  0.8400
  163SAPE  H20R18342   4.171   3.252   8.992 -0.9884 -1.0144  0.5083
  163SAPE  H20S18343   3.993   3.266   9.013 -0.6960 -0.8782 -1.1678
  163SAPE  H20T18344   4.090   3.414   9.021  0.0767 -0.1560  1.3520
  163SAPE   C3318345   3.090   2.874   7.189 -0.2679  0.1497  0.5491
  163SAPE   H3X18346   3.176   2.924   7.238  0.5473  0.4055 -1.1210
  163SAPE   H3Y18347   3.133   2.772   7.182  0.5530  0.7031 -4.8030
  163SAPE   C3418348   2.974   2.873   7.287 -0.1335 -0.2862 -0.0798
  163SAPE   H4X18349   2.892   2.803   7.261 -0.8280  0.8419 -0.9144
  163SAPE   H4Y18350   2.936   2.977   7.294  0.8760  0.0344  0.8359
  163SAPE   C3518351   3.013   2.842   7.440 -0.3614  0.5780 -0.0072
  163SAPE   H5X18352   3.091   2.912   7.475 -0.9416  0.3052  1.8941
  163SAPE   H5Y18353   3.044   2.736   7.447 -1.3716  0.2258 -0.7273
  163SAPE   C3618354   2.902   2.871   7.537  0.5076 -0.1036  0.0323
  163SAPE   H6X18355   2.816   2.801   7.526 -0.3614  0.8707  0.6056
  163SAPE   H6Y18356   2.865   2.974   7.521  0.7739  0.2230  1.4757
  163SAPE   C3718357   2.957   2.862   7.683 -0.9071 -0.3057  0.1418
  163SAPE   H7X18358   3.049   2.925   7.687 -2.0386  1.3049  2.1604
  163SAPE   H7Y18359   2.987   2.762   7.720  1.6419  1.3297  2.7491
  163SAPE   C3818360   2.858   2.922   7.778 -0.4392  0.4784  0.1903
  163SAPE   H8X18361   2.765   2.861   7.772 -1.1077  1.6547 -1.6117
  163SAPE   H8Y18362   2.827   3.024   7.748  0.3008  1.6167  3.1328
  163SAPE   C3918363   2.921   2.924   7.928  0.0011  0.5022 -0.2159
  163SAPE   H9X18364   3.029   2.948   7.928  0.1641 -0.2261  0.4338
  163SAPE   H9Y18365   2.929   2.818   7.960 -0.0640  0.1321 -1.4026
  163SAPE  C31018366   2.841   3.006   8.028  0.3758  0.0083 -0.0904
  163SAPE  H10X18367   2.741   2.958   8.033  0.0639  0.5610 -0.8429
  163SAPE  H10Y18368   2.813   3.103   7.982  2.5660  1.6576  1.9698
  163SAPE  C31118369   2.905   3.013   8.172  0.9379  0.2691  0.4988
  163SAPE  H11X18370   3.013   3.043   8.169  0.2283  3.3810  2.7172
  163SAPE  H11Y18371   2.888   2.913   8.217 -0.9902 -0.3188 -1.4515
  163SAPE  C31218372   2.835   3.119   8.262  0.1615  0.1675  0.0924
  163SAPE  H12X18373   2.769   3.181   8.198 -0.5810  1.7978  2.3588
  163SAPE  H12Y18374   2.901   3.195   8.310 -0.4979 -1.4724  3.7899
  163SAPE  C31318375   2.750   3.044   8.364 -0.1228 -0.4857 -0.7332
  163SAPE  H13X18376   2.804   2.994   8.447 -1.2659  0.3198  0.5165
  163SAPE  H13Y18377   2.697   2.957   8.319 -2.7270  0.8855 -0.3902
  163SAPE  C31418378   2.651   3.152   8.441 -0.3897  0.5371 -0.4233
  163SAPE  H14X18379   2.560   3.104   8.481  0.4965  0.1648  1.1583
  163SAPE  H14Y18380   2.627   3.234   8.369  2.7008  2.9927  1.2202
  163SAPE  C31518381   2.718   3.196   8.576  0.1192  0.8178  0.1772
  163SAPE  H15X18382   2.808   3.239   8.526 -0.0411 -1.8188 -2.5156
  163SAPE  H15Y18383   2.754   3.117   8.645  0.5615  1.3108  0.5155
  163SAPE  C31618384   2.643   3.319   8.632  0.4061 -0.4165  0.1699
  163SAPE  H16X18385   2.595   3.367   8.544 -0.0435 -1.5025 -0.1867
  163SAPE  H16Y18386   2.713   3.396   8.671  0.4327 -0.9388  1.1725
  163SAPE  C31718387   2.549   3.272   8.742  0.3072  0.1004  0.7458
  163SAPE  H17X18388   2.605   3.224   8.825 -2.8359 -2.0956  1.6605
  163SAPE  H17Y18389   2.478   3.198   8.700  0.3520  0.9772 -0.9121
  163SAPE  C31818390   2.458   3.384   8.786  0.4474 -0.4240 -0.3136
  163SAPE  H18X18391   2.386   3.411   8.705  0.4190 -0.2467 -0.2299
  163SAPE  H18Y18392   2.529   3.465   8.815  0.8999 -0.9641  0.0908
  163SAPE  H18Z18393   2.396   3.355   8.873 -0.6422  0.5348 -0.7529
  164SAPE     N18394   6.179   0.605   6.022  0.2890  0.3552  0.6090
  164SAPE   HN118395   6.269   0.583   5.975 -0.7832 -1.4041 -0.6759
  164SAPE   HN218396   6.174   0.708   6.010 -1.1497  0.3690  1.2143
  164SAPE   HN318397   6.183   0.576   6.121 -0.7047 -0.8939  0.2917
  164SAPE   C1218398   6.050   0.555   5.967 -0.1752  0.1765  0.1527
  164SAPE  H12A18399   6.054   0.444   5.956 -1.9777 -0.0281  1.3854
  164SAPE  H12B18400   6.031   0.610   5.872  1.7790  0.5971 -0.0176
  164SAPE   C1118401   5.926   0.588   6.051 -0.3527  0.5110 -0.4871
  164SAPE  H11A18402   5.952   0.687   6.095 -2.4236 -0.1410  2.3584
  164SAPE  H11B18403   5.917   0.511   6.131  0.4965  0.7720 -0.1358
  164SAPE     P18404   5.708   0.478   5.939 -0.2597 -0.0516  0.4089
  164SAPE   O1318405   5.566   0.510   5.942 -0.0430 -0.5228  0.0391
  164SAPE   O1418406   5.761   0.418   5.816 -0.2850 -0.5076  0.5870
  164SAPE   O1218407   5.796   0.603   5.985 -0.5842 -0.1560 -0.2217
  164SAPE   O1118408   5.736   0.374   6.049  0.2431  0.1932 -0.3284
  164SAPE    C118409   5.654   0.363   6.167  0.0014 -0.1443 -0.0248
  164SAPE    HA18410   5.701   0.422   6.249  1.0330  0.2496 -0.8858
  164SAPE    HB18411   5.547   0.394   6.159 -0.1260 -1.1769 -2.4443
  164SAPE    C218412   5.648   0.216   6.212  0.7483 -1.0308 -0.4183
  164SAPE    HS18413   5.599   0.221   6.312  1.1857 -0.3432 -0.2357
  164SAPE   O2118414   5.785   0.171   6.216 -0.0964  0.1386 -0.0806
  164SAPE   C2118415   5.860   0.220   6.318 -0.4009 -0.8047  0.1817
  164SAPE   O2218416   5.809   0.276   6.413  0.1295  0.6428 -0.6503
  164SAPE   C2218417   6.004   0.196   6.299 -0.4603  0.2213  0.1815
  164SAPE   H2R18418   6.028   0.124   6.219  0.7218  0.4451  0.3238
  164SAPE   H2S18419   6.042   0.295   6.266  1.2306 -0.0753  1.2106
  164SAPE    C318420   5.554   0.126   6.121  0.1323 -0.1759 -0.5576
  164SAPE    HX18421   5.607   0.134   6.024  1.0516  0.4073 -0.0102
  164SAPE    HY18422   5.455   0.176   6.111  1.0565  1.6684 -0.6635
  164SAPE   O3118423   5.550  -0.006   6.165  0.2469  0.5466 -0.2616
  164SAPE   C3118424   5.467  -0.020   6.266 -0.0257 -0.2783 -0.2267
  164SAPE   O3218425   5.383   0.058   6.304  0.0434 -0.1083  0.5315
  164SAPE   C3218426   5.492  -0.159   6.341 -0.4713 -0.1630 -0.4709
  164SAPE   H2X18427   5.502  -0.243   6.269  0.4600  1.9311 -2.8944
  164SAPE   H2Y18428   5.405  -0.185   6.406  0.2244  2.6642  1.6783
  164SAPE   C2318429   6.095   0.160   6.415  0.0464  0.1977 -0.2317
  164SAPE   H3R18430   6.081   0.237   6.494  0.3765  0.5831 -0.5407
  164SAPE   H3S18431   6.199   0.167   6.374 -0.1372 -2.5151 -1.2445
  164SAPE   C2418432   6.077   0.020   6.473 -0.0257  0.8330  0.1969
  164SAPE   H4R18433   5.969   0.013   6.497 -0.3718 -0.4595 -1.6852
  164SAPE   H4S18434   6.133   0.021   6.569 -0.7696 -0.3295  0.6590
  164SAPE   C2518435   6.119  -0.098   6.384 -0.2608 -0.0492  0.0485
  164SAPE   H5R18436   6.063  -0.099   6.289 -0.4785 -2.0596  0.1634
  164SAPE   C2618437   6.211  -0.191   6.410  0.2759 -0.5611  1.0234
  164SAPE   H6R18438   6.258  -0.251   6.331  0.2757 -0.7027  1.1302
  164SAPE   C2718439   6.299  -0.193   6.535 -0.3288 -0.6253 -0.0126
  164SAPE   H7R18440   6.334  -0.089   6.555 -0.4511 -0.1360 -2.2655
  164SAPE   H7S18441   6.391  -0.252   6.516  0.3529  0.2118  0.6365
  164SAPE   C2818442   6.229  -0.244   6.662  0.5148  0.0780  0.2645
  164SAPE   H8R18443   6.166  -0.332   6.648 -1.9475  1.7559  0.3667
  164SAPE   C2918444   6.206  -0.180   6.787  0.2766  0.3547 -0.0327
  164SAPE   H9R18445   6.139  -0.228   6.860 -0.5809  0.4548 -0.7385
  164SAPE  C21018446   6.255  -0.043   6.821  0.2483 -0.7509  0.1725
  164SAPE  H10R18447   6.326  -0.002   6.746  0.1472 -0.6886  0.1082
  164SAPE  H10S18448   6.315  -0.052   6.913 -1.3060 -1.2654  1.1569
  164SAPE  C21118449   6.141   0.052   6.853  0.1396 -0.8755 -0.3187
  164SAPE  H11R18450   6.053   0.012   6.905 -0.7872  2.6445  0.9792
  164SAPE  C21218451   6.151   0.182   6.837 -0.5871 -0.3883  0.4624
  164SAPE  H12R18452   6.063   0.242   6.865  0.5468  0.7006  1.7922
  164SAPE  C21318453   6.274   0.247   6.773 -0.1214 -0.0153  0.5553
  164SAPE  H13R18454   6.314   0.208   6.677 -0.7730  0.7646 -0.0459
  164SAPE  H13S18455   6.361   0.223   6.838 -0.4410  0.3795  1.1415
  164SAPE  C21418456   6.260   0.393   6.748  0.5502 -0.4015 -0.5982
  164SAPE  H14R18457   6.235   0.417   6.643 -0.0750  0.8597 -0.1669
  164SAPE  C21518458   6.283   0.489   6.836  0.2982 -0.0623 -0.9767
  164SAPE  H15R18459   6.278   0.594   6.802  0.3161  0.7037  1.2702
  164SAPE  C21618460   6.329   0.473   6.980 -0.8233 -0.3117  0.2642
  164SAPE  H16R18461   6.417   0.532   7.010 -0.6949 -0.8464  0.9545
  164SAPE  H16S18462   6.362   0.369   7.002  1.8745  0.4388 -0.0736
  164SAPE  C21718463   6.216   0.506   7.078  0.4962  0.3651  0.6680
  164SAPE  H17R18464   6.138   0.430   7.053  0.4399  0.9116 -0.8880
  164SAPE  H17S18465   6.162   0.597   7.045 -0.5308 -1.0604 -1.7726
  164SAPE  C21818466   6.247   0.504   7.221  0.2394  0.3084 -0.4865
  164SAPE  H18R18467   6.329   0.577   7.238  0.2575  0.1416  0.1688
  164SAPE  H18S18468   6.296   0.406   7.240 -3.0413 -1.7434 -2.1258
  164SAPE  C21918469   6.129   0.537   7.314 -0.1010 -0.0776  0.0644
  164SAPE  H19R18470   6.087   0.631   7.273 -1.2880 -1.0603 -0.9734
  164SAPE  H19S18471   6.168   0.554   7.417 -0.9266  1.1402  0.1841
  164SAPE  C22018472   6.016   0.435   7.323  0.3981  0.8438  0.0197
  164SAPE  H20R18473   6.050   0.338   7.366  1.3572  1.2995  0.2898
  164SAPE  H20S18474   5.979   0.410   7.221  0.7224 -2.2132  0.5969
  164SAPE  H20T18475   5.939   0.480   7.390  0.9044  1.4685  0.1817
  164SAPE   C3318476   5.607  -0.141   6.438 -0.1247 -0.1909  0.1701
  164SAPE   H3X18477   5.702  -0.116   6.385 -0.8892  0.0198 -1.1060
  164SAPE   H3Y18478   5.634  -0.236   6.488 -0.2037 -1.1931 -1.6445
  164SAPE   C3418479   5.575  -0.040   6.545 -0.2192 -0.2866 -0.1211
  164SAPE   H4X18480   5.484  -0.069   6.602 -0.1269  1.8527  1.1659
  164SAPE   H4Y18481   5.550   0.056   6.494  1.0856  0.4251  0.5576
  164SAPE   C3518482   5.685  -0.003   6.643 -0.4120  0.8582 -0.5033
  164SAPE   H5X18483   5.772   0.042   6.591 -0.0873  1.3766  0.4861
  164SAPE   H5Y18484   5.729  -0.087   6.701 -0.0223  1.1301 -0.4124
  164SAPE   C3618485   5.644   0.106   6.736  0.3268  0.6158  0.2220
  164SAPE   H6X18486   5.549   0.080   6.788  0.9974 -2.6202 -0.0694
  164SAPE   H6Y18487   5.613   0.199   6.684 -0.1730  0.2416 -0.1495
  164SAPE   C3718488   5.761   0.138   6.832  0.2185 -0.0363 -0.3752
  164SAPE   H7X18489   5.843   0.188   6.776 -1.1479  3.9105  0.9707
  164SAPE   H7Y18490   5.804   0.046   6.876  1.7839  1.7704  2.0111
  164SAPE   C3818491   5.714   0.234   6.945  0.3674  0.1995  0.2091
  164SAPE   H8X18492   5.643   0.181   7.013  0.8781  0.8107  1.2405
  164SAPE   H8Y18493   5.661   0.315   6.890  1.2542  1.4162  1.1079
  164SAPE   C3918494   5.823   0.290   7.037  0.4366  0.1551  0.6295
  164SAPE   H9X18495   5.775   0.372   7.095 -2.8147 -0.0273 -1.6302
  164SAPE   H9Y18496   5.897   0.334   6.966  0.1129  1.2966  0.9778
  164SAPE  C31018497   5.882   0.189   7.132  0.2271  0.0513  0.3284
  164SAPE  H10X18498   5.991   0.211   7.140 -0.3511  3.9610 -1.3951
  164SAPE  H10Y18499   5.885   0.088   7.085  1.9798  0.1257  0.2343
  164SAPE  C31118500   5.813   0.178   7.268 -0.5129 -0.2019  0.6490
  164SAPE  H11X18501   5.708   0.146   7.251 -1.2800  2.1013  0.8722
  164SAPE  H11Y18502   5.825   0.276   7.319  2.6830 -0.1112 -0.1536
  164SAPE  C31218503   5.894   0.073   7.356 -0.0052 -0.1672  0.6295
  164SAPE  H12X18504   5.864   0.085   7.462 -4.7028  0.6572 -0.6819
  164SAPE  H12Y18505   6.001   0.103   7.350  0.0211 -0.7300 -2.5023
  164SAPE  C31318506   5.865  -0.070   7.310 -0.0019  0.3467 -0.1609
  164SAPE  H13X18507   5.870  -0.086   7.200  0.5982 -1.9187  0.1804
  164SAPE  H13Y18508   5.768  -0.100   7.354  0.9095 -2.6324 -0.0427
  164SAPE  C31418509   5.976  -0.165   7.367 -0.3072 -0.0721  0.2693
  164SAPE  H14X18510   5.990  -0.150   7.476  2.0199 -4.6133  0.6966
  164SAPE  H14Y18511   6.073  -0.144   7.317 -0.6696  1.6589  0.2664
  164SAPE  C31518512   5.957  -0.308   7.337  0.1664 -0.0943  0.2677
  164SAPE  H15X18513   5.848  -0.327   7.333  0.6810 -2.9122 -1.8064
  164SAPE  H15Y18514   5.993  -0.383   7.411 -0.8310 -1.1131 -0.2800
  164SAPE  C31618515   6.007  -0.348   7.196  0.1940 -0.3993  0.0765
  164SAPE  H16X18516   6.116  -0.327   7.191  0.3041 -1.3914 -1.9817
  164SAPE  H16Y18517   5.946  -0.283   7.130 -1.2017  0.8218  2.4764
  164SAPE  C31718518   5.980  -0.498   7.171 -0.5028  0.2179  0.0094
  164SAPE  H17X18519   5.872  -0.524   7.169 -0.3114 -0.5393 -1.7594
  164SAPE  H17Y18520   6.041  -0.559   7.240 -0.1936  0.1529 -0.3190
  164SAPE  C31818521   6.020  -0.558   7.032  0.0280  0.1096  0.3552
  164SAPE  H18X18522   5.996  -0.666   7.027 -2.2857  0.6618 -3.2307
  164SAPE  H18Y18523   6.127  -0.532   7.019  0.9009 -2.6570  1.6149
  164SAPE  H18Z18524   5.952  -0.511   6.958 -1.7768 -1.4306  0.9891
  165SAPE     N18525   6.652   2.398   6.164 -0.5867  0.2501 -0.0451
  165SAPE   HN118526   6.573   2.342   6.127  0.4353  0.0355 -1.9523
  165SAPE   HN218527   6.696   2.465   6.098  0.1460 -0.9080 -0.7425
  165SAPE   HN318528   6.725   2.333   6.199 -0.8100 -0.3273 -0.6405
  165SAPE   C1218529   6.621   2.481   6.284 -0.0185  0.0199  0.0862
  165SAPE  H12A18530   6.588   2.419   6.370 -1.9167  1.7254  0.6302
  165SAPE  H12B18531   6.545   2.555   6.251 -2.0292 -2.5384 -1.1407
  165SAPE   C1118532   6.733   2.579   6.327  0.1954 -0.2560  0.8822
  165SAPE  H11A18533   6.807   2.512   6.377  0.6051  0.7930  1.7276
  165SAPE  H11B18534   6.691   2.656   6.396 -0.4746 -0.2602  0.4740
  165SAPE     P18535   6.917   2.736   6.242 -0.1056 -0.3276 -0.2659
  165SAPE   O1318536   7.035   2.659   6.271 -0.8099 -0.1858  0.4384
  165SAPE   O1418537   6.927   2.837   6.135 -0.6320 -0.1071 -0.4506
  165SAPE   O1218538   6.797   2.636   6.213 -0.7084 -0.3754 -0.4073
  165SAPE   O1118539   6.869   2.802   6.373  0.0880 -0.6502 -0.1270
  165SAPE    C118540   6.762   2.893   6.387  0.6713 -0.1683  0.0216
  165SAPE    HA18541   6.708   2.906   6.291  1.1447  1.9687  0.0074
  165SAPE    HB18542   6.694   2.855   6.466  0.2148 -0.1813 -0.3767
  165SAPE    C218543   6.805   3.039   6.428  0.2467 -0.0025  0.4706
  165SAPE    HS18544   6.855   3.089   6.342  2.8245 -1.6421  0.9575
  165SAPE   O2118545   6.883   3.029   6.556 -0.4668  0.0147  0.3041
  165SAPE   C2118546   7.003   3.083   6.546 -0.4087 -0.1678  0.2012
  165SAPE   O2218547   7.045   3.148   6.452  0.3049 -0.0598 -0.7397
  165SAPE   C2218548   7.081   3.051   6.672  0.3106 -0.0031 -0.1193
  165SAPE   H2R18549   7.039   2.977   6.743  1.9524 -0.2109  0.6476
  165SAPE   H2S18550   7.179   3.016   6.632  0.1469  0.9570 -1.4230
  165SAPE    C318551   6.674   3.113   6.456  0.2648 -0.4357  0.0324
  165SAPE    HX18552   6.600   3.087   6.377 -0.6729 -1.5318  1.2359
  165SAPE    HY18553   6.689   3.222   6.440 -0.3279 -0.0426  1.9591
  165SAPE   O3118554   6.620   3.077   6.584 -0.6811  0.3740 -0.3027
  165SAPE   C3118555   6.486   3.072   6.598  1.0471 -0.4414  0.8046
  165SAPE   O3218556   6.402   3.081   6.511  0.2801 -0.1897 -0.6509
  165SAPE   C3218557   6.464   3.044   6.745  0.5214 -0.0729 -0.6167
  165SAPE   H2X18558   6.553   3.091   6.794  0.4588 -1.4390  0.8286
  165SAPE   H2Y18559   6.471   2.937   6.771 -1.0882 -0.0814 -0.1942
  165SAPE   C2318560   7.113   3.185   6.756  0.7364  1.1198  0.0958
  165SAPE   H3R18561   7.148   3.276   6.703  0.9004  2.6143  2.6514
  165SAPE   H3S18562   7.209   3.167   6.810  2.0091  0.3909 -2.3203
  165SAPE   C2418563   6.999   3.220   6.859 -0.3409  0.0762 -0.1169
  165SAPE   H4R18564   6.901   3.189   6.816 -0.7559  0.0143  0.8662
  165SAPE   H4S18565   6.990   3.328   6.885  0.5818  0.6326 -2.0126
  165SAPE   C2518566   7.019   3.146   6.987  1.2736  0.3803  0.3864
  165SAPE   H5R18567   6.980   3.043   6.990  2.2546 -0.0684 -1.5761
  165SAPE   C2618568   7.060   3.197   7.102 -0.6494  0.1557  0.5964
  165SAPE   H6R18569   7.072   3.121   7.181 -1.6590  1.2271  1.7997
  165SAPE   C2718570   7.101   3.337   7.126  0.4370 -0.5346 -0.0772
  165SAPE   H7R18571   7.018   3.384   7.183 -1.0414 -1.5528 -1.3425
  165SAPE   H7S18572   7.100   3.404   7.038  0.4357  0.5873  0.7550
  165SAPE   C2818573   7.238   3.352   7.187  0.6503  0.0252 -0.8179
  165SAPE   H8R18574   7.304   3.386   7.107 -0.9264  1.7877 -1.4170
  165SAPE   C2918575   7.280   3.337   7.308  0.3506  0.4886 -0.1505
  165SAPE   H9R18576   7.386   3.353   7.335 -0.0182  1.1724  0.9592
  165SAPE  C21018577   7.188   3.295   7.425 -0.1963 -0.2130  0.0364
  165SAPE  H10R18578   7.087   3.262   7.392 -0.0509 -1.9994  1.2774
  165SAPE  H10S18579   7.170   3.386   7.485  2.1236 -1.0297  2.0658
  165SAPE  C21118580   7.255   3.203   7.522 -0.8958  0.0178 -0.2137
  165SAPE  H11R18581   7.275   3.103   7.481  0.9722  0.2926  0.0181
  165SAPE  C21218582   7.279   3.229   7.651 -0.3587 -0.4355 -0.9411
  165SAPE  H12R18583   7.346   3.167   7.713  0.9267  1.3684 -0.4524
  165SAPE  C21318584   7.237   3.358   7.726 -0.0644 -0.5333 -0.2562
  165SAPE  H13R18585   7.224   3.444   7.657 -3.2012  0.0043  0.9153
  165SAPE  H13S18586   7.316   3.389   7.797 -1.6244  1.6432  0.5815
  165SAPE  C21418587   7.104   3.330   7.786 -0.4113  0.2968 -0.1971
  165SAPE  H14R18588   7.033   3.264   7.734  0.0674 -1.0210  0.7604
  165SAPE  C21518589   7.063   3.369   7.905  0.2418  0.5412  1.3342
  165SAPE  H15R18590   6.960   3.339   7.932  0.3316 -0.1181  0.9488
  165SAPE  C21618591   7.136   3.451   8.010 -0.0173  0.5019 -0.4518
  165SAPE  H16R18592   7.056   3.519   8.048 -0.3342  0.4129 -0.9590
  165SAPE  H16S18593   7.215   3.517   7.969  1.6937 -0.1218  1.7409
  165SAPE  C21718594   7.174   3.341   8.109 -0.7760  0.1810  0.0450
  165SAPE  H17R18595   7.219   3.249   8.066 -0.2998  0.5418 -0.2357
  165SAPE  H17S18596   7.093   3.321   8.182 -0.7744 -0.6249 -0.1750
  165SAPE  C21818597   7.292   3.380   8.193 -0.2769  0.2442 -0.1887
  165SAPE  H18R18598   7.281   3.488   8.216 -0.0630  0.5911 -1.6987
  165SAPE  H18S18599   7.382   3.378   8.128  0.5964 -1.2285  1.0072
  165SAPE  C21918600   7.298   3.307   8.321 -0.7037 -0.6207  0.2309
  165SAPE  H19R18601   7.198   3.313   8.369 -1.3885  2.2044 -1.4411
  165SAPE  H19S18602   7.378   3.356   8.380  1.1673  0.0994 -2.7516
  165SAPE  C22018603   7.326   3.157   8.284 -0.5121  0.1773 -1.0395
  165SAPE  H20R18604   7.232   3.112   8.244 -1.5046  1.4032 -0.1371
  165SAPE  H20S18605   7.362   3.109   8.378 -1.3896 -1.5382 -1.5466
  165SAPE  H20T18606   7.399   3.145   8.202 -0.0344 -0.3155 -0.5491
  165SAPE   C3318607   6.324   3.099   6.798 -0.0854 -0.0203 -0.1787
  165SAPE   H3X18608   6.251   3.084   6.716  0.6186 -3.1467 -0.3045
  165SAPE   H3Y18609   6.335   3.202   6.837  1.8913 -1.6675  3.9545
  165SAPE   C3418610   6.260   3.005   6.910  0.3102  0.7040 -0.6390
  165SAPE   H4X18611   6.286   2.901   6.881  1.3157  0.2017  1.9099
  165SAPE   H4Y18612   6.149   3.007   6.917  0.4188  2.3353  0.9521
  165SAPE   C3518613   6.310   3.031   7.054 -0.2102 -0.6942  0.5584
  165SAPE   H5X18614   6.281   3.136   7.077 -3.1425 -1.0263 -1.2787
  165SAPE   H5Y18615   6.420   3.028   7.067 -0.0471  0.1070 -0.5533
  165SAPE   C3618616   6.246   2.935   7.153 -0.6571  0.6439 -0.2508
  165SAPE   H6X18617   6.244   2.834   7.106  2.5111  0.6302 -0.4931
  165SAPE   H6Y18618   6.140   2.958   7.173 -1.1721 -1.0194 -0.9927
  165SAPE   C3718619   6.331   2.932   7.286 -0.2245 -0.1497 -0.1787
  165SAPE   H7X18620   6.371   3.035   7.304  1.0102 -0.1063 -2.9094
  165SAPE   H7Y18621   6.418   2.863   7.279 -2.1031 -2.8409  2.0766
  165SAPE   C3818622   6.252   2.871   7.403  0.3878 -0.5448  0.8739
  165SAPE   H8X18623   6.228   2.764   7.383 -0.8276 -0.3609  1.2917
  165SAPE   H8Y18624   6.157   2.926   7.418 -1.1387 -2.8478 -0.0621
  165SAPE   C3918625   6.340   2.879   7.529  0.7750 -0.2525  0.4936
  165SAPE   H9X18626   6.368   2.985   7.550 -0.3567  0.1611 -0.0169
  165SAPE   H9Y18627   6.432   2.823   7.502  0.2716 -1.0637  0.4635
  165SAPE  C31018628   6.270   2.821   7.650 -0.1176  0.0341  0.0151
  165SAPE  H10X18629   6.259   2.711   7.639 -0.0484 -0.0500  0.7544
  165SAPE  H10Y18630   6.167   2.858   7.668 -0.1947 -0.4170  0.5014
  165SAPE  C31118631   6.353   2.857   7.775  0.0325 -0.2184  0.4275
  165SAPE  H11X18632   6.382   2.964   7.769  0.3362 -0.3690 -0.9393
  165SAPE  H11Y18633   6.448   2.800   7.776 -1.0372 -2.0419  0.1646
  165SAPE  C31218634   6.279   2.823   7.898  0.4532  0.9462 -0.2916
  165SAPE  H12X18635   6.246   2.717   7.896 -1.8401  1.6499 -1.9632
  165SAPE  H12Y18636   6.194   2.888   7.928  1.8032  1.9496  1.5222
  165SAPE  C31318637   6.381   2.842   8.006 -0.5891  0.0492 -0.0512
  165SAPE  H13X18638   6.431   2.940   7.993 -0.9646  0.3734  0.8700
  165SAPE  H13Y18639   6.458   2.764   7.995  0.1122  0.4205  2.0592
  165SAPE  C31418640   6.318   2.830   8.144  0.0915 -0.0941 -0.0684
  165SAPE  H14X18641   6.257   2.737   8.147  1.2172 -0.8990 -1.3759
  165SAPE  H14Y18642   6.240   2.906   8.167  0.8073  1.0422 -1.2948
  165SAPE  C31518643   6.423   2.832   8.259 -0.0545 -0.0845  0.1382
  165SAPE  H15X18644   6.467   2.934   8.261 -0.4728  0.1055 -0.0758
  165SAPE  H15Y18645   6.504   2.761   8.236  0.0512  0.3065 -0.7255
  165SAPE  C31618646   6.362   2.809   8.403  0.6970 -0.3738  0.1891
  165SAPE  H16X18647   6.310   2.711   8.409  0.8722 -0.3736  2.1736
  165SAPE  H16Y18648   6.280   2.878   8.435 -0.1476 -1.0951 -0.4372
  165SAPE  C31718649   6.469   2.828   8.514 -0.4431  0.5466 -0.8622
  165SAPE  H17X18650   6.425   2.823   8.616 -0.8045 -1.8539 -1.1079
  165SAPE  H17Y18651   6.515   2.929   8.510 -1.5124  1.1467  1.2222
  165SAPE  C31818652   6.575   2.713   8.506 -0.3163  0.2656  0.2940
  165SAPE  H18X18653   6.608   2.694   8.401  0.0763 -1.4427  0.7082
  165SAPE  H18Y18654   6.535   2.614   8.538  0.2379 -0.9137 -2.4784
  165SAPE  H18Z18655   6.665   2.721   8.571  1.2952  1.9629 -2.0765
  166SAPE     N18656   5.137   6.087   5.588  0.5149  0.2814 -0.3740
  166SAPE   HN118657   5.206   6.138   5.646  1.3304 -0.4862 -0.6579
  166SAPE   HN218658   5.165   6.063   5.490 -0.7195  0.3435 -0.7510
  166SAPE   HN318659   5.048   6.141   5.579 -1.0285 -2.5075 -2.7454
  166SAPE   C1218660   5.108   5.959   5.661  0.5148  0.2840 -0.9881
  166SAPE  H12A18661   5.182   5.881   5.631  1.8185  0.9827  0.3381
  166SAPE  H12B18662   5.009   5.924   5.626  0.6617 -1.5322  0.3027
  166SAPE   C1118663   5.127   5.969   5.817  0.7520  0.4363  0.0877
  166SAPE  H11A18664   5.115   5.867   5.862  1.4990  1.0322  1.6743
  166SAPE  H11B18665   5.043   6.033   5.852  0.4425 -1.2241  2.5724
  166SAPE     P18666   5.385   5.984   5.879 -0.0346 -0.0113 -0.3387
  166SAPE   O1318667   5.405   5.855   5.808 -0.2050 -0.1894 -0.1344
  166SAPE   O1418668   5.499   6.081   5.859  0.6086  0.1651 -0.0715
  166SAPE   O1218669   5.245   6.045   5.843 -0.6993  0.5077  0.5006
  166SAPE   O1118670   5.377   5.952   6.032  0.1943  0.3032 -0.3213
  166SAPE    C118671   5.284   6.029   6.118  0.8605  0.1630  0.8266
  166SAPE    HA18672   5.296   6.136   6.090  2.4976  0.7808  3.6635
  166SAPE    HB18673   5.179   6.000   6.099  1.1507 -0.6224  0.3793
  166SAPE    C218674   5.315   6.020   6.272  1.0209  0.8788 -0.4412
  166SAPE    HS18675   5.258   6.095   6.331  0.9476 -0.2235  0.9095
  166SAPE   O2118676   5.452   6.031   6.311  0.4154  0.4719 -0.1008
  166SAPE   C2118677   5.513   6.144   6.283 -0.3050  1.1905  0.3959
  166SAPE   O2218678   5.464   6.244   6.233  0.0142 -0.0916  0.0935
  166SAPE   C2218679   5.660   6.126   6.337 -0.1101 -0.2822  0.2475
  166SAPE   H2R18680   5.641   6.109   6.445 -0.1134 -0.7332  0.1760
  166SAPE   H2S18681   5.699   6.035   6.286 -1.7322 -0.7859 -0.1026
  166SAPE    C318682   5.260   5.883   6.316 -0.4543 -0.9154  1.1988
  166SAPE    HX18683   5.336   5.803   6.304 -1.5995 -1.4676 -3.0081
  166SAPE    HY18684   5.179   5.861   6.244  0.4845 -0.4692 -0.0159
  166SAPE   O3118685   5.205   5.873   6.448  0.1321 -0.4525  0.4060
  166SAPE   C3118686   5.075   5.908   6.473  0.6741 -0.5991  0.0650
  166SAPE   O3218687   5.001   5.950   6.386 -0.0473  0.2633  0.5500
  166SAPE   C3218688   5.040   5.877   6.619  0.6798 -0.1581 -0.0874
  166SAPE   H2X18689   5.130   5.914   6.671 -1.0492  2.3581  1.1923
  166SAPE   H2Y18690   5.017   5.768   6.627  2.7859 -0.5295  0.9614
  166SAPE   C2318691   5.736   6.255   6.320 -0.4725  0.0651  0.0475
  166SAPE   H3R18692   5.667   6.342   6.322  1.5108  1.6647 -0.1137
  166SAPE   H3S18693   5.788   6.253   6.222  0.1062 -0.6378  0.3576
  166SAPE   C2418694   5.842   6.272   6.432 -0.6933  0.5457 -0.6130
  166SAPE   H4R18695   5.923   6.346   6.410  2.4609 -1.7618  2.6274
  166SAPE   H4S18696   5.893   6.173   6.436  0.4394  1.0853 -1.2924
  166SAPE   C2518697   5.792   6.312   6.572  0.6955 -0.0231 -0.0925
  166SAPE   H5R18698   5.725   6.399   6.573  1.0997  0.3005 -0.9358
  166SAPE   C2618699   5.822   6.251   6.687 -0.2738 -0.3168  0.4569
  166SAPE   H6R18700   5.786   6.283   6.785  0.9704 -1.5615  1.3395
  166SAPE   C2718701   5.912   6.130   6.687  0.6280  0.0782  0.1119
  166SAPE   H7R18702   5.864   6.047   6.631 -0.6577  1.1654 -0.4063
  166SAPE   H7S18703   5.909   6.087   6.790 -0.3447  1.2892  0.6013
  166SAPE   C2818704   6.058   6.138   6.644 -0.7663  0.3143 -0.2698
  166SAPE   H8R18705   6.101   6.239   6.632 -0.0752 -0.0042 -0.4863
  166SAPE   C2918706   6.131   6.025   6.610 -0.5011 -0.4429 -0.5235
  166SAPE   H9R18707   6.239   6.033   6.592 -0.2383 -3.0759 -0.2738
  166SAPE  C21018708   6.078   5.883   6.612 -0.0608  0.0224  0.0455
  166SAPE  H10R18709   6.146   5.823   6.549  0.4967  0.7443 -0.0533
  166SAPE  H10S18710   5.978   5.880   6.563 -0.9074 -2.2699  1.8270
  166SAPE  C21118711   6.071   5.836   6.760  0.3753 -0.1707 -0.3362
  166SAPE  H11R18712   5.969   5.823   6.801  0.7660 -1.6589  0.1868
  166SAPE  C21218713   6.172   5.798   6.838 -0.2130  0.1893 -0.2651
  166SAPE  H12R18714   6.165   5.773   6.945  4.3451  2.5043  0.6953
  166SAPE  C21318715   6.319   5.786   6.798  0.3236  0.2919  0.0001
  166SAPE  H13R18716   6.369   5.884   6.810 -2.0564  1.7891 -1.6973
  166SAPE  H13S18717   6.331   5.782   6.687 -0.9770  1.4907 -0.2062
  166SAPE  C21418718   6.395   5.680   6.880  0.3673  0.2408 -0.3648
  166SAPE  H14R18719   6.432   5.586   6.837  2.6353  1.2673 -0.7375
  166SAPE  C21518720   6.419   5.681   7.012  0.3969  0.2757  0.4814
  166SAPE  H15R18721   6.475   5.594   7.049  1.0927  0.3429 -0.3958
  166SAPE  C21618722   6.393   5.790   7.109  0.9625  0.3826 -0.0480
  166SAPE  H16R18723   6.325   5.759   7.191  0.3878 -1.0485 -1.0471
  166SAPE  H16S18724   6.363   5.886   7.062 -1.5715  0.2144  1.1445
  166SAPE  C21718725   6.526   5.814   7.194  0.0493  0.7254 -0.7299
  166SAPE  H17R18726   6.604   5.867   7.136  0.6318  0.2501 -0.3874
  166SAPE  H17S18727   6.564   5.721   7.240 -1.3766  1.2289  1.5547
  166SAPE  C21818728   6.497   5.908   7.315  0.3603 -0.3069 -0.1004
  166SAPE  H18R18729   6.437   5.849   7.387  0.7930 -1.1269 -0.4143
  166SAPE  H18S18730   6.440   5.990   7.267 -0.8550 -0.8771  0.3427
  166SAPE  C21918731   6.618   5.964   7.393 -0.7295 -0.0694 -0.2605
  166SAPE  H19R18732   6.684   6.014   7.319  1.8961 -0.6207  1.6386
  166SAPE  H19S18733   6.682   5.878   7.420  0.6695  1.3387  1.0480
  166SAPE  C22018734   6.583   6.056   7.512  0.6593  0.1439  0.2361
  166SAPE  H20R18735   6.671   6.081   7.575  0.3531 -0.9806  1.1325
  166SAPE  H20S18736   6.499   6.013   7.571  1.4926 -0.5534  0.9497
  166SAPE  H20T18737   6.545   6.154   7.478 -1.9560 -1.1300 -0.6238
  166SAPE   C3318738   4.913   5.947   6.671 -0.6572  0.7500 -0.1396
  166SAPE   H3X18739   4.866   5.881   6.748 -2.9599  0.5058 -1.7214
  166SAPE   H3Y18740   4.834   5.959   6.594 -0.7544 -0.2495 -0.2002
  166SAPE   C3418741   4.927   6.089   6.736 -0.0775  0.6760 -0.4082
  166SAPE   H4X18742   4.828   6.102   6.785  0.0287 -1.3389  0.3555
  166SAPE   H4Y18743   4.937   6.164   6.654  0.5004  1.0638  0.0099
  166SAPE   C3518744   5.042   6.121   6.834 -0.2497  0.1320 -1.0493
  166SAPE   H5X18745   5.037   6.227   6.869 -0.7969  0.6656 -2.6798
  166SAPE   H5Y18746   5.131   6.119   6.767 -1.3230  1.6653 -2.5805
  166SAPE   C3618747   5.051   6.025   6.953 -0.2133 -0.3631 -0.1813
  166SAPE   H6X18748   5.124   6.064   7.027 -1.9839  1.9744  0.4095
  166SAPE   H6Y18749   5.068   5.922   6.918 -0.9207 -0.2332 -0.9106
  166SAPE   C3718750   4.918   6.048   7.032  0.3976 -0.4379 -0.2819
  166SAPE   H7X18751   4.835   6.013   6.967  0.7414  2.0180 -2.1369
  166SAPE   H7Y18752   4.908   6.159   7.034  2.7674 -0.2034  3.3788
  166SAPE   C3818753   4.910   5.998   7.175  0.6065 -0.3641 -0.1069
  166SAPE   H8X18754   4.822   6.050   7.220 -1.2714 -2.2753 -1.4645
  166SAPE   H8Y18755   5.002   6.030   7.228  1.3927  0.7609 -2.1310
  166SAPE   C3918756   4.890   5.845   7.173  0.3765  0.5214  0.0147
  166SAPE   H9X18757   4.980   5.807   7.121  0.0986  0.1026 -0.1620
  166SAPE   H9Y18758   4.802   5.815   7.112  0.4224 -1.1913  0.7549
  166SAPE  C31018759   4.891   5.781   7.312  0.1001 -0.3757 -0.2101
  166SAPE  H10X18760   4.999   5.768   7.337  0.4241  0.7802 -0.9497
  166SAPE  H10Y18761   4.835   5.686   7.311 -2.0792  0.8833 -0.1986
  166SAPE  C31118762   4.831   5.870   7.419 -0.1539 -0.0135 -0.1024
  166SAPE  H11X18763   4.729   5.900   7.386  0.4389  1.7301 -0.4186
  166SAPE  H11Y18764   4.890   5.962   7.440  1.4427 -1.1530  0.4857
  166SAPE  C31218765   4.811   5.798   7.561 -0.4778 -0.1847 -0.5008
  166SAPE  H12X18766   4.896   5.727   7.573  1.2760  1.6710 -1.5057
  166SAPE  H12Y18767   4.721   5.733   7.569 -0.9162  0.5774  0.8457
  166SAPE  C31318768   4.802   5.897   7.678 -0.5880  0.3362  0.0239
  166SAPE  H13X18769   4.699   5.934   7.656 -0.4529 -0.5135 -2.1968
  166SAPE  H13Y18770   4.878   5.976   7.661  0.3701 -0.9865 -2.0388
  166SAPE  C31418771   4.817   5.831   7.815 -0.5435  0.5322 -0.5027
  166SAPE  H14X18772   4.773   5.912   7.876  1.1487 -0.0409  1.5477
  166SAPE  H14Y18773   4.924   5.812   7.839 -0.5232 -1.4764 -1.9957
  166SAPE  C31518774   4.728   5.703   7.828  0.0256  0.1210  1.0694
  166SAPE  H15X18775   4.759   5.622   7.759  1.1573  2.0777 -0.8085
  166SAPE  H15Y18776   4.624   5.735   7.809 -0.2177 -2.1780 -1.7853
  166SAPE  C31618777   4.738   5.635   7.967  0.2813 -0.1454 -0.4735
  166SAPE  H16X18778   4.840   5.603   7.997  0.1229 -0.1950  0.0148
  166SAPE  H16Y18779   4.672   5.546   7.969 -0.3975  0.3042 -1.9905
  166SAPE  C31718780   4.696   5.725   8.082  0.3156 -0.8994 -0.2548
  166SAPE  H17X18781   4.590   5.754   8.063  0.5438 -0.7051 -1.2654
  166SAPE  H17Y18782   4.760   5.816   8.079 -2.3320  1.1701  2.2727
  166SAPE  C31818783   4.728   5.669   8.227 -0.3324  0.0121 -0.0395
  166SAPE  H18X18784   4.673   5.574   8.245 -0.7730  0.0106 -1.3281
  166SAPE  H18Y18785   4.703   5.737   8.311  1.2496 -0.6788  1.0180
  166SAPE  H18Z18786   4.836   5.644   8.228 -0.6152 -1.3219 -0.6695
  167SAPE     N18787   0.255   5.635   6.126 -0.3765  0.2170 -0.2129
  167SAPE   HN118788   0.172   5.615   6.067  0.8118 -0.0440 -1.8506
  167SAPE   HN218789   0.279   5.730   6.089  1.2468 -0.8590 -2.0213
  167SAPE   HN318790   0.332   5.570   6.101 -1.9482 -2.9316  2.7657
  167SAPE   C1218791   0.232   5.641   6.271  0.2234 -1.1980 -0.1577
  167SAPE  H12A18792   0.156   5.719   6.290 -0.5420 -1.8814 -0.3712
  167SAPE  H12B18793   0.329   5.660   6.321 -1.2604  0.6402  2.1038
  167SAPE   C1118794   0.174   5.509   6.324  0.6813  1.1036 -0.0382
  167SAPE  H11A18795   0.142   5.512   6.430  1.5345  1.1590  0.2150
  167SAPE  H11B18796   0.252   5.431   6.313 -0.3173  0.2469 -1.2301
  167SAPE     P18797  -0.032   5.358   6.286  0.4870 -0.1197 -0.3902
  167SAPE   O1318798  -0.135   5.340   6.177 -0.5952  0.2702 -0.5179
  167SAPE   O1418799   0.062   5.247   6.315 -0.2732 -0.1786  0.3617
  167SAPE   O1218800   0.060   5.478   6.244  0.8345 -0.3718 -0.0944
  167SAPE   O1118801  -0.091   5.391   6.431 -0.9474 -0.3003  0.2954
  167SAPE    C118802  -0.205   5.478   6.437 -0.3699  0.2602 -0.3504
  167SAPE    HA18803  -0.178   5.585   6.426  2.0799  0.1388  3.6195
  167SAPE    HB18804  -0.282   5.458   6.358 -1.6457  0.3706  0.8376
  167SAPE    C218805  -0.270   5.486   6.585  1.1295  0.2650 -0.1806
  167SAPE    HS18806  -0.343   5.570   6.577  0.0917 -0.5725  0.3988
  167SAPE   O2118807  -0.172   5.521   6.692  0.6690  0.3061 -0.0316
  167SAPE   C2118808  -0.095   5.625   6.677 -0.0641  0.5568 -0.0194
  167SAPE   O2218809  -0.095   5.710   6.590  0.2120 -0.1857 -0.0970
  167SAPE   C2218810   0.004   5.621   6.791 -0.0671 -0.4888 -0.3035
  167SAPE   H2R18811  -0.007   5.524   6.844  2.1096 -0.7406 -0.2718
  167SAPE   H2S18812   0.109   5.611   6.757  0.7663  1.8082  1.4829
  167SAPE    C318813  -0.330   5.347   6.625 -0.6704  0.1708  0.2273
  167SAPE    HX18814  -0.257   5.274   6.583 -1.0780 -0.3118  0.3615
  167SAPE    HY18815  -0.421   5.347   6.562 -1.3274  0.4381  1.1716
  167SAPE   O3118816  -0.367   5.326   6.763  0.1116  0.5437 -0.4079
  167SAPE   C3118817  -0.276   5.260   6.829  1.0426 -0.5705 -0.5351
  167SAPE   O3218818  -0.162   5.244   6.790  0.3707 -0.5970 -0.2913
  167SAPE   C3218819  -0.347   5.207   6.956  0.6976 -0.8919 -0.2144
  167SAPE   H2X18820  -0.429   5.137   6.928 -0.1621 -0.0681  0.2046
  167SAPE   H2Y18821  -0.403   5.288   7.009  0.7666  0.5597 -2.3080
  167SAPE   C2318822  -0.013   5.736   6.891  0.2503 -0.3077  0.4827
  167SAPE   H3R18823  -0.062   5.703   6.985  0.9515 -0.9210  0.6434
  167SAPE   H3S18824  -0.095   5.793   6.842  0.5671 -0.0084  0.2922
  167SAPE   C2418825   0.103   5.820   6.924 -0.0205 -0.1030 -0.1463
  167SAPE   H4R18826   0.155   5.856   6.832  0.4862  0.1464  0.2386
  167SAPE   H4S18827   0.169   5.746   6.974 -2.3237 -2.5072 -0.5660
  167SAPE   C2518828   0.064   5.946   7.004  0.1084  0.4257 -0.7067
  167SAPE   H5R18829  -0.002   6.016   6.950  0.8860  2.4494  0.9113
  167SAPE   C2618830   0.111   5.984   7.126  0.1355  0.4596  0.2074
  167SAPE   H6R18831   0.085   6.084   7.163  0.5174  0.6958 -0.1617
  167SAPE   C2718832   0.211   5.910   7.203 -0.0487 -0.0251  0.1044
  167SAPE   H7R18833   0.297   5.979   7.197 -0.7183  0.7211 -1.2745
  167SAPE   H7S18834   0.240   5.814   7.154 -0.7506 -0.5178  0.6494
  167SAPE   C2818835   0.157   5.875   7.337  0.5777 -0.2867 -0.6421
  167SAPE   H8R18836   0.094   5.785   7.343  1.4932 -1.0346 -1.8832
  167SAPE   C2918837   0.186   5.931   7.451 -0.7493 -0.7259 -0.4339
  167SAPE   H9R18838   0.138   5.892   7.542  0.1202  2.7503  1.6184
  167SAPE  C21018839   0.266   6.054   7.488 -0.5828 -0.0586 -0.7770
  167SAPE  H10R18840   0.350   6.069   7.416  0.9351 -1.2753  0.6931
  167SAPE  H10S18841   0.319   6.028   7.582 -0.3719  0.3353 -0.7863
  167SAPE  C21118842   0.198   6.178   7.503  0.4339  0.1455 -0.5197
  167SAPE  H11R18843   0.098   6.173   7.458 -0.4625  0.7666  1.3377
  167SAPE  C21218844   0.249   6.286   7.553  0.2035  0.6572 -0.2070
  167SAPE  H12R18845   0.187   6.377   7.557 -3.2771 -1.6018 -0.9821
  167SAPE  C21318846   0.401   6.291   7.603  0.6009  0.2954 -0.0972
  167SAPE  H13R18847   0.458   6.218   7.542  2.2349 -0.6535  2.4473
  167SAPE  H13S18848   0.410   6.252   7.707 -0.3620 -1.4933 -0.6630
  167SAPE  C21418849   0.465   6.422   7.584 -0.9466 -0.2192 -0.3860
  167SAPE  H14R18850   0.500   6.435   7.480  0.2478  2.3602  0.3070
  167SAPE  C21518851   0.477   6.518   7.681  0.3090 -0.6903  0.4420
  167SAPE  H15R18852   0.528   6.615   7.672 -2.1599  0.6149  0.0642
  167SAPE  C21618853   0.423   6.501   7.823 -0.1750  0.1326  0.6079
  167SAPE  H16R18854   0.417   6.395   7.856 -1.4568  0.0269  0.0578
  167SAPE  H16S18855   0.322   6.546   7.824 -0.0614  0.3829  1.6392
  167SAPE  C21718856   0.494   6.593   7.923 -0.0053  0.1119 -0.3738
  167SAPE  H17R18857   0.503   6.692   7.872 -1.1687  0.1921 -0.4291
  167SAPE  H17S18858   0.597   6.551   7.927 -0.1299 -0.1876 -0.3044
  167SAPE  C21818859   0.430   6.603   8.057 -0.0309  0.2530  0.7956
  167SAPE  H18R18860   0.324   6.630   8.038 -0.3485 -1.6311 -0.2504
  167SAPE  H18S18861   0.475   6.690   8.109  0.4053  0.1966  0.5143
  167SAPE  C21918862   0.435   6.474   8.139 -0.5197  0.4374  0.5827
  167SAPE  H19R18863   0.540   6.456   8.171 -0.5528 -2.5031 -0.8022
  167SAPE  H19S18864   0.407   6.383   8.082  2.2508 -0.1808  0.1184
  167SAPE  C22018865   0.342   6.467   8.265 -0.7213  0.1436  0.3317
  167SAPE  H20R18866   0.382   6.539   8.339 -2.5093  0.4066  1.0809
  167SAPE  H20S18867   0.334   6.362   8.301 -1.0808 -0.3675 -1.1960
  167SAPE  H20T18868   0.243   6.504   8.230  0.6852  2.1623 -1.6201
  167SAPE   C3318869  -0.249   5.152   7.058 -0.5720 -0.0352 -0.5314
  167SAPE   H3X18870  -0.198   5.064   7.014 -1.0740 -0.7675  0.3285
  167SAPE   H3Y18871  -0.309   5.106   7.139  0.0514 -1.1300 -0.6770
  167SAPE   C3418872  -0.154   5.251   7.120  0.4354 -0.2177  0.4530
  167SAPE   H4X18873  -0.113   5.307   7.033  0.6907 -2.9758 -1.2585
  167SAPE   H4Y18874  -0.070   5.202   7.175  0.8411 -0.4280 -0.3523
  167SAPE   C3518875  -0.228   5.339   7.224 -0.3900  0.2042 -0.6763
  167SAPE   H5X18876  -0.298   5.274   7.281 -1.1315  0.9695 -0.6984
  167SAPE   H5Y18877  -0.293   5.405   7.162  0.5647  0.2562 -1.6313
  167SAPE   C3618878  -0.130   5.416   7.308  0.2915 -0.3877 -0.8410
  167SAPE   H6X18879  -0.066   5.477   7.241  1.3171  1.3025  1.6189
  167SAPE   H6Y18880  -0.058   5.341   7.347  0.6379  0.1666 -0.4296
  167SAPE   C3718881  -0.215   5.496   7.415 -0.7659  0.4438 -0.2871
  167SAPE   H7X18882  -0.270   5.413   7.463  2.0167 -0.6636  1.1055
  167SAPE   H7Y18883  -0.288   5.562   7.364 -0.5888  0.4228 -0.5707
  167SAPE   C3818884  -0.140   5.576   7.517 -0.2132  0.3135  0.4414
  167SAPE   H8X18885  -0.064   5.637   7.463 -1.4538  0.9959 -0.5407
  167SAPE   H8Y18886  -0.064   5.513   7.569  1.2913  2.8561  1.4274
  167SAPE   C3918887  -0.221   5.652   7.626 -0.8898  0.3694 -0.3304
  167SAPE   H9X18888  -0.280   5.573   7.678  0.3888 -1.4963 -1.6120
  167SAPE   H9Y18889  -0.294   5.732   7.604  0.4682  2.7534  3.3189
  167SAPE  C31018890  -0.121   5.710   7.727  0.1572 -0.1860 -0.4395
  167SAPE  H10X18891  -0.042   5.770   7.676  0.4412  1.8210  2.2211
  167SAPE  H10Y18892  -0.068   5.619   7.762  1.9479  0.3607 -1.6374
  167SAPE  C31118893  -0.190   5.789   7.840 -0.3550  0.9722  0.2496
  167SAPE  H11X18894  -0.281   5.830   7.792 -0.8288  0.2049  0.4800
  167SAPE  H11Y18895  -0.123   5.870   7.877 -1.5005  1.9340  0.2585
  167SAPE  C31218896  -0.245   5.714   7.961 -0.6845 -0.7769 -0.2929
  167SAPE  H12X18897  -0.161   5.685   8.027  0.1763  0.8352 -0.6562
  167SAPE  H12Y18898  -0.303   5.624   7.934 -0.8795 -0.2512 -1.6811
  167SAPE  C31318899  -0.351   5.803   8.033  0.2009  0.4316 -0.5959
  167SAPE  H13X18900  -0.435   5.835   7.968 -2.6177  0.6812  3.0317
  167SAPE  H13Y18901  -0.303   5.899   8.062  2.8178 -1.2134  0.7059
  167SAPE  C31418902  -0.408   5.734   8.159 -0.6767  0.1041  0.8159
  167SAPE  H14X18903  -0.328   5.722   8.234 -0.7199  2.9745  1.3786
  167SAPE  H14Y18904  -0.439   5.631   8.131  0.2161 -0.2425  1.0899
  167SAPE  C31518905  -0.524   5.814   8.220  0.0505 -0.1586 -0.0755
  167SAPE  H15X18906  -0.603   5.792   8.145  0.8957  1.1240 -1.3641
  167SAPE  H15Y18907  -0.510   5.924   8.218 -2.8660  0.2778  0.8775
  167SAPE  C31618908  -0.576   5.754   8.353 -0.6453 -0.1460  0.4605
  167SAPE  H16X18909  -0.525   5.805   8.438 -0.6654  1.9448 -0.7467
  167SAPE  H16Y18910  -0.542   5.649   8.365  0.8415  0.5105  2.1573
  167SAPE  C31718911  -0.721   5.754   8.374 -0.2754 -0.0843  0.8036
  167SAPE  H17X18912  -0.741   5.719   8.478  0.0147  0.2762  0.9824
  167SAPE  H17Y18913  -0.775   5.680   8.311  0.4118  0.0664  0.0300
  167SAPE  C31818914  -0.786   5.892   8.359 -0.0556  0.3416 -0.0357
  167SAPE  H18X18915  -0.737   5.963   8.429  0.4094  0.7291 -0.7513
  167SAPE  H18Y18916  -0.891   5.888   8.395  0.1108  0.1779  0.4506
  167SAPE  H18Z18917  -0.779   5.938   8.258  0.0022 -0.9869 -0.6417
  168SAPE     N18918   1.782   0.491   6.364  0.3870 -0.0272  0.0412
  168SAPE   HN118919   1.783   0.536   6.270  1.8258  0.9716  0.5072
  168SAPE   HN218920   1.823   0.397   6.350  1.0119  0.5697 -2.2423
  168SAPE   HN318921   1.691   0.485   6.413 -0.7857  1.3530 -1.8737
  168SAPE   C1218922   1.860   0.578   6.457  0.0437  0.4155  0.1808
  168SAPE  H12A18923   1.914   0.661   6.408  0.4054 -0.4539 -0.9162
  168SAPE  H12B18924   1.941   0.513   6.497 -0.4570 -0.1597  0.2679
  168SAPE   C1118925   1.768   0.626   6.582  0.3015  0.6000  0.3886
  168SAPE  H11A18926   1.824   0.685   6.658 -1.7004  0.3221  2.1589
  168SAPE  H11B18927   1.737   0.530   6.628 -0.1378  0.3058 -0.5095
  168SAPE     P18928   1.619   0.838   6.546  0.0116  0.0711  0.0563
  168SAPE   O1318929   1.731   0.909   6.479 -0.3470  0.2971 -0.0741
  168SAPE   O1418930   1.483   0.882   6.509 -0.6550  0.2157  0.1776
  168SAPE   O1218931   1.643   0.683   6.538  0.4473  0.0701 -0.1198
  168SAPE   O1118932   1.641   0.854   6.703 -0.2230  0.2752  0.2067
  168SAPE    C118933   1.565   0.767   6.789  0.1473 -0.4250  0.6390
  168SAPE    HA18934   1.542   0.671   6.739 -1.3908  1.0173 -1.4918
  168SAPE    HB18935   1.622   0.744   6.881  0.5027 -1.9511  0.0559
  168SAPE    C218936   1.435   0.839   6.840  0.0335 -0.8503  0.4504
  168SAPE    HS18937   1.370   0.868   6.754  0.4942 -0.0125  0.3834
  168SAPE   O2118938   1.475   0.946   6.925 -0.6208 -0.1809 -0.5623
  168SAPE   C2118939   1.412   1.060   6.914  0.2979 -0.0095  0.4191
  168SAPE   O2218940   1.326   1.084   6.832  0.2528 -0.0802 -0.5308
  168SAPE   C2218941   1.453   1.150   7.026 -0.0055  1.2288 -0.4857
  168SAPE   H2R18942   1.394   1.115   7.114  0.4430  0.2773 -0.5609
  168SAPE   H2S18943   1.562   1.130   7.038 -0.5332 -2.9510 -1.8038
  168SAPE    C318944   1.345   0.733   6.913 -1.0048  0.6016  0.5086
  168SAPE    HX18945   1.350   0.643   6.847 -0.6250  1.1733 -0.2449
  168SAPE    HY18946   1.238   0.764   6.919 -0.8567  1.7983 -2.3907
  168SAPE   O3118947   1.398   0.700   7.040 -0.3488 -0.0725 -0.7829
  168SAPE   C3118948   1.347   0.774   7.137 -0.1695  0.4410  0.3020
  168SAPE   O3218949   1.251   0.850   7.131 -0.5291 -0.7091  0.0143
  168SAPE   C3218950   1.451   0.769   7.254  0.1408  0.2882  0.2911
  168SAPE   H2X18951   1.548   0.793   7.205  0.2764 -2.2009 -0.7230
  168SAPE   H2Y18952   1.445   0.665   7.291  1.3843  1.2472  3.3201
  168SAPE   C2318953   1.413   1.297   7.008 -0.0389  0.3826  0.4658
  168SAPE   H3R18954   1.336   1.301   6.929 -0.0575  1.0149  0.5086
  168SAPE   H3S18955   1.497   1.360   6.970  1.4771 -1.7475  0.2333
  168SAPE   C2418956   1.359   1.374   7.132  0.3044  0.5291 -0.0833
  168SAPE   H4R18957   1.279   1.309   7.174  2.0084 -2.4745 -1.3010
  168SAPE   H4S18958   1.319   1.473   7.101  2.3298  1.3089 -0.2369
  168SAPE   C2518959   1.470   1.401   7.224 -0.5016 -0.1094 -0.5029
  168SAPE   H5R18960   1.562   1.438   7.175  0.4195 -0.9153  0.5711
  168SAPE   C2618961   1.473   1.385   7.354  0.1679 -0.4107 -0.1444
  168SAPE   H6R18962   1.559   1.425   7.410 -0.6589 -0.1803  0.9918
  168SAPE   C2718963   1.352   1.343   7.433  0.0023 -0.0411 -0.4939
  168SAPE   H7R18964   1.356   1.233   7.445 -3.1802 -0.0953  0.4684
  168SAPE   H7S18965   1.260   1.353   7.372 -0.1508  2.0407  0.0334
  168SAPE   C2818966   1.332   1.413   7.567 -0.6038 -0.1783  0.1064
  168SAPE   H8R18967   1.284   1.512   7.567  0.1085  0.1856  2.0959
  168SAPE   C2918968   1.385   1.381   7.688 -0.0189  0.1560  0.4967
  168SAPE   H9R18969   1.353   1.439   7.776  1.1243  1.5604 -0.0045
  168SAPE  C21018970   1.479   1.260   7.716  0.5128 -0.1497  0.3772
  168SAPE  H10R18971   1.550   1.294   7.794  1.1229 -0.2878 -0.1183
  168SAPE  H10S18972   1.549   1.241   7.632  0.9135 -0.0377  0.6831
  168SAPE  C21118973   1.405   1.127   7.744 -0.8433  0.0291  0.7274
  168SAPE  H11R18974   1.374   1.076   7.651 -2.2060 -0.5475  1.4840
  168SAPE  C21218975   1.386   1.065   7.862  0.0655 -0.2545 -0.5738
  168SAPE  H12R18976   1.340   0.965   7.864 -1.6939  0.5423 -0.2250
  168SAPE  C21318977   1.434   1.115   7.996 -0.0442  0.7398  0.1388
  168SAPE  H13R18978   1.482   1.214   7.988 -0.3274  0.9607  1.1499
  168SAPE  H13S18979   1.518   1.045   8.018  0.0293  0.3915 -1.2047
  168SAPE  C21418980   1.333   1.122   8.102  0.8287  0.6141  0.1574
  168SAPE  H14R18981   1.342   1.036   8.170 -2.1915  0.1111 -0.0364
  168SAPE  C21518982   1.240   1.215   8.120  0.1107 -0.1562  0.2425
  168SAPE  H15R18983   1.170   1.211   8.205  0.1092  2.3144  0.3993
  168SAPE  C21618984   1.214   1.334   8.032 -0.1102 -0.7914 -0.6038
  168SAPE  H16R18985   1.163   1.295   7.942  0.4062  1.5473 -1.9364
  168SAPE  H16S18986   1.305   1.369   7.979  0.5470  0.1288  1.0940
  168SAPE  C21718987   1.148   1.459   8.096  0.0459 -0.0245 -0.0297
  168SAPE  H17R18988   1.160   1.548   8.030  0.6607  0.3816  0.6287
  168SAPE  H17S18989   1.217   1.477   8.181  0.3714  0.3896 -0.3824
  168SAPE  C21818990   1.002   1.441   8.139  0.2058 -0.5086  0.1968
  168SAPE  H18R18991   0.994   1.360   8.214  0.9202 -1.0591 -0.3028
  168SAPE  H18S18992   0.943   1.411   8.050  0.3024 -3.0701  0.9596
  168SAPE  C21918993   0.928   1.559   8.202  0.2483 -0.5594 -1.0325
  168SAPE  H19R18994   0.828   1.516   8.225  0.0550  0.4620  0.0635
  168SAPE  H19S18995   0.905   1.640   8.129 -1.5192  0.7582  0.9178
  168SAPE  C22018996   0.986   1.618   8.335  0.1242  0.5480 -0.1174
  168SAPE  H20R18997   0.914   1.684   8.389  2.1560  2.4754  0.3159
  168SAPE  H20S18998   1.078   1.676   8.315  0.7422 -0.3991 -0.0062
  168SAPE  H20T18999   1.018   1.529   8.393  0.0727  0.7945  0.2930
  168SAPE   C3319000   1.421   0.870   7.364 -0.0126 -0.0934  0.2868
  168SAPE   H3X19001   1.317   0.873   7.402 -0.0674 -1.8582  0.3102
  168SAPE   H3Y19002   1.433   0.968   7.313 -2.0350  0.1699  0.2852
  168SAPE   C3419003   1.514   0.842   7.483 -0.8011  0.8846  0.3300
  168SAPE   H4X19004   1.522   0.941   7.532  2.0038  0.0498  1.6689
  168SAPE   H4Y19005   1.616   0.805   7.462 -0.4622  2.2280 -0.4303
  168SAPE   C3519006   1.448   0.740   7.573  0.5958  0.0069  0.8046
  168SAPE   H5X19007   1.415   0.646   7.524  1.9626 -0.4411  0.7418
  168SAPE   H5Y19008   1.353   0.785   7.610  1.6502  3.1625 -0.2177
  168SAPE   C3619009   1.525   0.708   7.699  0.1066  0.5154 -0.0903
  168SAPE   H6X19010   1.539   0.802   7.758  2.3901  0.1939 -0.0889
  168SAPE   H6Y19011   1.626   0.666   7.680  0.8475  1.5915  1.3653
  168SAPE   C3719012   1.423   0.631   7.800 -0.6878  0.1677 -0.0057
  168SAPE   H7X19013   1.401   0.530   7.760 -0.9501 -0.7275  2.3320
  168SAPE   H7Y19014   1.338   0.702   7.811 -0.5313  0.3927 -0.2414
  168SAPE   C3819015   1.482   0.608   7.935  0.3681 -0.2677  0.2044
  168SAPE   H8X19016   1.572   0.546   7.914  0.4913  0.6993 -2.2697
  168SAPE   H8Y19017   1.405   0.551   7.991 -1.5554  1.5991 -0.4650
  168SAPE   C3919018   1.528   0.737   8.016  0.4030  0.1531 -0.0403
  168SAPE   H9X19019   1.437   0.784   8.057  0.9382  0.1186  1.1932
  168SAPE   H9Y19020   1.578   0.804   7.943  0.9883  1.8284  1.8789
  168SAPE  C31019021   1.621   0.697   8.126  0.0930  0.4148  0.3006
  168SAPE  H10X19022   1.701   0.631   8.084 -0.4942 -0.4177  0.4712
  168SAPE  H10Y19023   1.564   0.631   8.195 -1.5958 -0.9701 -2.2946
  168SAPE  C31119024   1.677   0.811   8.198 -0.1978 -0.5676 -0.2019
  168SAPE  H11X19025   1.598   0.860   8.259 -0.7647 -0.6871 -0.8412
  168SAPE  H11Y19026   1.719   0.885   8.126  2.1759  0.0316  1.7131
  168SAPE  C31219027   1.785   0.776   8.301  0.2170  0.0093  0.1245
  168SAPE  H12X19028   1.765   0.690   8.368 -2.3952  0.2731 -0.2933
  168SAPE  H12Y19029   1.796   0.865   8.366  0.9403  0.4069 -0.5343
  168SAPE  C31319030   1.919   0.756   8.238 -0.1464  0.1187 -0.1565
  168SAPE  H13X19031   1.945   0.852   8.188  0.6723 -0.1209 -0.1978
  168SAPE  H13Y19032   1.907   0.677   8.162  0.3753 -0.2055  0.0956
  168SAPE  C31419033   2.036   0.733   8.333  0.6770 -0.3562  0.0300
  168SAPE  H14X19034   2.128   0.710   8.274  1.3655  3.1302 -0.3994
  168SAPE  H14Y19035   1.995   0.661   8.407 -0.7627  1.1563  0.7333
  168SAPE  C31519036   2.066   0.868   8.410  0.2260  0.2977 -0.2738
  168SAPE  H15X19037   1.981   0.889   8.479  1.5585 -1.4627  2.0051
  168SAPE  H15Y19038   2.072   0.950   8.336 -0.8926 -0.4205 -1.1756
  168SAPE  C31619039   2.190   0.855   8.496 -0.9377  0.0094  0.4334
  168SAPE  H16X19040   2.279   0.865   8.431 -2.0749 -2.6396 -1.6331
  168SAPE  H16Y19041   2.190   0.759   8.552 -3.6801  1.0506  2.3033
  168SAPE  C31719042   2.193   0.966   8.601  0.4425 -0.0122 -0.3550
  168SAPE  H17X19043   2.102   0.972   8.664  0.7563  0.9045  0.0063
  168SAPE  H17Y19044   2.200   1.056   8.537 -0.3474 -0.3785 -0.9683
  168SAPE  C31819045   2.314   0.966   8.699  0.1858  0.1694 -0.0360
  168SAPE  H18X19046   2.318   1.055   8.764 -0.6437 -0.0553  0.3360
  168SAPE  H18Y19047   2.405   0.956   8.637 -0.1203 -0.7858 -0.3465
  168SAPE  H18Z19048   2.306   0.872   8.758 -1.4916  0.1905 -0.1980
  169SAPE     N19049   1.487   2.485   6.323 -0.3591  0.0904  0.5843
  169SAPE   HN119050   1.528   2.470   6.228  0.3494  0.5200  0.8231
  169SAPE   HN219051   1.536   2.428   6.394 -0.3163  0.2850  0.7087
  169SAPE   HN319052   1.387   2.456   6.312 -0.3430  0.7267 -1.4162
  169SAPE   C1219053   1.503   2.627   6.360  0.2899  0.3641  0.1539
  169SAPE  H12A19054   1.470   2.700   6.282  2.8333  1.1591 -0.2276
  169SAPE  H12B19055   1.613   2.641   6.369  0.7471 -1.2357 -2.2838
  169SAPE   C1119056   1.422   2.650   6.490  0.2447 -0.3202 -0.4919
  169SAPE  H11A19057   1.441   2.753   6.528 -0.9268 -0.7041  1.1898
  169SAPE  H11B19058   1.447   2.587   6.578 -1.0832 -0.9261 -0.5438
  169SAPE     P19059   1.191   2.759   6.419  0.3732  0.1131 -0.3313
  169SAPE   O1319060   1.276   2.866   6.357 -0.6836  0.4019 -0.1339
  169SAPE   O1419061   1.086   2.710   6.325  0.6223  0.0814 -0.8003
  169SAPE   O1219062   1.279   2.635   6.466  0.2828 -0.2199  0.1708
  169SAPE   O1119063   1.126   2.824   6.557 -0.0411  0.0226  0.1095
  169SAPE    C119064   1.130   2.744   6.675 -1.0250  0.2060 -0.6515
  169SAPE    HA19065   1.153   2.639   6.647 -0.2452  0.7585 -2.1596
  169SAPE    HB19066   1.200   2.782   6.752 -0.7326  0.3385 -0.9833
  169SAPE    C219067   0.996   2.742   6.753  1.6893  0.4112  0.4851
  169SAPE    HS19068   0.979   2.848   6.781 -0.9501 -0.0733  0.7958
  169SAPE   O2119069   1.001   2.657   6.868 -0.2236  0.6744  0.3485
  169SAPE   C2119070   0.915   2.691   6.961 -0.1655  0.1115 -0.0539
  169SAPE   O2219071   0.855   2.798   6.968 -0.9520  0.1350 -0.0630
  169SAPE   C2219072   0.910   2.592   7.072 -0.1793 -0.7279  0.1164
  169SAPE   H2R19073   0.839   2.627   7.149 -0.2314 -0.2030 -0.1702
  169SAPE   H2S19074   0.871   2.499   7.026  4.2491 -1.7523 -1.9074
  169SAPE    C319075   0.883   2.683   6.657 -0.9593 -0.0015 -0.8225
  169SAPE    HX19076   0.909   2.578   6.631 -0.1103  0.1578 -0.6284
  169SAPE    HY19077   0.883   2.742   6.562  0.2132  1.6363  0.1634
  169SAPE   O3119078   0.757   2.678   6.726 -0.3882 -0.0439 -0.6137
  169SAPE   C3119079   0.683   2.793   6.723  0.5455 -0.4007  0.1330
  169SAPE   O3219080   0.713   2.902   6.686 -0.2035  0.0584  0.3024
  169SAPE   C3219081   0.533   2.765   6.764 -0.2206 -0.3349 -0.1232
  169SAPE   H2X19082   0.507   2.671   6.710  1.9810 -1.1113  0.0958
  169SAPE   H2Y19083   0.476   2.850   6.722 -1.3094 -0.4459  1.1098
  169SAPE   C2319084   1.043   2.565   7.131  0.2777 -0.2845 -0.0669
  169SAPE   H3R19085   1.118   2.534   7.055  0.2947  0.4820 -0.3739
  169SAPE   H3S19086   1.035   2.477   7.198 -3.7194  1.4782  1.9720
  169SAPE   C2419087   1.104   2.678   7.211  0.3915 -0.6159 -0.4001
  169SAPE   H4R19088   1.039   2.709   7.295 -2.2089  0.6211 -2.7687
  169SAPE   H4S19089   1.107   2.778   7.163 -2.6331  0.2461  1.0947
  169SAPE   C2519090   1.242   2.653   7.267  0.0738  0.6027  0.1765
  169SAPE   H5R19091   1.315   2.652   7.185  1.0897 -3.0906  1.0450
  169SAPE   C2619092   1.267   2.596   7.382  0.8874 -0.3081 -0.0132
  169SAPE   H6R19093   1.370   2.568   7.409  0.8480  2.4044  3.3832
  169SAPE   C2719094   1.161   2.559   7.493  0.1630 -0.3692  0.3821
  169SAPE   H7R19095   1.168   2.450   7.514 -0.8430 -0.4915  0.0850
  169SAPE   H7S19096   1.057   2.572   7.456  0.1238  0.6368  0.8236
  169SAPE   C2819097   1.173   2.627   7.622 -0.8542 -0.4589 -0.4785
  169SAPE   H8R19098   1.109   2.714   7.642 -1.5553 -1.2637  0.8534
  169SAPE   C2919099   1.252   2.602   7.728 -0.9156  0.7275 -0.4913
  169SAPE   H9R19100   1.245   2.655   7.824 -1.2215 -1.8936  0.9669
  169SAPE  C21019101   1.348   2.483   7.742 -0.6434 -0.5556 -0.2236
  169SAPE  H10R19102   1.439   2.517   7.795 -2.2004 -0.9396  2.8182
  169SAPE  H10S19103   1.400   2.458   7.647 -2.6431 -1.2531 -1.1575
  169SAPE  C21119104   1.292   2.362   7.808 -0.0250 -0.5843  0.6350
  169SAPE  H11R19105   1.209   2.315   7.752  0.8705  0.1981 -1.3877
  169SAPE  C21219106   1.339   2.305   7.920  0.0724 -0.8348 -0.6696
  169SAPE  H12R19107   1.283   2.228   7.976  1.7881 -1.2811  0.5061
  169SAPE  C21319108   1.460   2.357   7.996  0.0922 -0.0933  0.1315
  169SAPE  H13R19109   1.466   2.316   8.099  0.6701  0.8415  0.4740
  169SAPE  H13S19110   1.444   2.463   8.023 -0.4956 -0.4033  1.0195
  169SAPE  C21419111   1.595   2.335   7.929  0.5198 -0.0188 -0.0807
  169SAPE  H14R19112   1.590   2.304   7.824 -0.9672  2.5112 -0.8035
  169SAPE  C21519113   1.713   2.379   7.986 -0.2432 -0.3087  0.1054
  169SAPE  H15R19114   1.800   2.363   7.921  0.0808  1.1174  0.1639
  169SAPE  C21619115   1.730   2.441   8.111  0.1580  0.3529 -0.0351
  169SAPE  H16R19116   1.815   2.392   8.165 -0.5136  0.9794  1.6137
  169SAPE  H16S19117   1.640   2.425   8.173 -0.3061 -1.7150 -1.1954
  169SAPE  C21719118   1.756   2.591   8.104  0.1546 -0.1147 -0.9830
  169SAPE  H17R19119   1.669   2.626   8.044 -0.4492  1.3512  0.7381
  169SAPE  H17S19120   1.851   2.639   8.073  0.1733 -0.8880 -2.1924
  169SAPE  C21819121   1.755   2.662   8.242  0.2575  0.0060 -0.5655
  169SAPE  H18R19122   1.852   2.648   8.295  1.6932 -1.3350 -3.3956
  169SAPE  H18S19123   1.687   2.605   8.308 -2.1168  2.4758 -0.8028
  169SAPE  C21919124   1.708   2.814   8.238 -0.0772 -0.2783 -0.2423
  169SAPE  H19R19125   1.651   2.828   8.145  0.2242 -0.8469 -0.5174
  169SAPE  H19S19126   1.795   2.883   8.229 -2.2049  2.4802 -0.2120
  169SAPE  C22019127   1.623   2.860   8.361 -0.0305 -0.3623 -0.5765
  169SAPE  H20R19128   1.666   2.847   8.462  1.5019  1.0996 -1.0274
  169SAPE  H20S19129   1.524   2.809   8.356 -1.1909  1.8481 -0.6690
  169SAPE  H20T19130   1.590   2.965   8.348  1.5533  0.2103 -0.0441
  169SAPE   C3319131   0.512   2.744   6.918  0.4360  0.3960  0.1684
  169SAPE   H3X19132   0.575   2.667   6.968  2.3798  0.8419 -1.5576
  169SAPE   H3Y19133   0.405   2.714   6.922 -0.2411  1.9577 -3.7560
  169SAPE   C3419134   0.526   2.879   6.991 -0.4870 -0.3634  0.3049
  169SAPE   H4X19135   0.471   2.964   6.944  1.2364 -0.0998 -1.3026
  169SAPE   H4Y19136   0.633   2.911   6.987 -0.7520  0.4894 -0.1679
  169SAPE   C3519137   0.478   2.874   7.139 -0.2649  0.7097 -0.1724
  169SAPE   H5X19138   0.374   2.837   7.151 -0.5729  1.7380  0.3697
  169SAPE   H5Y19139   0.482   2.979   7.176 -0.4420  0.8479 -0.5420
  169SAPE   C3619140   0.579   2.796   7.216 -0.0478 -0.1226  0.4722
  169SAPE   H6X19141   0.677   2.818   7.170  0.3234  0.0434  1.3391
  169SAPE   H6Y19142   0.561   2.687   7.209  0.1116 -0.2388  1.6413
  169SAPE   C3719143   0.575   2.836   7.361 -0.5254 -0.3904  0.2505
  169SAPE   H7X19144   0.479   2.798   7.401  0.8652 -3.5803  0.7832
  169SAPE   H7Y19145   0.575   2.946   7.374  1.0858 -0.6646  2.9357
  169SAPE   C3819146   0.704   2.789   7.419 -0.5557  0.1529 -0.1670
  169SAPE   H8X19147   0.795   2.824   7.366  0.7160 -2.4963  0.1759
  169SAPE   H8Y19148   0.717   2.678   7.418  2.1475  0.4291  0.2175
  169SAPE   C3919149   0.698   2.835   7.566 -0.1525 -0.8935 -0.4253
  169SAPE   H9X19150   0.624   2.775   7.623  1.1761 -0.9454  1.2574
  169SAPE   H9Y19151   0.659   2.939   7.556 -0.1967 -0.9241 -0.5787
  169SAPE  C31019152   0.832   2.832   7.636 -0.1330  0.3061 -0.6387
  169SAPE  H10X19153   0.905   2.889   7.575 -0.7852  2.0422  0.1373
  169SAPE  H10Y19154   0.878   2.731   7.640  1.7831  1.1807 -0.1535
  169SAPE  C31119155   0.830   2.894   7.776 -0.4839  0.4388 -0.5027
  169SAPE  H11X19156   0.738   2.851   7.822  0.1845 -0.4695  0.0168
  169SAPE  H11Y19157   0.826   3.004   7.766  1.4914  0.5204 -0.6848
  169SAPE  C31219158   0.946   2.843   7.861  0.3801  0.6389  0.3548
  169SAPE  H12X19159   1.040   2.856   7.802  0.2004 -0.8123 -0.2816
  169SAPE  H12Y19160   0.930   2.736   7.886 -0.1807  1.0293  1.6990
  169SAPE  C31319161   0.982   2.920   7.984 -0.4348  0.8650 -0.3969
  169SAPE  H13X19162   0.905   2.923   8.064 -1.5539  0.7389 -1.4644
  169SAPE  H13Y19163   1.014   3.025   7.963  2.8190  0.1246  0.5049
  169SAPE  C31419164   1.104   2.862   8.057 -0.5778 -0.0640 -0.5385
  169SAPE  H14X19165   1.123   2.928   8.145 -1.4435  0.7552 -0.9515
  169SAPE  H14Y19166   1.198   2.862   7.999 -1.0473 -0.2739 -1.3088
  169SAPE  C31519167   1.087   2.718   8.101  0.3316  0.0762  0.5098
  169SAPE  H15X19168   1.131   2.665   8.014 -0.5873  1.1404 -0.6340
  169SAPE  H15Y19169   0.978   2.698   8.111  0.2150 -0.3270 -1.4019
  169SAPE  C31619170   1.151   2.682   8.233  0.7787  0.2627  0.1730
  169SAPE  H16X19171   1.078   2.713   8.312  0.1880  1.7749 -0.9474
  169SAPE  H16Y19172   1.251   2.730   8.236  0.3471  1.1466  0.5829
  169SAPE  C31719173   1.150   2.528   8.244  0.3663 -0.9740  0.0800
  169SAPE  H17X19174   1.213   2.489   8.161 -0.5361  1.6745 -1.8967
  169SAPE  H17Y19175   1.042   2.503   8.238  0.2533 -0.3224 -0.7879
  169SAPE  C31819176   1.208   2.465   8.368  0.1722 -0.2106  0.4258
  169SAPE  H18X19177   1.295   2.527   8.400  1.3426 -0.9677 -1.1868
  169SAPE  H18Y19178   1.244   2.361   8.353  0.5721 -0.1682  1.0585
  169SAPE  H18Z19179   1.132   2.478   8.448  1.4371  0.2370  1.5784
  170SAPE     N19180   1.203   0.007   5.808  1.1305  0.3027  0.2953
  170SAPE   HN119181   1.115   0.029   5.859  0.3899  0.6301 -1.1035
  170SAPE   HN219182   1.259   0.095   5.811  1.8000 -0.1375  0.8835
  170SAPE   HN319183   1.181  -0.009   5.708 -1.5852  1.8495  0.5997
  170SAPE   C1219184   1.272  -0.110   5.871  0.8898 -0.1962 -0.1492
  170SAPE  H12A19185   1.379  -0.079   5.868  0.3365  1.8116  0.4350
  170SAPE  H12B19186   1.258  -0.203   5.811 -1.0398  0.4964 -0.7879
  170SAPE   C1119187   1.239  -0.131   6.022 -0.2017  0.2582  0.0098
  170SAPE  H11A19188   1.156  -0.204   6.033 -0.0641  0.3156  1.6270
  170SAPE  H11B19189   1.211  -0.031   6.061  1.3324  0.6443  0.1516
  170SAPE     P19190   1.437  -0.115   6.201 -0.2679  0.1460 -0.1516
  170SAPE   O1319191   1.562  -0.193   6.219 -0.1540  0.0562  0.0528
  170SAPE   O1419192   1.437   0.030   6.170  0.2031 -0.5387  0.3513
  170SAPE   O1219193   1.344  -0.192   6.093  0.4513  0.1086 -0.2294
  170SAPE   O1119194   1.349  -0.131   6.332  0.0991  0.8362 -0.5663
  170SAPE    C119195   1.379  -0.066   6.457  0.7132 -0.1802 -0.1012
  170SAPE    HA19196   1.360  -0.142   6.536  1.9576 -2.1237 -1.6228
  170SAPE    HB19197   1.487  -0.039   6.467  0.5716  1.1575 -1.8537
  170SAPE    C219198   1.298   0.064   6.481 -0.7636 -0.2672  0.8350
  170SAPE    HS19199   1.336   0.145   6.416  0.4092  0.0162  1.8511
  170SAPE   O2119200   1.322   0.107   6.622  0.1002  0.2944  0.6563
  170SAPE   C2119201   1.281   0.228   6.644  0.1494  0.4578  0.8558
  170SAPE   O2219202   1.257   0.302   6.554 -0.0780  0.6018  0.4131
  170SAPE   C2219203   1.275   0.258   6.792 -0.2241  0.1820  0.1459
  170SAPE   H2R19204   1.258   0.368   6.803 -2.0668 -0.1875  1.3663
  170SAPE   H2S19205   1.200   0.198   6.848 -0.6786 -0.6432 -1.3337
  170SAPE    C319206   1.149   0.037   6.456 -0.6142 -0.0722 -0.1677
  170SAPE    HX19207   1.137  -0.016   6.359 -0.5860  0.0751 -0.2527
  170SAPE    HY19208   1.088   0.130   6.454 -0.6844 -0.0574  2.0397
  170SAPE   O3119209   1.090  -0.041   6.558  0.1177 -0.1600  0.1053
  170SAPE   C3119210   0.966  -0.073   6.553 -0.4667  0.0306  0.1490
  170SAPE   O3219211   0.877  -0.040   6.473  0.3648 -0.1005  0.1258
  170SAPE   C3219212   0.929  -0.158   6.668 -0.3140 -0.2988  0.1610
  170SAPE   H2X19213   0.850  -0.107   6.727  2.3879  3.1272  0.9907
  170SAPE   H2Y19214   1.017  -0.167   6.735  1.8762  1.6577 -2.3449
  170SAPE   C2319215   1.419   0.227   6.846  0.0865  0.0002  0.1380
  170SAPE   H3R19216   1.451   0.128   6.805  1.3244 -0.7163  2.6879
  170SAPE   H3S19217   1.418   0.198   6.954 -0.7339  2.1461  0.7351
  170SAPE   C2419218   1.527   0.334   6.828 -0.0587  0.1953 -0.2052
  170SAPE   H4R19219   1.476   0.421   6.874 -2.9364 -0.2618 -2.3167
  170SAPE   H4S19220   1.562   0.351   6.724 -0.8467  2.4631 -0.1235
  170SAPE   C2519221   1.640   0.295   6.911 -0.3382  0.0983  0.3208
  170SAPE   H5R19222   1.662   0.189   6.895 -0.6279  0.0933 -0.0216
  170SAPE   C2619223   1.705   0.354   7.014 -0.0482  0.3204 -0.0003
  170SAPE   H6R19224   1.784   0.298   7.066 -0.1053 -1.0718 -1.3338
  170SAPE   C2719225   1.687   0.494   7.067  0.3209 -0.7022  0.2935
  170SAPE   H7R19226   1.641   0.498   7.168  0.3357  0.2029  0.2664
  170SAPE   H7S19227   1.623   0.552   6.998 -0.6103 -4.3726 -2.0860
  170SAPE   C2819228   1.810   0.574   7.069  0.6026  0.1168  0.6468
  170SAPE   H8R19229   1.864   0.569   6.974 -1.6351  0.5006 -0.6807
  170SAPE   C2919230   1.862   0.638   7.182  0.2265 -0.2379  0.5224
  170SAPE   H9R19231   1.955   0.696   7.174  1.1347 -0.4753  6.7427
  170SAPE  C21019232   1.813   0.630   7.325 -0.1130 -0.4708  0.3454
  170SAPE  H10R19233   1.704   0.652   7.324  0.0805  0.5686 -2.5813
  170SAPE  H10S19234   1.863   0.714   7.379  0.2137  0.1589 -0.9037
  170SAPE  C21119235   1.830   0.490   7.377 -0.9248 -0.8313 -0.6264
  170SAPE  H11R19236   1.769   0.419   7.319 -0.3253 -0.4558 -1.7382
  170SAPE  C21219237   1.886   0.441   7.491  0.2661  0.7920  0.2681
  170SAPE  H12R19238   1.888   0.336   7.522 -0.4278  0.7251  0.0780
  170SAPE  C21319239   1.965   0.526   7.585 -0.0367  0.0277  0.6032
  170SAPE  H13R19240   1.939   0.633   7.570  1.4206  0.4207  0.8307
  170SAPE  H13S19241   2.073   0.516   7.562 -0.4435 -0.6454 -1.1262
  170SAPE  C21419242   1.929   0.494   7.729 -0.1714  0.3093 -0.2099
  170SAPE  H14R19243   1.823   0.470   7.747  0.0798  0.3631  1.3718
  170SAPE  C21519244   2.016   0.491   7.832  0.0733 -0.2295 -0.4238
  170SAPE  H15R19245   1.981   0.469   7.934  0.7693 -1.4561 -0.4426
  170SAPE  C21619246   2.165   0.522   7.827  1.0288  0.5845 -0.2509
  170SAPE  H16R19247   2.189   0.586   7.739  0.8469  2.4822  1.0759
  170SAPE  H16S19248   2.215   0.423   7.819  2.3272  1.0921  1.3623
  170SAPE  C21719249   2.216   0.591   7.954 -0.3436  0.7412  0.0840
  170SAPE  H17R19250   2.142   0.671   7.977 -0.4430  0.1500  1.8571
  170SAPE  H17S19251   2.315   0.642   7.955 -0.0743  0.2339 -0.3136
  170SAPE  C21819252   2.244   0.499   8.073 -0.1410  0.5935  0.7951
  170SAPE  H18R19253   2.155   0.438   8.097  1.3272 -0.3908  3.9423
  170SAPE  H18S19254   2.256   0.562   8.164 -1.7745 -1.3527  2.4017
  170SAPE  C21919255   2.358   0.405   8.052 -0.3022  0.2259 -0.7714
  170SAPE  H19R19256   2.452   0.462   8.038  0.4123 -1.1039 -1.4846
  170SAPE  H19S19257   2.360   0.349   7.955  1.7597 -1.5260  0.2318
  170SAPE  C22019258   2.391   0.299   8.165 -0.5134 -0.4174  0.1206
  170SAPE  H20R19259   2.405   0.345   8.266 -2.8940 -0.7221  0.6252
  170SAPE  H20S19260   2.491   0.258   8.142  0.0345  1.1203 -0.3007
  170SAPE  H20T19261   2.307   0.227   8.166 -0.1846 -0.8415 -1.5134
  170SAPE   C3319262   0.874  -0.298   6.632  0.4161 -0.2387 -0.1023
  170SAPE   H3X19263   0.922  -0.347   6.544 -0.8276 -0.9078 -0.4177
  170SAPE   H3Y19264   0.770  -0.296   6.594  0.2017  0.2198  0.5153
  170SAPE   C3419265   0.846  -0.380   6.763  0.0809 -0.9125 -0.6173
  170SAPE   H4X19266   0.937  -0.427   6.808  0.2598 -1.4258 -1.4981
  170SAPE   H4Y19267   0.769  -0.457   6.738 -0.5539 -0.7841  0.9259
  170SAPE   C3519268   0.796  -0.303   6.884 -0.4581 -0.1758 -0.5455
  170SAPE   H5X19269   0.712  -0.236   6.856 -1.6351 -0.7967  1.4167
  170SAPE   H5Y19270   0.885  -0.252   6.926 -1.0092 -0.6405  1.2377
  170SAPE   C3619271   0.772  -0.395   7.009 -0.5916 -0.4783  0.0742
  170SAPE   H6X19272   0.848  -0.469   7.041 -0.1013  0.4185  1.0134
  170SAPE   H6Y19273   0.683  -0.458   6.985  1.0907 -4.1086  2.8212
  170SAPE   C3719274   0.737  -0.310   7.130 -0.3753  0.0641 -0.1572
  170SAPE   H7X19275   0.826  -0.253   7.167  0.4750 -0.2974 -1.6053
  170SAPE   H7Y19276   0.711  -0.376   7.216  0.9784  0.3624  0.4998
  170SAPE   C3819277   0.614  -0.219   7.113 -0.0033 -0.6497 -0.4099
  170SAPE   H8X19278   0.529  -0.270   7.064 -1.4554  1.6042 -0.3095
  170SAPE   H8Y19279   0.628  -0.144   7.032  2.2423 -1.0287 -0.4096
  170SAPE   C3919280   0.555  -0.149   7.237 -0.5700 -0.4709 -0.0956
  170SAPE   H9X19281   0.538  -0.217   7.324 -3.0831 -0.7851 -0.7743
  170SAPE   H9Y19282   0.458  -0.101   7.213  0.0093 -0.2483 -2.0499
  170SAPE  C31019283   0.655  -0.044   7.300 -0.1912  0.2799  0.0760
  170SAPE  H10X19284   0.703   0.024   7.227 -0.2437 -0.1805 -0.3962
  170SAPE  H10Y19285   0.727  -0.116   7.345 -0.3844  1.1234  1.7971
  170SAPE  C31119286   0.604   0.039   7.421 -0.3450 -0.4085  0.4449
  170SAPE  H11X19287   0.579  -0.030   7.505  0.0465  0.5091  1.3276
  170SAPE  H11Y19288   0.507   0.080   7.386 -0.2039 -1.5936 -1.4685
  170SAPE  C31219289   0.712   0.143   7.469  0.0255  0.0145  0.6566
  170SAPE  H12X19290   0.751   0.204   7.385 -1.1313  2.0745  1.5703
  170SAPE  H12Y19291   0.803   0.088   7.503  0.9551 -0.0176 -1.7898
  170SAPE  C31319292   0.669   0.245   7.585  0.0849 -0.1625  0.4142
  170SAPE  H13X19293   0.580   0.305   7.553  0.1756 -0.2302  0.0363
  170SAPE  H13Y19294   0.757   0.312   7.581  0.6007 -0.8733 -0.2134
  170SAPE  C31419295   0.650   0.171   7.722 -0.1489  0.0279 -0.0045
  170SAPE  H14X19296   0.743   0.118   7.751  0.5856 -0.0026 -2.2950
  170SAPE  H14Y19297   0.560   0.108   7.715 -0.4039  0.3873  0.0156
  170SAPE  C31519298   0.628   0.276   7.825  0.0438  0.6722 -0.0137
  170SAPE  H15X19299   0.529   0.322   7.807 -0.9934 -1.6398 -0.3615
  170SAPE  H15Y19300   0.709   0.352   7.831  1.4071 -0.8349  1.6754
  170SAPE  C31619301   0.628   0.210   7.965  0.5163 -0.7108 -0.0522
  170SAPE  H16X19302   0.731   0.173   7.982 -0.1180 -2.4586  0.0646
  170SAPE  H16Y19303   0.551   0.130   7.961 -3.2891  2.5859  2.7117
  170SAPE  C31719304   0.576   0.303   8.077  0.3308  0.7928 -0.1481
  170SAPE  H17X19305   0.599   0.246   8.170  2.3665  1.4048 -0.2626
  170SAPE  H17Y19306   0.465   0.313   8.074  0.2177 -0.3465 -0.1580
  170SAPE  C31819307   0.648   0.435   8.087  0.1484 -0.4147  0.6511
  170SAPE  H18X19308   0.598   0.492   8.169 -2.1143  0.4588 -1.2700
  170SAPE  H18Y19309   0.635   0.481   7.987  0.6702 -1.0644  0.2770
  170SAPE  H18Z19310   0.752   0.412   8.118 -0.5328 -1.6724  2.0486
  171SAPE     N19311   3.014   0.384   6.265 -0.6540 -0.7444 -0.5591
  171SAPE   HN119312   3.067   0.393   6.354  0.4510  1.2181 -1.3755
  171SAPE   HN219313   2.916   0.358   6.287 -0.6250  0.8786  1.7417
  171SAPE   HN319314   3.046   0.309   6.200  0.9083  0.9369 -1.7771
  171SAPE   C1219315   3.017   0.526   6.205 -0.1774 -0.5889  0.3780
  171SAPE  H12A19316   2.928   0.538   6.139  1.3005  0.1273 -1.5228
  171SAPE  H12B19317   3.107   0.547   6.142 -0.8211  1.0151 -0.0317
  171SAPE   C1119318   3.007   0.629   6.323 -0.4515  0.1147 -0.5843
  171SAPE  H11A19319   2.920   0.612   6.389 -0.4558 -1.3319 -0.9594
  171SAPE  H11B19320   2.984   0.729   6.279  0.2825  0.3305 -0.4816
  171SAPE     P19321   3.251   0.705   6.377  0.5160 -0.2800 -0.1035
  171SAPE   O1319322   3.364   0.606   6.378 -0.1032 -0.6441  0.1638
  171SAPE   O1419323   3.238   0.788   6.255 -0.4534 -0.6365  0.3341
  171SAPE   O1219324   3.123   0.629   6.400  0.5022 -0.0426  0.0095
  171SAPE   O1119325   3.261   0.801   6.498  0.0854  0.6626  0.0688
  171SAPE    C119326   3.140   0.866   6.550 -0.3927  0.3924  0.2573
  171SAPE    HA19327   3.151   0.977   6.551  0.0261  0.3854 -1.4428
  171SAPE    HB19328   3.051   0.840   6.489  0.1884  0.0611 -0.4521
  171SAPE    C219329   3.103   0.813   6.695  0.2809  0.2209  0.1447
  171SAPE    HS19330   3.001   0.852   6.713  0.1235 -0.3919  0.5968
  171SAPE   O2119331   3.205   0.871   6.784  0.0172 -0.7325  0.0156
  171SAPE   C2119332   3.163   0.880   6.912  0.2198 -0.1062 -0.3146
  171SAPE   O2219333   3.045   0.894   6.945  0.4942 -0.1684 -0.4649
  171SAPE   C2219334   3.284   0.856   7.006  0.0832 -0.4421  0.1423
  171SAPE   H2R19335   3.313   0.752   6.981  0.3615 -0.2276 -0.4392
  171SAPE   H2S19336   3.378   0.906   6.972 -1.7778  2.0430 -1.5494
  171SAPE    C319337   3.098   0.658   6.707 -0.1649 -0.0876 -0.6776
  171SAPE    HX19338   3.196   0.613   6.682 -0.0649 -1.3638  1.7996
  171SAPE    HY19339   3.027   0.612   6.635  1.0169 -1.2763 -1.1035
  171SAPE   O3119340   3.063   0.614   6.847 -0.0221 -0.3406  0.4141
  171SAPE   C3119341   2.939   0.609   6.877  0.0109 -0.2365 -0.4966
  171SAPE   O3219342   2.841   0.632   6.808  0.0412 -0.3441 -0.1690
  171SAPE   C3219343   2.927   0.580   7.030  0.5860 -0.5643  0.1951
  171SAPE   H2X19344   2.860   0.493   7.044  3.1162 -2.6932 -0.3499
  171SAPE   H2Y19345   2.877   0.672   7.067 -1.5009 -1.4350 -0.4233
  171SAPE   C2319346   3.252   0.893   7.156 -0.5611  0.5949 -0.2727
  171SAPE   H3R19347   3.325   0.846   7.226 -1.2012  0.6292  0.4198
  171SAPE   H3S19348   3.148   0.868   7.185  0.2454 -3.7321 -0.8316
  171SAPE   C2419349   3.244   1.047   7.178 -0.2714 -0.4102 -0.0415
  171SAPE   H4R19350   3.186   1.070   7.270 -1.3747 -3.1958  0.0088
  171SAPE   H4S19351   3.190   1.089   7.090 -1.6579 -0.9107  0.5635
  171SAPE   C2519352   3.378   1.107   7.168  0.2305 -0.2276  0.0613
  171SAPE   H5R19353   3.400   1.146   7.068 -0.6369 -0.2040 -0.1259
  171SAPE   C2619354   3.471   1.124   7.266 -0.0080  1.1364  0.1700
  171SAPE   H6R19355   3.555   1.192   7.248 -0.3129  1.2028 -1.0060
  171SAPE   C2719356   3.468   1.073   7.408 -0.1242 -0.3638 -0.1706
  171SAPE   H7R19357   3.555   1.008   7.430  2.0649  1.8130 -2.1379
  171SAPE   H7S19358   3.378   1.011   7.427  0.4950 -0.5375  2.2893
  171SAPE   C2819359   3.478   1.190   7.501  0.1675 -0.0881  0.1375
  171SAPE   H8R19360   3.549   1.271   7.475 -0.9316  1.2657  1.2466
  171SAPE   C2919361   3.436   1.197   7.629 -0.2517  0.4995  0.5103
  171SAPE   H9R19362   3.473   1.281   7.691  0.5447  1.0503 -0.6926
  171SAPE  C21019363   3.371   1.084   7.699  0.7234  0.3325  0.0313
  171SAPE  H10R19364   3.349   0.998   7.633  1.1272  0.2474  0.0065
  171SAPE  H10S19365   3.278   1.119   7.748  0.3590  0.3997 -0.7131
  171SAPE  C21119366   3.465   1.033   7.805  0.5042  0.7958 -0.0625
  171SAPE  H11R19367   3.572   1.031   7.783  0.8420  4.1006  0.9769
  171SAPE  C21219368   3.434   0.997   7.932 -0.1151 -0.1354  0.0041
  171SAPE  H12R19369   3.520   0.969   7.994  0.2854  2.2354  0.5360
  171SAPE  C21319370   3.294   0.988   8.006 -0.2091 -0.3027 -0.5220
  171SAPE  H13R19371   3.300   0.914   8.089  0.7669  1.2435  0.8259
  171SAPE  H13S19372   3.217   0.961   7.931 -1.4927  2.1641 -0.1715
  171SAPE  C21419373   3.252   1.120   8.070  0.2380  0.5188 -0.0625
  171SAPE  H14R19374   3.312   1.209   8.051  0.4109  0.7176  1.3471
  171SAPE  C21519375   3.144   1.131   8.150 -0.0974  0.4644  0.0692
  171SAPE  H15R19376   3.117   1.227   8.197 -0.9518  0.6400 -0.7776
  171SAPE  C21619377   3.053   1.014   8.194  0.4396  0.1221 -0.3218
  171SAPE  H16R19378   3.106   0.917   8.194 -0.1576 -0.2467  2.3916
  171SAPE  H16S19379   2.974   0.995   8.117 -0.0330 -1.6711  0.5721
  171SAPE  C21719380   2.985   1.023   8.335 -0.4698  0.4060 -0.0997
  171SAPE  H17R19381   3.063   1.023   8.413  0.3469  0.5920 -0.9112
  171SAPE  H17S19382   2.924   0.932   8.357  2.2199 -1.0780  1.4512
  171SAPE  C21819383   2.881   1.134   8.338  0.0046 -0.1299  0.3214
  171SAPE  H18R19384   2.800   1.111   8.266 -0.6532 -1.1612  1.3801
  171SAPE  H18S19385   2.933   1.222   8.294  1.4497 -0.3863  1.4379
  171SAPE  C21919386   2.819   1.168   8.478  0.1090  0.0050 -0.5503
  171SAPE  H19R19387   2.745   1.251   8.474 -0.1402 -0.1636  0.4099
  171SAPE  H19S19388   2.891   1.212   8.550  0.7023 -1.3256 -0.3100
  171SAPE  C22019389   2.745   1.056   8.558 -0.4498 -0.2238  0.0817
  171SAPE  H20R19390   2.658   1.011   8.507 -0.7012 -0.5018  0.7439
  171SAPE  H20S19391   2.704   1.111   8.646  1.6404  0.8364  0.4394
  171SAPE  H20T19392   2.807   0.973   8.599 -2.0914 -2.5722 -2.1126
  171SAPE   C3319393   3.067   0.561   7.113  0.4328  0.2388 -0.4961
  171SAPE   H3X19394   3.143   0.636   7.081 -0.4346  0.5802 -1.7918
  171SAPE   H3Y19395   3.111   0.460   7.099 -2.1674 -1.4112  2.6361
  171SAPE   C3419396   3.055   0.576   7.270  0.2290 -0.1229  0.4887
  171SAPE   H4X19397   2.990   0.663   7.293 -1.2888 -0.6726 -1.5129
  171SAPE   H4Y19398   3.160   0.603   7.293  0.0166  0.1366  1.1593
  171SAPE   C3519399   3.028   0.455   7.351  0.1059  0.1543 -0.6036
  171SAPE   H5X19400   3.116   0.387   7.355 -0.7963 -1.0735 -1.0902
  171SAPE   H5Y19401   2.939   0.402   7.311 -0.2685  0.8396 -0.6824
  171SAPE   C3619402   2.988   0.486   7.491 -0.2089 -0.4484 -0.3808
  171SAPE   H6X19403   2.959   0.389   7.536  2.3337 -0.6207  0.9934
  171SAPE   H6Y19404   2.902   0.556   7.482 -0.5772 -0.9985 -1.2279
  171SAPE   C3719405   3.090   0.551   7.574 -0.3590  0.0989  0.2960
  171SAPE   H7X19406   3.131   0.643   7.527 -1.1175 -0.7983 -2.1954
  171SAPE   H7Y19407   3.180   0.486   7.582  0.4198  1.0536 -0.5128
  171SAPE   C3819408   3.042   0.578   7.717  0.4722  0.0052  0.2577
  171SAPE   H8X19409   3.026   0.482   7.770 -0.6439  0.4737  0.8031
  171SAPE   H8Y19410   2.946   0.634   7.722  1.2757  1.4737 -0.3592
  171SAPE   C3919411   3.140   0.670   7.788 -0.3113 -0.5184  0.0156
  171SAPE   H9X19412   3.140   0.763   7.727  1.7913 -1.3805 -1.3668
  171SAPE   H9Y19413   3.242   0.626   7.778 -0.5272 -0.8657 -0.6555
  171SAPE  C31019414   3.117   0.680   7.942 -0.1164 -0.7131 -0.0662
  171SAPE  H10X19415   3.013   0.719   7.955  0.2539  0.7352 -1.3150
  171SAPE  H10Y19416   3.193   0.750   7.982 -0.0198  1.4928 -3.8392
  171SAPE  C31119417   3.142   0.550   8.011  0.2541  0.0449  0.1975
  171SAPE  H11X19418   3.252   0.534   8.008  0.4204  1.2652 -1.0117
  171SAPE  H11Y19419   3.094   0.466   7.958 -0.0973 -0.2662  1.0069
  171SAPE  C31219420   3.096   0.545   8.161  0.3211  0.4675 -0.9243
  171SAPE  H12X19421   3.146   0.625   8.219 -1.7048  0.8405  0.3502
  171SAPE  H12Y19422   3.139   0.449   8.198  0.1203  0.9058  0.4899
  171SAPE  C31319423   2.940   0.550   8.173  0.1286 -0.2974 -0.0454
  171SAPE  H13X19424   2.904   0.461   8.117 -1.1481 -1.1513  2.0696
  171SAPE  H13Y19425   2.905   0.646   8.128 -1.0964 -0.5805  0.2908
  171SAPE  C31419426   2.899   0.559   8.317  0.2642  0.2621 -0.3921
  171SAPE  H14X19427   2.941   0.656   8.352  0.8150 -0.8417  2.1242
  171SAPE  H14Y19428   2.937   0.472   8.375 -3.2636 -1.0341  0.0943
  171SAPE  C31519429   2.745   0.559   8.341 -0.5566  0.9668 -0.6007
  171SAPE  H15X19430   2.715   0.480   8.413 -2.2084 -1.4592 -3.8570
  171SAPE  H15Y19431   2.693   0.527   8.248  1.0219 -0.3569 -1.0481
  171SAPE  C31619432   2.700   0.699   8.384 -0.8395 -0.4052 -0.0308
  171SAPE  H16X19433   2.722   0.780   8.312  0.9900  0.1681  1.1498
  171SAPE  H16Y19434   2.733   0.727   8.486  0.9751  0.4829 -0.8331
  171SAPE  C31719435   2.548   0.700   8.414  0.5176 -0.3019  0.2743
  171SAPE  H17X19436   2.489   0.643   8.340 -1.1813  2.1041 -0.2994
  171SAPE  H17Y19437   2.506   0.802   8.427 -1.1173 -1.2670  2.8905
  171SAPE  C31819438   2.506   0.636   8.546 -0.0819  0.4140  0.6058
  171SAPE  H18X19439   2.406   0.671   8.579 -0.5314 -0.1889 -0.1020
  171SAPE  H18Y19440   2.588   0.645   8.621  0.0085 -0.1882  0.5859
  171SAPE  H18Z19441   2.497   0.525   8.538 -0.5869  0.5254 -0.4366
  172SAPE     N19442   2.547   6.067   6.004  0.1981  0.4226  0.2648
  172SAPE   HN119443   2.452   6.028   6.018 -0.3103  1.3533 -0.5872
  172SAPE   HN219444   2.552   6.144   5.934 -0.2597 -0.2529 -0.5149
  172SAPE   HN319445   2.604   5.991   5.962 -2.4877 -0.3855 -2.0779
  172SAPE   C1219446   2.605   6.119   6.132 -0.4607 -0.4690 -0.8428
  172SAPE  H12A19447   2.707   6.163   6.122  0.1897 -1.5491  0.7609
  172SAPE  H12B19448   2.613   6.033   6.202 -0.8585  0.4647  0.3644
  172SAPE   C1119449   2.509   6.218   6.191 -0.0616 -0.0145  0.6046
  172SAPE  H11A19450   2.548   6.242   6.293  4.0196  1.4749 -1.2209
  172SAPE  H11B19451   2.412   6.166   6.208  0.0500 -0.2961  0.3838
  172SAPE     P19452   2.596   6.445   6.111 -0.4149  0.0739 -0.0285
  172SAPE   O1319453   2.733   6.395   6.078  0.3729 -0.2779 -0.2858
  172SAPE   O1419454   2.548   6.558   6.030  0.0380  0.1885  0.2701
  172SAPE   O1219455   2.489   6.331   6.103  0.4057  0.0647  0.2354
  172SAPE   O1119456   2.605   6.488   6.268  0.1001  0.4832  0.1139
  172SAPE    C119457   2.484   6.538   6.327  0.6808 -0.1675 -0.4480
  172SAPE    HA19458   2.423   6.600   6.257 -0.5893 -1.7805 -0.8181
  172SAPE    HB19459   2.425   6.457   6.374  0.8015  0.6322  1.1055
  172SAPE    C219460   2.511   6.645   6.449  0.2798  0.2888  0.1393
  172SAPE    HS19461   2.575   6.725   6.407  0.2024  0.7420  0.8691
  172SAPE   O2119462   2.575   6.580   6.563  0.6486  0.1322 -0.7082
  172SAPE   C2119463   2.661   6.655   6.635 -0.0356  0.6198 -0.6549
  172SAPE   O2219464   2.702   6.765   6.606  0.0082  0.5227  0.3527
  172SAPE   C2219465   2.682   6.583   6.777  0.3630  0.4097 -0.1174
  172SAPE   H2R19466   2.624   6.635   6.856 -1.6423 -1.7354 -0.1382
  172SAPE   H2S19467   2.641   6.481   6.767 -0.2525  0.6209  0.2414
  172SAPE    C319468   2.381   6.717   6.506  0.4632 -1.1471  1.1881
  172SAPE    HX19469   2.346   6.790   6.430  1.2576 -0.3630  1.5831
  172SAPE    HY19470   2.402   6.786   6.590  0.6204  2.0346 -1.3841
  172SAPE   O3119471   2.272   6.618   6.531  0.2104 -0.3609  0.0284
  172SAPE   C3119472   2.260   6.588   6.658 -0.2674  0.3934  0.2867
  172SAPE   O3219473   2.310   6.652   6.751  0.0653  0.0992 -0.5431
  172SAPE   C3219474   2.156   6.474   6.675 -0.2637  0.2084  1.1153
  172SAPE   H2X19475   2.168   6.408   6.586 -1.6586 -0.7693  1.6339
  172SAPE   H2Y19476   2.061   6.531   6.679 -0.1234  0.7778 -1.8612
  172SAPE   C2319477   2.837   6.574   6.805  0.1674  0.0468 -0.8383
  172SAPE   H3R19478   2.887   6.673   6.812  0.2161  0.1201 -2.1746
  172SAPE   H3S19479   2.891   6.532   6.718 -1.0110  3.1425 -3.1916
  172SAPE   C2419480   2.859   6.488   6.931 -0.7227  0.0271  0.4134
  172SAPE   H4R19481   2.824   6.383   6.918  1.8420 -0.5342 -2.4632
  172SAPE   H4S19482   2.816   6.537   7.021 -0.4178 -0.1515  0.6589
  172SAPE   C2519483   3.004   6.475   6.935 -0.3199 -0.3052  0.2370
  172SAPE   H5R19484   3.043   6.448   6.835 -0.5764 -1.3100  0.4037
  172SAPE   C2619485   3.084   6.463   7.046  0.2110  0.1619 -0.2330
  172SAPE   H6R19486   3.189   6.435   7.031  0.0574 -0.4730 -0.1284
  172SAPE   C2719487   3.042   6.455   7.190  0.1961  0.2035 -0.6242
  172SAPE   H7R19488   2.931   6.464   7.195  0.2193 -0.4333  1.3098
  172SAPE   H7S19489   3.080   6.547   7.240 -0.3154 -0.2784  0.6599
  172SAPE   C2819490   3.087   6.331   7.262  1.0297  0.2703 -0.2953
  172SAPE   H8R19491   3.099   6.239   7.202 -0.8815 -0.8725  0.9972
  172SAPE   C2919492   3.115   6.328   7.398  0.4526 -0.5681  0.3374
  172SAPE   H9R19493   3.136   6.232   7.447  1.6294 -0.5530 -0.1206
  172SAPE  C21019494   3.097   6.452   7.488 -0.0587 -0.4415 -0.4434
  172SAPE  H10R19495   3.043   6.537   7.441 -0.8054  0.0982  1.3799
  172SAPE  H10S19496   3.198   6.492   7.514 -0.1371  0.1906 -1.0932
  172SAPE  C21119497   3.025   6.415   7.612 -0.0789  0.2513 -0.2340
  172SAPE  H11R19498   2.919   6.389   7.594  0.3699 -1.7473 -0.0923
  172SAPE  C21219499   3.074   6.418   7.742  0.3781 -0.8270  0.5417
  172SAPE  H12R19500   3.009   6.398   7.828  1.6912  0.6826  1.9136
  172SAPE  C21319501   3.212   6.463   7.779 -0.2010 -0.0597  0.0836
  172SAPE  H13R19502   3.212   6.486   7.888 -2.4065  1.2814 -0.1623
  172SAPE  H13S19503   3.237   6.562   7.735  1.3174  0.6859  2.4753
  172SAPE  C21419504   3.329   6.370   7.761 -0.3553 -0.0714 -0.2109
  172SAPE  H14R19505   3.315   6.278   7.703  1.6587 -1.0630  0.8454
  172SAPE  C21519506   3.458   6.394   7.797 -0.3761 -0.0496 -0.5293
  172SAPE  H15R19507   3.538   6.328   7.761  0.8045  1.9024 -1.5093
  172SAPE  C21619508   3.503   6.528   7.860 -0.3505 -0.0086  0.6334
  172SAPE  H16R19509   3.430   6.611   7.865  1.3170  1.4755  0.7112
  172SAPE  H16S19510   3.591   6.558   7.800  1.9674 -1.5318  3.1499
  172SAPE  C21719511   3.535   6.516   8.009  0.6698 -0.1362 -0.2953
  172SAPE  H17R19512   3.597   6.430   8.042  0.7585  0.6243  1.5621
  172SAPE  H17S19513   3.442   6.497   8.067  1.7427 -3.5308  0.4145
  172SAPE  C21819514   3.599   6.644   8.073 -0.3026 -0.5581  0.6427
  172SAPE  H18R19515   3.695   6.659   8.019  0.2251 -1.7067  1.2406
  172SAPE  H18S19516   3.632   6.608   8.173  1.4386 -0.3040  0.1704
  172SAPE  C21919517   3.523   6.772   8.087  0.0174  0.1611  0.2598
  172SAPE  H19R19518   3.431   6.733   8.136 -0.1552 -1.2072 -1.1276
  172SAPE  H19S19519   3.498   6.825   7.993 -0.1927 -0.6041 -0.1178
  172SAPE  C22019520   3.573   6.870   8.189  0.4626  0.7112 -0.2974
  172SAPE  H20R19521   3.518   6.966   8.204 -0.6519 -0.0241  0.3802
  172SAPE  H20S19522   3.671   6.906   8.150 -0.5610  3.6749 -0.2592
  172SAPE  H20T19523   3.603   6.838   8.291 -0.5749  0.4197 -0.0794
  172SAPE   C3319524   2.194   6.386   6.803  0.0633 -0.6819  0.4393
  172SAPE   H3X19525   2.193   6.445   6.897  2.3419  0.0659  0.0376
  172SAPE   H3Y19526   2.299   6.353   6.787  0.4798  1.7904 -2.3689
  172SAPE   C3419527   2.119   6.255   6.828 -0.2826  0.1852 -0.0522
  172SAPE   H4X19528   2.165   6.200   6.912 -2.8551 -1.3524  0.3786
  172SAPE   H4Y19529   2.116   6.189   6.738  0.7035 -0.2525  0.2281
  172SAPE   C3519530   1.971   6.288   6.860  0.4097 -0.5767 -0.6053
  172SAPE   H5X19531   1.920   6.190   6.869  1.0336 -0.8020  0.5952
  172SAPE   H5Y19532   1.918   6.331   6.772 -1.3760  0.6540  1.0243
  172SAPE   C3619533   1.940   6.380   6.980 -0.3313  0.1446 -0.0393
  172SAPE   H6X19534   1.832   6.378   7.006 -1.3590  1.4443 -3.8513
  172SAPE   H6Y19535   1.970   6.485   6.957 -1.2979  0.6070  0.8102
  172SAPE   C3719536   2.033   6.335   7.095 -0.3517 -0.1174 -0.7033
  172SAPE   H7X19537   2.132   6.382   7.080 -0.6125  1.3306  1.8905
  172SAPE   H7Y19538   2.050   6.225   7.088  0.9288 -0.0973  1.5931
  172SAPE   C3819539   1.975   6.360   7.231 -0.3049 -0.0583  0.0234
  172SAPE   H8X19540   1.879   6.305   7.243 -1.5173  2.2256  1.0726
  172SAPE   H8Y19541   1.953   6.469   7.237 -0.1025 -0.0178  0.0230
  172SAPE   C3919542   2.072   6.317   7.338 -0.2410 -0.3569  0.1719
  172SAPE   H9X19543   2.172   6.361   7.315 -0.0218 -0.2061  1.3688
  172SAPE   H9Y19544   2.081   6.206   7.343  1.0665 -0.3163 -0.9302
  172SAPE  C31019545   2.038   6.382   7.469 -0.6043 -0.2980  0.7038
  172SAPE  H10X19546   1.935   6.353   7.498 -0.6188  0.2930  1.2441
  172SAPE  H10Y19547   2.057   6.491   7.476  1.4906 -0.6610  1.1583
  172SAPE  C31119548   2.107   6.310   7.581  0.2799 -0.1927  0.4441
  172SAPE  H11X19549   2.212   6.346   7.582  0.1240  0.2569  1.3990
  172SAPE  H11Y19550   2.101   6.201   7.563 -0.1219 -0.2810  1.1016
  172SAPE  C31219551   2.031   6.337   7.719 -0.4029  0.3753  0.5392
  172SAPE  H12X19552   1.929   6.294   7.715 -0.2916  0.0584  0.9921
  172SAPE  H12Y19553   2.027   6.444   7.747  1.7469  0.8401 -0.7994
  172SAPE  C31319554   2.118   6.261   7.816 -1.0404  0.1018  0.1795
  172SAPE  H13X19555   2.225   6.276   7.791 -1.6955  2.2402 -1.4922
  172SAPE  H13Y19556   2.090   6.153   7.813 -0.6020 -0.0134  0.2461
  172SAPE  C31419557   2.088   6.311   7.959  0.4640 -0.2848  0.3188
  172SAPE  H14X19558   1.982   6.336   7.978 -0.3943 -0.7821 -3.4328
  172SAPE  H14Y19559   2.145   6.406   7.975  0.8668 -0.4827  0.0766
  172SAPE  C31519560   2.129   6.198   8.053 -0.2845 -0.1340 -0.2470
  172SAPE  H15X19561   2.232   6.160   8.034  1.8813  5.6798 -1.0776
  172SAPE  H15Y19562   2.060   6.113   8.035  1.9846 -1.9585 -0.4241
  172SAPE  C31619563   2.131   6.228   8.200 -0.5509  0.0666 -0.2844
  172SAPE  H16X19564   2.042   6.287   8.228  0.2814  1.5878 -0.7721
  172SAPE  H16Y19565   2.218   6.298   8.200 -1.2113  0.9770  2.7174
  172SAPE  C31719566   2.155   6.108   8.288  0.7457  0.9982 -0.5673
  172SAPE  H17X19567   2.241   6.049   8.249 -1.9959 -0.6020 -4.4418
  172SAPE  H17Y19568   2.066   6.046   8.264 -0.3728  1.8718  1.2200
  172SAPE  C31819569   2.184   6.127   8.434  0.5662 -0.2744  0.3065
  172SAPE  H18X19570   2.280   6.168   8.471 -0.3830  0.7403  1.6560
  172SAPE  H18Y19571   2.172   6.028   8.484 -2.2548  0.0262  0.2580
  172SAPE  H18Z19572   2.105   6.184   8.486  2.1026  0.5056  1.8221
  173SOPE     N19573   3.903   3.869  11.054  0.1849 -0.8356 -0.3537
  173SOPE   HN119574   3.947   3.962  11.037 -0.9273 -0.5560 -1.7616
  173SOPE   HN219575   3.892   3.864  11.157  1.8296 -2.4572 -0.2220
  173SOPE   HN319576   3.962   3.792  11.015  0.1928 -0.8047 -0.4013
  173SOPE   C1219577   3.762   3.845  11.003 -0.0799  0.1684  0.5783
  173SOPE  H12A19578   3.711   3.942  10.984  0.8612  0.6092  0.2780
  173SOPE  H12B19579   3.713   3.784  11.082 -4.2037  2.0235 -0.4389
  173SOPE   C1119580   3.756   3.768  10.869 -0.2258 -0.3621 -0.7714
  173SOPE  H11A19581   3.791   3.838  10.790 -2.3646  0.5255 -0.9747
  173SOPE  H11B19582   3.649   3.750  10.844 -0.8914  2.7421 -0.2730
  173SOPE     P19583   3.814   3.541  10.751  0.2342 -0.3953 -0.1276
  173SOPE   O1319584   3.677   3.488  10.777  0.1274  0.2009  0.2380
  173SOPE   O1419585   3.922   3.442  10.756  0.2692  0.0906 -0.3082
  173SOPE   O1219586   3.836   3.645  10.861  0.0832 -0.1494  0.1570
  173SOPE   O1119587   3.820   3.622  10.619 -0.2720 -0.3641 -0.0825
  173SOPE    C119588   3.942   3.675  10.561  0.3051  0.1465  0.3054
  173SOPE    HA19589   4.030   3.657  10.627 -1.0721  0.3300  2.2521
  173SOPE    HB19590   3.926   3.785  10.562 -0.4057  0.0445  0.6939
  173SOPE    C219591   3.976   3.599  10.429 -0.4885 -0.3015  0.0387
  173SOPE    HS19592   4.074   3.639  10.394 -0.8334 -2.0186 -3.0677
  173SOPE   O2119593   3.870   3.608  10.327  0.4114  0.0089  0.7687
  173SOPE   C2119594   3.875   3.728  10.277  0.3091  0.3466  0.2861
  173SOPE   O2219595   3.943   3.818  10.320 -0.7894 -0.1705  0.0982
  173SOPE   C2219596   3.799   3.730  10.146 -0.3335  0.1116  0.7515
  173SOPE   H2R19597   3.798   3.833  10.103  0.1227 -0.2447 -0.1301
  173SOPE   H2S19598   3.699   3.696  10.180  0.2466 -0.0168  2.3440
  173SOPE    C319599   4.000   3.451  10.456 -0.0868 -0.0645 -0.1320
  173SOPE    HX19600   3.902   3.402  10.473  0.3197 -0.1977  1.9375
  173SOPE    HY19601   4.060   3.429  10.546 -0.5417 -2.1682 -0.3147
  173SOPE   O3119602   4.061   3.403  10.327  0.4533 -0.0860  0.0475
  173SOPE   C3119603   4.190   3.413  10.328 -0.3272 -0.1669  0.5139
  173SOPE   O3219604   4.252   3.462  10.422  0.1247 -0.1818  0.6075
  173SOPE   C3219605   4.243   3.356  10.200  0.0014 -0.1496 -0.0665
  173SOPE   H2X19606   4.294   3.262  10.231 -1.1442 -0.3563  1.2684
  173SOPE   H2Y19607   4.327   3.422  10.172  0.9333 -0.5613  1.6640
  173SOPE   C2319608   3.849   3.623  10.046  0.5389 -0.4638  0.4382
  173SOPE   H3R19609   3.818   3.521  10.079 -0.5143 -0.5466 -0.7870
  173SOPE   H3S19610   3.961   3.623  10.046  0.5373 -0.1327  0.3947
  173SOPE   C2419611   3.789   3.642   9.908  0.1072  0.6159 -0.2992
  173SOPE   H4R19612   3.683   3.672   9.923 -0.2498 -0.5376 -0.4812
  173SOPE   H4S19613   3.841   3.729   9.863  0.0351  1.2012  0.7578
  173SOPE   C2519614   3.810   3.519   9.821  0.3349  0.4296  0.0130
  173SOPE   H5R19615   3.913   3.538   9.782  0.9810  0.1278  1.5409
  173SOPE   H5S19616   3.812   3.425   9.881  1.0896  0.6686  0.3659
  173SOPE   C2619617   3.716   3.506   9.701  0.1878  0.3542 -0.6740
  173SOPE   H6R19618   3.753   3.420   9.641  0.5059 -1.7150  2.3603
  173SOPE   H6S19619   3.618   3.476   9.742  0.7423 -0.2621  0.2361
  173SOPE   C2719620   3.681   3.633   9.617 -0.1727 -0.0729  0.0508
  173SOPE   H7R19621   3.643   3.720   9.675 -1.5859 -1.5462  1.3952
  173SOPE   H7S19622   3.781   3.663   9.579 -0.0613  0.0354  0.4337
  173SOPE   C2819623   3.598   3.603   9.487  0.3914  0.7252 -0.1147
  173SOPE   H8R19624   3.645   3.525   9.425  0.0457 -0.7884  1.4870
  173SOPE   H8S19625   3.501   3.555   9.514  1.1848 -1.1035 -0.4584
  173SOPE   C2919626   3.569   3.734   9.412 -0.2741 -0.1097  0.8483
  173SOPE   H9119627   3.503   3.809   9.459  0.6865  2.0377 -1.1566
  173SOPE  C21019628   3.617   3.762   9.291 -0.3969  0.2138 -0.2324
  173SOPE  H10119629   3.593   3.860   9.247  1.5324  1.6413  1.8392
  173SOPE  C21119630   3.723   3.688   9.204 -0.2520 -0.6998 -0.2067
  173SOPE  H11R19631   3.723   3.578   9.212  2.2660 -0.6805  0.2337
  173SOPE  H11S19632   3.823   3.718   9.241 -1.2177  0.4418  1.5772
  173SOPE  C21219633   3.718   3.736   9.055 -0.5241  0.2105 -0.0681
  173SOPE  H12R19634   3.722   3.846   9.042  0.0828  0.2809  0.6780
  173SOPE  H12S19635   3.619   3.699   9.020  0.1129 -1.4321 -0.1965
  173SOPE  C21319636   3.834   3.681   8.977 -0.2673 -0.1969 -0.0854
  173SOPE  H13R19637   3.815   3.575   8.952  1.9419 -0.3665 -1.1126
  173SOPE  H13S19638   3.928   3.677   9.038 -1.1540  1.0382  1.4104
  173SOPE  C21419639   3.867   3.773   8.854 -0.4533 -0.5089  0.6957
  173SOPE  H14R19640   3.884   3.876   8.892 -1.1497 -0.5705  1.1865
  173SOPE  H14S19641   3.781   3.773   8.784  0.6678  0.9445 -0.6995
  173SOPE  C21519642   3.989   3.727   8.766 -0.8903 -0.4834 -0.4342
  173SOPE  H15R19643   3.954   3.650   8.695  0.7177 -1.5304 -0.1322
  173SOPE  H15S19644   4.057   3.678   8.839 -1.4278 -1.6555 -0.7146
  173SOPE  C21619645   4.062   3.837   8.692 -0.4250  0.0184  0.6970
  173SOPE  H16R19646   4.089   3.914   8.769  0.4859 -1.5057  1.9384
  173SOPE  H16S19647   3.989   3.889   8.627  0.5172 -0.5676 -0.8357
  173SOPE  C21719648   4.178   3.796   8.616 -0.1979 -0.0771 -0.0956
  173SOPE  H17R19649   4.243   3.727   8.674  0.0834 -0.7634 -1.1974
  173SOPE  H17S19650   4.241   3.881   8.583  0.0166 -0.8767 -1.8335
  173SOPE  C21819651   4.126   3.729   8.490  0.0439  0.2984  0.0188
  173SOPE  H18R19652   4.214   3.732   8.422 -1.0360 -1.6114 -1.4952
  173SOPE  H18S19653   4.034   3.771   8.445 -0.9022 -1.0913  0.6346
  173SOPE  H18T19654   4.106   3.623   8.517 -0.6323 -0.2331 -2.3756
  173SOPE   C3319655   4.145   3.336  10.081  1.2002  0.2293 -0.5111
  173SOPE   H3X19656   4.109   3.434  10.043  2.2343  2.3824  3.8146
  173SOPE   H3Y19657   4.053   3.280  10.110  1.7065 -1.4850 -2.1239
  173SOPE   C3419658   4.218   3.262   9.969 -0.5881 -0.0596  0.2629
  173SOPE   H4X19659   4.261   3.168  10.010  0.1395 -0.0180 -0.3728
  173SOPE   H4Y19660   4.299   3.327   9.930 -1.2000  1.2152  1.0940
  173SOPE   C3519661   4.126   3.222   9.855 -0.2409 -0.2534  0.1657
  173SOPE   H5X19662   4.049   3.298   9.828  0.9343  0.9008  0.0261
  173SOPE   H5Y19663   4.058   3.139   9.886  0.0183 -1.1618 -1.6342
  173SOPE   C3619664   4.189   3.173   9.715  0.1670  0.4475  0.4531
  173SOPE   H6X19665   4.275   3.107   9.738  0.3455  0.3064 -0.5961
  173SOPE   H6Y19666   4.232   3.252   9.649 -1.9861  1.3615  0.0863
  173SOPE   C3719667   4.071   3.096   9.638 -0.6163  0.5261  1.1703
  173SOPE   H7X19668   3.972   3.145   9.625 -2.1668 -2.8708 -0.5046
  173SOPE   H7Y19669   4.062   3.012   9.709 -2.7163 -0.3798 -0.1223
  173SOPE   C3819670   4.117   3.036   9.502  0.7573 -0.5424 -0.3938
  173SOPE   H8X19671   4.192   2.958   9.529  0.0546 -0.3059  2.4501
  173SOPE   H8Y19672   4.161   3.112   9.435 -0.9064  0.7425 -0.0565
  173SOPE   C3919673   4.009   2.964   9.425 -0.0507  0.6584  0.1865
  173SOPE   H9X19674   3.942   2.911   9.496 -1.7134 -0.1190 -1.8937
  173SOPE   H9Y19675   4.051   2.879   9.368  0.2408  1.0415 -0.1741
  173SOPE  C31019676   3.927   3.059   9.339  0.1769 -0.3364  0.4555
  173SOPE  H10X19677   3.992   3.111   9.266  0.2513 -0.6753  0.2806
  173SOPE  H10Y19678   3.884   3.126   9.417  1.3475 -1.2510  1.9065
  173SOPE  C31119679   3.810   2.992   9.271  0.6066 -0.1964  0.4274
  173SOPE  H11X19680   3.719   2.985   9.335 -0.2773 -1.0779 -0.9113
  173SOPE  H11Y19681   3.837   2.888   9.246 -2.1792 -0.7596 -0.4432
  173SOPE  C31219682   3.784   3.047   9.124  0.1673  0.6469 -0.4096
  173SOPE  H12X19683   3.884   3.047   9.076  0.0736 -2.6599 -0.7218
  173SOPE  H12Y19684   3.769   3.157   9.127  1.3209  0.7981  0.0071
  173SOPE  C31319685   3.678   2.974   9.031 -0.6182  0.0893  0.4707
  173SOPE  H13X19686   3.574   2.982   9.067  0.1280  0.0482  2.6902
  173SOPE  H13Y19687   3.697   2.865   9.025  1.4569  0.5817 -3.8932
  173SOPE  C31419688   3.678   3.021   8.883  0.5884  0.3869  0.4763
  173SOPE  H14X19689   3.596   2.956   8.846 -0.0233  1.3235  0.1672
  173SOPE  H14Y19690   3.775   2.997   8.835  0.3063 -1.2602  0.7040
  173SOPE  C31519691   3.645   3.165   8.869  0.4810  0.0575  0.4966
  173SOPE  H15X19692   3.720   3.229   8.920  1.6513 -0.8525 -0.0539
  173SOPE  H15Y19693   3.549   3.183   8.923  0.8933 -2.1146  2.0231
  173SOPE  C31619694   3.625   3.202   8.722 -0.2188  0.6682  0.1671
  173SOPE  H16X19695   3.525   3.161   8.693 -0.2089 -0.2745  1.4171
  173SOPE  H16Y19696   3.709   3.150   8.672  1.4108  0.4515  3.0697
  173SOPE  C31719697   3.620   3.353   8.697 -0.3761  0.4826  0.5360
  173SOPE  H17X19698   3.715   3.401   8.728  0.2444  0.1100 -0.7712
  173SOPE  H17Y19699   3.539   3.396   8.761 -0.9684  1.3958 -0.7933
  173SOPE  C31819700   3.579   3.398   8.558 -0.8982 -0.2414 -0.4086
  173SOPE  H18X19701   3.483   3.349   8.535 -1.3910 -1.2092  3.3259
  173SOPE  H18Y19702   3.661   3.393   8.483  1.5896  0.7788  2.1457
  173SOPE  H18Z19703   3.556   3.506   8.571 -1.5684 -0.4498  0.1256
  174SOPE     N19704   3.851   2.723  11.062 -0.3610 -0.0883  0.2322
  174SOPE   HN119705   3.899   2.643  11.017  1.5034  1.3349 -0.3515
  174SOPE   HN219706   3.907   2.810  11.049  1.4365 -1.2366  0.0988
  174SOPE   HN319707   3.826   2.712  11.163 -1.0011 -1.2741 -0.0426
  174SOPE   C1219708   3.720   2.727  10.992 -0.3882 -0.1467  0.5811
  174SOPE  H12A19709   3.652   2.797  11.045  0.1450 -0.3410  1.5324
  174SOPE  H12B19710   3.662   2.634  11.009 -0.5377 -0.1191  0.2281
  174SOPE   C1119711   3.728   2.770  10.843 -0.2060  0.1150  0.5203
  174SOPE  H11A19712   3.775   2.869  10.824  2.0021 -1.0484 -0.2387
  174SOPE  H11B19713   3.625   2.767  10.800  0.5258 -1.3564 -1.1770
  174SOPE     P19714   3.767   2.524  10.745 -0.1153 -0.3523 -0.3542
  174SOPE   O1319715   3.629   2.500  10.783 -0.6637 -0.0246  0.0789
  174SOPE   O1419716   3.873   2.422  10.787 -0.0549  0.2195 -0.3531
  174SOPE   O1219717   3.811   2.671  10.785  0.1279  0.3579  0.6176
  174SOPE   O1119718   3.779   2.533  10.588 -0.7516 -0.4542  0.2338
  174SOPE    C119719   3.673   2.568  10.498 -0.0529 -0.1161 -0.2617
  174SOPE    HA19720   3.578   2.529  10.540  1.2254 -1.2372  1.6704
  174SOPE    HB19721   3.694   2.521  10.399 -1.3199  0.6951 -0.9379
  174SOPE    C219722   3.674   2.719  10.459 -0.0794  0.7926  0.0306
  174SOPE    HS19723   3.644   2.764  10.556  1.5479 -0.3537  1.0961
  174SOPE   O2119724   3.584   2.753  10.354  0.2954  0.3873 -0.7058
  174SOPE   C2119725   3.459   2.719  10.360  0.1969 -0.6419  0.2397
  174SOPE   O2219726   3.396   2.675  10.454  0.3742  0.5447 -0.0970
  174SOPE   C2219727   3.389   2.756  10.224 -0.0764  0.1345 -0.1459
  174SOPE   H2R19728   3.332   2.852  10.231 -1.7887 -0.8430 -0.2613
  174SOPE   H2S19729   3.306   2.683  10.207  1.1795 -1.7472  1.5439
  174SOPE    C319730   3.822   2.770  10.425  0.5205 -0.5341 -0.2927
  174SOPE    HX19731   3.869   2.690  10.363  2.9478  0.9410 -0.4159
  174SOPE    HY19732   3.880   2.785  10.518 -1.2090 -0.1536  0.7322
  174SOPE   O3119733   3.818   2.897  10.354  0.3350  0.1378 -0.1430
  174SOPE   C3119734   3.771   3.005  10.426 -1.1904 -1.0952 -0.0230
  174SOPE   O3219735   3.765   3.000  10.551  0.3401 -0.8453 -0.7914
  174SOPE   C3219736   3.730   3.119  10.334  0.0667  0.7523  1.0174
  174SOPE   H2X19737   3.728   3.209  10.400 -3.7851  0.5398  1.2933
  174SOPE   H2Y19738   3.623   3.120  10.305  0.1748 -1.1399  0.5436
  174SOPE   C2319739   3.482   2.744  10.099  0.3583 -0.1117 -0.8403
  174SOPE   H3R19740   3.548   2.657  10.116 -0.6537 -0.9479 -1.1481
  174SOPE   H3S19741   3.537   2.840  10.090  2.6002 -1.1810  0.9919
  174SOPE   C2419742   3.405   2.710   9.975 -0.4495 -0.2302  0.4066
  174SOPE   H4R19743   3.337   2.628  10.006  1.1780 -2.2861 -1.3643
  174SOPE   H4S19744   3.338   2.792   9.940  0.9130  0.6884 -0.0953
  174SOPE   C2519745   3.502   2.667   9.862  0.8698  0.0236  0.4122
  174SOPE   H5R19746   3.570   2.750   9.834 -0.5972  0.6868 -1.2723
  174SOPE   H5S19747   3.561   2.580   9.898  1.7218  0.3358 -0.2342
  174SOPE   C2619748   3.426   2.641   9.726 -0.8234 -0.4290 -0.2941
  174SOPE   H6R19749   3.503   2.617   9.649  0.1107  1.8577 -0.1106
  174SOPE   H6S19750   3.362   2.551   9.734 -1.0892 -0.2391 -0.2878
  174SOPE   C2719751   3.342   2.758   9.676  0.0446  0.0381  0.4392
  174SOPE   H7R19752   3.257   2.787   9.742 -1.2550 -2.6167 -0.0073
  174SOPE   H7S19753   3.410   2.846   9.680 -0.4094  0.5160 -2.0755
  174SOPE   C2819754   3.289   2.752   9.530 -0.5724 -0.1300  0.1640
  174SOPE   H8R19755   3.234   2.848   9.514 -1.1974 -0.5533 -0.2594
  174SOPE   H8S19756   3.379   2.732   9.468 -0.6338  0.4667 -0.1224
  174SOPE   C2919757   3.187   2.642   9.514  0.4313  0.0048 -0.0938
  174SOPE   H9119758   3.225   2.542   9.540  0.3670 -0.0627 -0.2590
  174SOPE  C21019759   3.052   2.667   9.512 -0.8647 -0.0679 -0.1981
  174SOPE  H10119760   2.981   2.584   9.524  0.9827 -2.1323 -2.8793
  174SOPE  C21119761   2.978   2.797   9.511 -0.2036 -0.9352  0.1130
  174SOPE  H11R19762   2.876   2.771   9.474 -0.5023  0.0469  0.2369
  174SOPE  H11S19763   3.013   2.867   9.432  0.1706 -0.6244  0.5496
  174SOPE  C21219764   2.973   2.873   9.640  0.3935  0.8824  0.4341
  174SOPE  H12R19765   2.920   2.971   9.634  0.3789  0.8237 -0.4828
  174SOPE  H12S19766   3.075   2.885   9.680  1.1345  0.9361 -1.4287
  174SOPE  C21319767   2.905   2.800   9.765 -0.0601  0.1927  0.4344
  174SOPE  H13R19768   2.932   2.693   9.771  1.4270  0.6437  1.9271
  174SOPE  H13S19769   2.797   2.811   9.742  0.1622  0.3105 -0.5625
  174SOPE  C21419770   2.927   2.874   9.892  0.7608 -0.0393 -0.3814
  174SOPE  H14R19771   2.891   2.979   9.888  1.5307  0.1932 -1.2334
  174SOPE  H14S19772   3.036   2.883   9.911  0.6631  4.6102 -1.4976
  174SOPE  C21519773   2.875   2.790  10.011 -0.8895  0.2922  0.1602
  174SOPE  H15R19774   2.922   2.690  10.016  0.2016  0.8843  2.6604
  174SOPE  H15S19775   2.767   2.767   9.999 -0.7001 -0.8239  0.5689
  174SOPE  C21619776   2.907   2.847  10.155  0.0586 -0.7117  0.3047
  174SOPE  H16R19777   2.823   2.816  10.220  0.2180 -1.5366  0.1185
  174SOPE  H16S19778   2.916   2.958  10.164 -0.1207 -0.8270  2.1062
  174SOPE  C21719779   3.031   2.773  10.222  0.3161  0.2721 -0.7670
  174SOPE  H17R19780   3.109   2.783  10.143  2.0621  1.7336  1.0912
  174SOPE  H17S19781   3.006   2.665  10.231 -0.3379  0.4839  0.0538
  174SOPE  C21819782   3.078   2.836  10.352  0.2395  0.4644 -0.0343
  174SOPE  H18R19783   3.180   2.804  10.381  0.3453 -0.2677 -1.1903
  174SOPE  H18S19784   2.997   2.805  10.422  1.5513  0.6629  1.5996
  174SOPE  H18T19785   3.069   2.947  10.349  0.3957  0.4356 -1.8867
  174SOPE   C3319786   3.823   3.155  10.218  0.4378  0.6407  0.4137
  174SOPE   H3X19787   3.931   3.154  10.247  0.9346 -0.4087 -1.3791
  174SOPE   H3Y19788   3.793   3.259  10.194  1.9042  0.7427 -1.1055
  174SOPE   C3419789   3.805   3.076  10.085 -0.5194  0.5091 -0.6582
  174SOPE   H4X19790   3.806   2.967  10.108 -1.1442 -0.1096 -3.3248
  174SOPE   H4Y19791   3.898   3.090  10.025 -0.3827 -0.3308 -0.6486
  174SOPE   C3519792   3.692   3.126   9.998 -0.2081 -0.0816 -0.2488
  174SOPE   H5X19793   3.717   3.232   9.973  1.6996 -0.2430  0.8279
  174SOPE   H5Y19794   3.591   3.107  10.039  0.5004  0.0091  1.5985
  174SOPE   C3619795   3.686   3.034   9.869 -0.4655 -0.1821  0.4757
  174SOPE   H6X19796   3.644   2.936   9.898 -0.2295  0.6067  3.7197
  174SOPE   H6Y19797   3.784   3.036   9.817 -0.6655  1.1198  0.1246
  174SOPE   C3719798   3.591   3.080   9.761 -0.2340  0.1329  0.2304
  174SOPE   H7X19799   3.615   3.189   9.759 -4.7328  1.2516 -1.2433
  174SOPE   H7Y19800   3.484   3.063   9.787 -0.7258 -0.1304 -1.8476
  174SOPE   C3819801   3.612   3.012   9.620  0.8382  0.3504  0.4804
  174SOPE   H8X19802   3.585   2.904   9.620  0.8328  0.2796 -3.2237
  174SOPE   H8Y19803   3.716   3.018   9.581 -0.1606  0.8295 -2.2126
  174SOPE   C3919804   3.520   3.071   9.507  0.0234  0.4840 -0.0024
  174SOPE   H9X19805   3.418   3.041   9.540 -0.0617  0.4265 -0.3086
  174SOPE   H9Y19806   3.538   3.024   9.408  0.9556 -0.8157  0.7675
  174SOPE  C31019807   3.521   3.223   9.500  0.1528  0.2183 -0.2588
  174SOPE  H10X19808   3.615   3.265   9.456  0.7818 -0.4767  0.4080
  174SOPE  H10Y19809   3.516   3.267   9.602  1.3976  0.2018 -0.1745
  174SOPE  C31119810   3.398   3.273   9.421 -0.2924  0.4642 -0.1989
  174SOPE  H11X19811   3.397   3.384   9.429  0.6403  0.6211 -1.8792
  174SOPE  H11Y19812   3.300   3.243   9.462 -0.6592  2.7083  0.6310
  174SOPE  C31219813   3.415   3.254   9.266  0.3103 -0.2063  0.3908
  174SOPE  H12X19814   3.407   3.145   9.248  2.4194 -0.4567  0.9461
  174SOPE  H12Y19815   3.520   3.282   9.243 -0.1843  1.9777  0.6875
  174SOPE  C31319816   3.309   3.332   9.192 -0.3958  0.7660  0.2894
  174SOPE  H13X19817   3.335   3.440   9.197 -0.6901  0.7644  1.8776
  174SOPE  H13Y19818   3.212   3.298   9.233 -0.9002  0.0451 -1.4359
  174SOPE  C31419819   3.314   3.301   9.038 -0.2597 -0.5186  0.7001
  174SOPE  H14X19820   3.423   3.288   9.024 -0.2530 -0.3949  0.6317
  174SOPE  H14Y19821   3.286   3.393   8.982  0.0898 -0.1790  1.0830
  174SOPE  C31519822   3.234   3.181   8.993 -0.6412  0.3105  0.5891
  174SOPE  H15X19823   3.132   3.199   9.032 -1.6710 -2.3760 -0.7263
  174SOPE  H15Y19824   3.271   3.084   9.032 -0.8614 -0.4494 -1.0388
  174SOPE  C31619825   3.217   3.171   8.845 -0.7296 -0.1310 -0.6298
  174SOPE  H16X19826   3.173   3.073   8.814 -0.9868 -0.4705  0.7797
  174SOPE  H16Y19827   3.314   3.171   8.790 -0.2822 -1.0166  0.1252
  174SOPE  C31719828   3.135   3.284   8.785 -0.0102  0.8623  0.1153
  174SOPE  H17X19829   3.174   3.385   8.811  0.6191  0.5432  0.4006
  174SOPE  H17Y19830   3.031   3.274   8.822 -0.3185  0.4304 -0.8422
  174SOPE  C31819831   3.135   3.274   8.634 -0.6291  0.6269 -0.0351
  174SOPE  H18X19832   3.234   3.307   8.596 -0.3799 -1.2119 -1.0403
  174SOPE  H18Y19833   3.061   3.344   8.591  1.8381  1.8255 -2.4421
  174SOPE  H18Z19834   3.103   3.175   8.595 -0.0589  0.5646 -0.3514
  175SOPE     N19835   5.239   4.655  10.758 -0.5559 -0.0322 -0.4882
  175SOPE   HN119836   5.278   4.724  10.690  0.5182  0.5221  0.6678
  175SOPE   HN219837   5.324   4.626  10.811  0.0515 -0.3421 -1.6210
  175SOPE   HN319838   5.201   4.565  10.724 -0.8430 -0.0958 -0.0118
  175SOPE   C1219839   5.138   4.703  10.857  0.5104  0.4233 -0.7030
  175SOPE  H12A19840   5.171   4.801  10.897 -1.1560  0.1911  1.3257
  175SOPE  H12B19841   5.125   4.624  10.933  1.3503 -0.4709 -1.4660
  175SOPE   C1119842   5.013   4.741  10.784  0.3050  0.4055 -0.4865
  175SOPE  H11A19843   4.942   4.796  10.849  0.2403  1.4767 -1.4481
  175SOPE  H11B19844   4.971   4.640  10.763  2.1348 -0.7758  1.2791
  175SOPE     P19845   4.925   4.819  10.555 -0.2643 -0.5404 -0.0778
  175SOPE   O1319846   4.981   4.911  10.447 -0.2177  0.0522 -0.5047
  175SOPE   O1419847   4.798   4.866  10.618  0.1616  0.4678  0.0242
  175SOPE   O1219848   5.038   4.814  10.665 -0.0632  0.0997  0.7316
  175SOPE   O1119849   4.924   4.671  10.507 -0.0918 -0.0355  0.2113
  175SOPE    C119850   4.982   4.624  10.387  0.0194 -0.0670 -0.2295
  175SOPE    HA19851   5.040   4.531  10.402 -0.3905 -0.9541 -3.8227
  175SOPE    HB19852   5.057   4.697  10.350  0.8031 -1.1626 -0.8364
  175SOPE    C219853   4.871   4.605  10.282  0.0152 -0.4387  0.0313
  175SOPE    HS19854   4.822   4.704  10.266  1.2602  0.2488  0.4230
  175SOPE   O2119855   4.786   4.507  10.339 -0.2550  0.2159 -0.3485
  175SOPE   C2119856   4.662   4.517  10.307 -0.2336 -0.0541  0.3416
  175SOPE   O2219857   4.616   4.585  10.219 -0.5347 -0.4078  0.2891
  175SOPE   C2219858   4.585   4.414  10.384 -0.1896  0.4925  0.8622
  175SOPE   H2R19859   4.509   4.470  10.442 -3.4259 -1.1358 -1.6544
  175SOPE   H2S19860   4.647   4.352  10.452 -0.1975  1.1941  1.5142
  175SOPE    C319861   4.920   4.552  10.146  0.2033  0.0313 -0.1117
  175SOPE    HX19862   4.982   4.462  10.163  2.3212  0.9175 -2.6755
  175SOPE    HY19863   4.997   4.621  10.104  1.1038  0.7455  2.6383
  175SOPE   O3119864   4.812   4.514  10.056 -1.3968  0.5261  0.0119
  175SOPE   C3119865   4.775   4.599   9.967  0.1582  0.0068  0.2340
  175SOPE   O3219866   4.823   4.703   9.935 -0.0407 -0.1407  0.0071
  175SOPE   C3219867   4.647   4.542   9.905 -0.4421  0.4083 -0.3632
  175SOPE   H2X19868   4.586   4.502   9.989  1.3365  1.0844  1.2771
  175SOPE   H2Y19869   4.688   4.463   9.838 -0.7661 -0.3275  0.2921
  175SOPE   C2319870   4.502   4.323  10.288  0.1758  0.4167 -0.3961
  175SOPE   H3R19871   4.467   4.374  10.196  1.0975  0.5402 -0.6808
  175SOPE   H3S19872   4.414   4.284  10.344  0.5416  0.9760  0.5878
  175SOPE   C2419873   4.565   4.187  10.245 -0.1422 -0.5563 -0.4957
  175SOPE   H4R19874   4.576   4.120  10.332 -1.8852 -1.0459 -0.6411
  175SOPE   H4S19875   4.485   4.139  10.185 -0.1259 -2.9371  1.3425
  175SOPE   C2519876   4.699   4.192  10.170 -0.3335 -0.2787 -0.4501
  175SOPE   H5R19877   4.685   4.285  10.111 -1.4224  0.2556  0.6162
  175SOPE   H5S19878   4.782   4.214  10.240 -0.1217 -2.3549 -0.0158
  175SOPE   C2619879   4.725   4.069  10.080 -0.1145 -0.2437 -0.2730
  175SOPE   H6R19880   4.820   4.085  10.024 -0.4043  3.8751  0.2916
  175SOPE   H6S19881   4.740   3.987  10.154  0.4589 -0.3484 -0.5072
  175SOPE   C2719882   4.612   4.021   9.986  0.5607 -0.0327  0.4977
  175SOPE   H7R19883   4.651   3.929   9.938  0.3394 -0.4023  1.0175
  175SOPE   H7S19884   4.521   3.986  10.039 -0.5406  1.6167 -0.2559
  175SOPE   C2819885   4.569   4.123   9.880 -0.3044 -0.9178  0.0949
  175SOPE   H8R19886   4.567   4.221   9.933 -1.0029 -1.2480  0.6889
  175SOPE   H8S19887   4.651   4.138   9.807 -1.3443  1.1223 -0.7081
  175SOPE   C2919888   4.445   4.076   9.814  0.1035 -0.0143  0.3225
  175SOPE   H9119889   4.359   4.049   9.877  0.1795 -0.8991  0.0666
  175SOPE  C21019890   4.436   4.041   9.682 -0.0237  0.1320  0.1183
  175SOPE  H10119891   4.346   3.991   9.644 -0.1507 -0.2112  0.8573
  175SOPE  C21119892   4.543   4.051   9.577  0.4706  0.1312 -0.0479
  175SOPE  H11R19893   4.612   3.966   9.593 -0.6001 -0.7024  0.1573
  175SOPE  H11S19894   4.600   4.146   9.578 -3.4952  2.6812 -1.8960
  175SOPE  C21219895   4.482   4.044   9.437  0.0976 -0.4964  0.6412
  175SOPE  H12R19896   4.387   4.099   9.424 -0.5145 -1.5162  0.7225
  175SOPE  H12S19897   4.445   3.942   9.415 -2.4894  0.7983 -1.3318
  175SOPE  C21319898   4.585   4.090   9.330 -0.1761  0.3845  0.1766
  175SOPE  H13R19899   4.674   4.029   9.356 -0.4081  0.1897  0.5352
  175SOPE  H13S19900   4.606   4.198   9.343  2.4044 -0.2302  1.4864
  175SOPE  C21419901   4.556   4.037   9.187  0.1496  0.2574 -0.5484
  175SOPE  H14R19902   4.461   4.081   9.151 -0.3494 -0.8660 -0.5962
  175SOPE  H14S19903   4.551   3.926   9.188  1.6604  0.1841 -0.3052
  175SOPE  C21519904   4.667   4.075   9.092  0.3028 -0.3384 -0.4636
  175SOPE  H15R19905   4.768   4.041   9.123  1.5114 -0.5348 -4.3594
  175SOPE  H15S19906   4.689   4.184   9.097  0.5072 -0.3863 -0.3274
  175SOPE  C21619907   4.654   4.027   8.949 -0.0257 -0.5391  0.3536
  175SOPE  H16R19908   4.648   3.916   8.952  0.0434 -0.5768 -0.6633
  175SOPE  H16S19909   4.744   4.054   8.891  0.4340  0.8704  1.6914
  175SOPE  C21719910   4.547   4.091   8.876 -0.1740  0.1215  0.5975
  175SOPE  H17R19911   4.567   4.199   8.864  3.2012 -0.2194  2.3712
  175SOPE  H17S19912   4.450   4.085   8.930  1.1725 -0.7771  2.9850
  175SOPE  C21819913   4.530   4.040   8.734  0.1409 -0.0334 -0.2980
  175SOPE  H18R19914   4.614   4.069   8.667  0.8859  0.2034  0.7237
  175SOPE  H18S19915   4.435   4.086   8.698 -0.7304 -1.1278  0.5507
  175SOPE  H18T19916   4.511   3.931   8.739 -1.2537  0.2717  1.4096
  175SOPE   C3319917   4.563   4.648   9.826 -0.1102 -0.2270 -0.2533
  175SOPE   H3X19918   4.569   4.736   9.894 -0.8995  0.2515 -0.8066
  175SOPE   H3Y19919   4.459   4.610   9.827  0.0697 -0.8048 -2.3442
  175SOPE   C3419920   4.613   4.666   9.679  0.3229  0.0704  0.0016
  175SOPE   H4X19921   4.721   4.689   9.666  0.6273 -2.3226 -2.1454
  175SOPE   H4Y19922   4.560   4.750   9.630  2.2111  0.7951 -0.8336
  175SOPE   C3519923   4.587   4.549   9.577  0.4517 -0.2968 -0.1200
  175SOPE   H5X19924   4.482   4.519   9.599  0.3205  0.7834  0.8065
  175SOPE   H5Y19925   4.656   4.463   9.592 -0.0261 -0.1737  3.2778
  175SOPE   C3619926   4.596   4.585   9.424  0.0233  0.6337 -0.4237
  175SOPE   H6X19927   4.699   4.627   9.411  0.8979 -0.1403  3.4074
  175SOPE   H6Y19928   4.529   4.669   9.396  0.0183  0.9778  0.6013
  175SOPE   C3719929   4.558   4.466   9.338  0.2394  0.1512 -0.1029
  175SOPE   H7X19930   4.490   4.397   9.393  0.1029  0.0486 -0.4018
  175SOPE   H7Y19931   4.654   4.412   9.324 -1.2581 -2.2078 -1.5302
  175SOPE   C3819932   4.492   4.492   9.206  0.6320 -0.6066  0.6052
  175SOPE   H8X19933   4.389   4.515   9.241  0.2714  1.6052 -1.7308
  175SOPE   H8Y19934   4.498   4.402   9.141 -0.4482  0.0493 -0.4252
  175SOPE   C3919935   4.546   4.609   9.116 -0.0199 -0.0861  0.3876
  175SOPE   H9X19936   4.654   4.616   9.091 -0.2269  1.5061 -0.0768
  175SOPE   H9Y19937   4.526   4.702   9.173  0.7952  0.5674 -0.3939
  175SOPE  C31019938   4.487   4.612   8.972  0.2249  0.7429 -0.0361
  175SOPE  H10X19939   4.377   4.594   8.979  0.4710 -1.3804 -1.0965
  175SOPE  H10Y19940   4.522   4.533   8.902 -0.9439 -0.1253  0.3397
  175SOPE  C31119941   4.514   4.740   8.905 -0.2150 -0.0811 -0.3855
  175SOPE  H11X19942   4.624   4.740   8.889 -0.1686 -4.1531 -0.5765
  175SOPE  H11Y19943   4.495   4.831   8.964  1.1749  1.3239 -2.0152
  175SOPE  C31219944   4.451   4.746   8.761 -0.3236  0.5615 -0.1866
  175SOPE  H12X19945   4.342   4.752   8.782 -0.2364  1.5717  0.0083
  175SOPE  H12Y19946   4.489   4.656   8.707  1.1196  0.9582  0.1604
  175SOPE  C31319947   4.479   4.860   8.667 -0.4238 -0.3874 -0.5093
  175SOPE  H13X19948   4.452   4.963   8.697  2.0834  0.1581  0.0408
  175SOPE  H13Y19949   4.417   4.850   8.575  0.2956  0.2773 -1.0771
  175SOPE  C31419950   4.622   4.855   8.605  0.6460  0.0827  0.0523
  175SOPE  H14X19951   4.638   4.756   8.558 -2.5361 -0.6198  0.3181
  175SOPE  H14Y19952   4.702   4.871   8.679  0.4681 -0.1033  0.2849
  175SOPE  C31519953   4.650   4.943   8.480 -0.0255 -0.0427  0.1077
  175SOPE  H15X19954   4.633   5.052   8.497 -1.4780 -0.3574  0.7763
  175SOPE  H15Y19955   4.574   4.912   8.405  0.4821 -0.0921 -0.3929
  175SOPE  C31619956   4.787   4.905   8.414  1.3297  0.2399 -0.2228
  175SOPE  H16X19957   4.790   4.794   8.401  3.1838 -0.2671  3.8724
  175SOPE  H16Y19958   4.867   4.939   8.483  0.4959  1.3310  0.2294
  175SOPE  C31719959   4.803   4.979   8.283  0.4282 -0.1214 -0.1812
  175SOPE  H17X19960   4.795   5.088   8.302  0.1426  0.0911 -1.4333
  175SOPE  H17Y19961   4.722   4.958   8.209  0.4922  1.8789 -0.8605
  175SOPE  C31819962   4.941   4.959   8.221  0.3226 -0.0454 -0.4546
  175SOPE  H18X19963   5.015   5.011   8.286 -2.2859 -0.2768  2.8555
  175SOPE  H18Y19964   4.929   5.013   8.124 -0.3093 -0.4297 -0.5932
  175SOPE  H18Z19965   4.979   4.857   8.199 -1.3282 -0.8913  0.5274
  176SOPE     N19966   4.431   3.392  10.662 -0.0096  0.3364 -0.0639
  176SOPE   HN119967   4.449   3.470  10.595 -1.6060 -0.9138 -2.0153
  176SOPE   HN219968   4.402   3.302  10.618 -0.8004  0.3164  0.4895
  176SOPE   HN319969   4.348   3.423  10.716 -0.5512  1.3139 -1.4263
  176SOPE   C1219970   4.553   3.384  10.751  0.2645  0.4641  0.7283
  176SOPE  H12A19971   4.636   3.342  10.691  0.9309  0.3768  1.6878
  176SOPE  H12B19972   4.520   3.306  10.824 -2.5830  1.3903  0.5077
  176SOPE   C1119973   4.590   3.511  10.812  0.2186  0.4693 -0.0891
  176SOPE  H11A19974   4.655   3.575  10.747  1.2832  0.4352  0.9369
  176SOPE  H11B19975   4.650   3.482  10.900  0.4865  1.2985  0.0117
  176SOPE     P19976   4.428   3.716  10.815  0.1358  0.3046 -0.0873
  176SOPE   O1319977   4.510   3.807  10.891 -0.2900 -0.4351 -0.0442
  176SOPE   O1419978   4.284   3.720  10.818 -0.1518  0.1906  0.7227
  176SOPE   O1219979   4.467   3.569  10.861 -0.6564 -0.4265 -0.3038
  176SOPE   O1119980   4.472   3.715  10.669 -0.3911 -0.4644  0.4687
  176SOPE    C119981   4.428   3.797  10.568  0.0635 -0.6730 -0.3338
  176SOPE    HA19982   4.445   3.905  10.590 -1.9714 -0.4429  0.1828
  176SOPE    HB19983   4.318   3.784  10.560 -0.1631  0.6670  0.2700
  176SOPE    C219984   4.483   3.748  10.437 -0.0774 -0.4169  0.1500
  176SOPE    HS19985   4.430   3.651  10.421 -0.5048 -0.3044  0.8603
  176SOPE   O2119986   4.628   3.744  10.431  0.3888  0.3232  0.0475
  176SOPE   C2119987   4.676   3.621  10.441  0.3611  0.1348 -0.4967
  176SOPE   O2219988   4.613   3.523  10.481  0.3620  0.0061 -0.0671
  176SOPE   C2219989   4.827   3.623  10.426 -0.7508 -0.2018 -0.6217
  176SOPE   H2R19990   4.871   3.563  10.508 -1.5767 -0.5910 -0.4595
  176SOPE   H2S19991   4.862   3.728  10.430 -1.5253  0.1641 -2.6623
  176SOPE    C319992   4.430   3.849  10.334 -0.2854 -0.1365 -0.1584
  176SOPE    HX19993   4.497   3.936  10.355  1.2456 -1.3270 -0.0580
  176SOPE    HY19994   4.323   3.871  10.352 -0.3071  0.0749 -0.5200
  176SOPE   O3119995   4.438   3.797  10.199 -0.0585  0.1062  0.5850
  176SOPE   C3119996   4.341   3.720  10.155  0.0658 -1.0522 -0.2446
  176SOPE   O3219997   4.246   3.679  10.214  0.0226  0.4106  0.0396
  176SOPE   C3219998   4.370   3.679  10.007 -0.1945 -0.3031  0.6735
  176SOPE   H2X19999   4.414   3.577  10.008 -1.2976 -0.7756  2.4825
  176SOPE   H2Y20000   4.450   3.746   9.969  0.5062 -0.5600  1.6639
  176SOPE   C2320001   4.875   3.570  10.292 -0.4374  0.6289  0.6838
  176SOPE   H3R20002   4.842   3.466  10.272  0.8051  0.5520 -1.1229
  176SOPE   H3S20003   4.986   3.567  10.288 -0.5040 -2.6967 -1.7071
  176SOPE   C2420004   4.839   3.659  10.180  0.3282 -0.1955 -0.8470
  176SOPE   H4R20005   4.730   3.679  10.177  0.3317  0.5482  2.4551
  176SOPE   H4S20006   4.886   3.754  10.213 -1.6379 -0.0904  1.7692
  176SOPE   C2520007   4.892   3.616  10.045  0.0192  0.2410  0.3222
  176SOPE   H5R20008   4.999   3.591  10.036 -0.6587 -1.9273 -2.3054
  176SOPE   H5S20009   4.848   3.523  10.002  0.8828 -1.5591  3.1923
  176SOPE   C2620010   4.879   3.730   9.947 -0.6483  0.2250  0.0614
  176SOPE   H6R20011   4.781   3.780   9.969 -0.8217  0.5281 -1.3334
  176SOPE   H6S20012   4.965   3.800   9.955 -0.5944  0.0218  1.4040
  176SOPE   C2720013   4.882   3.678   9.800  0.6777 -0.6945  0.1752
  176SOPE   H7R20014   4.990   3.677   9.773  0.3872 -0.1266 -1.0608
  176SOPE   H7S20015   4.833   3.581   9.779 -0.1304 -1.2055  4.0462
  176SOPE   C2820016   4.805   3.772   9.710 -0.6260  0.2305 -0.2787
  176SOPE   H8R20017   4.697   3.779   9.735 -1.7298 -1.0134 -4.2671
  176SOPE   H8S20018   4.857   3.868   9.725  0.6254 -0.5267  0.2769
  176SOPE   C2920019   4.833   3.712   9.572  0.2871  0.0668  0.0039
  176SOPE   H9120020   4.794   3.611   9.554  0.8400 -0.1962  0.2740
  176SOPE  C21020021   4.905   3.766   9.472 -0.0378 -0.3667  0.3514
  176SOPE  H10120022   4.917   3.712   9.376  0.5269  0.2027  0.0970
  176SOPE  C21120023   4.956   3.904   9.463 -0.3701 -0.1631 -0.6952
  176SOPE  H11R20024   4.945   3.971   9.551  1.7254  1.5879 -1.7091
  176SOPE  H11S20025   4.891   3.961   9.393 -0.6632  2.5550  1.6847
  176SOPE  C21220026   5.095   3.923   9.404  0.4851  0.1877  0.4682
  176SOPE  H12R20027   5.136   4.023   9.430 -2.3602  1.4900  0.1960
  176SOPE  H12S20028   5.082   3.919   9.294  1.0548 -2.8847  0.4848
  176SOPE  C21320029   5.192   3.813   9.434  0.4657 -0.4973 -0.3357
  176SOPE  H13R20030   5.284   3.829   9.374 -0.4100  1.1196 -1.2936
  176SOPE  H13S20031   5.154   3.716   9.396 -1.1095  1.0766 -2.8977
  176SOPE  C21420032   5.226   3.805   9.584 -0.1158  0.3989  0.3984
  176SOPE  H14R20033   5.134   3.783   9.642 -1.2596  0.4649 -1.3782
  176SOPE  H14S20034   5.251   3.909   9.614  1.4887  0.5799 -1.4400
  176SOPE  C21520035   5.336   3.703   9.617  0.1154 -0.3756 -0.1391
  176SOPE  H15R20036   5.427   3.742   9.566  0.3008  0.1336  0.5680
  176SOPE  H15S20037   5.308   3.602   9.580 -0.5527 -0.2161 -0.0794
  176SOPE  C21620038   5.367   3.697   9.768 -0.0933  0.0074 -0.1692
  176SOPE  H16R20039   5.343   3.789   9.825 -3.3670 -0.0559 -1.3404
  176SOPE  H16S20040   5.477   3.688   9.784 -0.1404  1.6808  1.3310
  176SOPE  C21720041   5.302   3.585   9.835 -0.1927  0.3511 -0.6749
  176SOPE  H17R20042   5.343   3.488   9.801 -0.6220  0.9017 -2.8579
  176SOPE  H17S20043   5.196   3.583   9.802 -0.0012 -0.7315 -1.2513
  176SOPE  C21820044   5.310   3.599   9.989 -0.2683 -0.1262 -0.5064
  176SOPE  H18R20045   5.212   3.633  10.027 -0.6417 -1.1693 -0.5241
  176SOPE  H18S20046   5.394   3.668  10.012 -1.6348  0.7906  1.8691
  176SOPE  H18T20047   5.325   3.498  10.033 -1.1863  1.0166  2.4801
  176SOPE   C3320048   4.240   3.689   9.917 -0.5505  0.5024  0.2252
  176SOPE   H3X20049   4.196   3.791   9.919 -0.5101  0.5230  0.0984
  176SOPE   H3Y20050   4.164   3.618   9.954 -2.4670  0.5706 -3.3561
  176SOPE   C3420051   4.289   3.653   9.776 -0.2660  0.2222  0.0082
  176SOPE   H4X20052   4.325   3.549   9.784  2.3251  1.1051  0.2248
  176SOPE   H4Y20053   4.370   3.727   9.760 -0.3518  0.3190  0.0168
  176SOPE   C3520054   4.185   3.670   9.657 -0.1151 -0.2856 -0.0260
  176SOPE   H5X20055   4.195   3.780   9.649 -2.3805  0.0075  0.7041
  176SOPE   H5Y20056   4.087   3.638   9.698 -0.0211 -1.4660 -0.6745
  176SOPE   C3620057   4.211   3.590   9.529  0.3250  0.6589  0.1040
  176SOPE   H6X20058   4.124   3.616   9.465 -0.0121 -0.2847  0.1719
  176SOPE   H6Y20059   4.201   3.484   9.560 -0.4393  0.7120  0.0504
  176SOPE   C3720060   4.349   3.615   9.463 -0.3208  0.3666  0.8534
  176SOPE   H7X20061   4.414   3.582   9.547  3.2709 -1.0682 -2.3240
  176SOPE   H7Y20062   4.363   3.724   9.442  0.2460 -0.1275 -1.4195
  176SOPE   C3820063   4.382   3.522   9.346 -0.2619 -0.0984 -0.2165
  176SOPE   H8X20064   4.297   3.525   9.275 -2.4435 -1.2388  2.2677
  176SOPE   H8Y20065   4.382   3.424   9.398  0.0777 -0.9752 -1.8475
  176SOPE   C3920066   4.516   3.552   9.277  0.1820 -0.2482 -0.0427
  176SOPE   H9X20067   4.590   3.549   9.360  0.4796  1.4925 -0.2228
  176SOPE   H9Y20068   4.512   3.654   9.232 -1.6725 -1.3283 -2.4571
  176SOPE  C31020069   4.550   3.453   9.158 -0.2644 -0.8604 -0.3022
  176SOPE  H10X20070   4.458   3.426   9.101 -1.1570 -2.0875  1.6866
  176SOPE  H10Y20071   4.568   3.353   9.201 -1.8520 -1.1359 -0.2586
  176SOPE  C31120072   4.671   3.501   9.068  0.3514  0.5267 -0.0601
  176SOPE  H11X20073   4.696   3.419   8.998 -0.1175 -1.1657  1.6958
  176SOPE  H11Y20074   4.760   3.506   9.134  0.7469  1.8252 -0.6639
  176SOPE  C31220075   4.649   3.637   8.999 -0.1967  0.5872 -0.3353
  176SOPE  H12X20076   4.653   3.728   9.062 -0.1715 -0.2241  0.8558
  176SOPE  H12Y20077   4.550   3.634   8.950 -0.0525  0.7486 -0.6336
  176SOPE  C31320078   4.741   3.647   8.882 -0.4325 -0.6220  0.1884
  176SOPE  H13X20079   4.708   3.731   8.817 -0.9497 -0.9671 -0.0024
  176SOPE  H13Y20080   4.715   3.570   8.807 -0.5154  0.2593 -0.6987
  176SOPE  C31420081   4.889   3.658   8.903  0.4675  0.0661 -0.1050
  176SOPE  H14X20082   4.947   3.661   8.808  1.7029  2.3672  0.6712
  176SOPE  H14Y20083   4.934   3.580   8.968  1.7502  2.0971  1.5281
  176SOPE  C31520084   4.939   3.781   8.981  0.5171  0.0466 -0.4789
  176SOPE  H15X20085   4.877   3.783   9.074 -0.1845  0.0215 -0.9408
  176SOPE  H15Y20086   4.908   3.869   8.922 -0.9664 -1.3207 -1.7960
  176SOPE  C31620087   5.095   3.775   9.012  0.9151  0.1781 -0.0074
  176SOPE  H16X20088   5.147   3.689   8.965  1.7566  0.8349 -0.2943
  176SOPE  H16Y20089   5.106   3.753   9.121  1.1118 -0.1273 -0.0887
  176SOPE  C31720090   5.161   3.905   8.972 -0.1509  0.8832  0.4800
  176SOPE  H17X20091   5.266   3.906   9.008  0.8135 -1.0355 -2.1276
  176SOPE  H17Y20092   5.112   3.994   9.019 -4.2517  1.1401 -3.8983
  176SOPE  C31820093   5.167   3.935   8.826 -0.0192 -0.0436 -0.1554
  176SOPE  H18X20094   5.205   3.848   8.768  1.3731 -1.0635  2.1906
  176SOPE  H18Y20095   5.246   4.010   8.803 -0.3604  0.0102 -1.1872
  176SOPE  H18Z20096   5.069   3.966   8.784 -0.1062 -0.4056 -0.2172
  177SOPE     N20097   3.671   2.167  10.835  0.1366  0.1083 -0.3029
  177SOPE   HN120098   3.657   2.218  10.745 -0.4152  0.8007  0.1640
  177SOPE   HN220099   3.642   2.226  10.916 -2.0053 -1.6269  0.2331
  177SOPE   HN320100   3.773   2.150  10.848  0.2486 -1.2124 -2.6607
  177SOPE   C1220101   3.603   2.031  10.833 -0.6854 -0.0044  0.2130
  177SOPE  H12A20102   3.621   1.975  10.739  1.7272  0.1720  0.5342
  177SOPE  H12B20103   3.497   2.060  10.851 -0.4102  0.5519  0.9461
  177SOPE   C1120104   3.636   1.939  10.951 -0.1421  0.3765 -0.3214
  177SOPE  H11A20105   3.574   1.849  10.935 -1.4255  1.1333  0.3474
  177SOPE  H11B20106   3.598   1.965  11.052  1.8002  0.3886  0.4381
  177SOPE     P20107   3.838   1.788  10.883  0.2517 -0.1832 -0.1229
  177SOPE   O1320108   3.807   1.673  10.975 -0.6255 -0.1617  0.2989
  177SOPE   O1420109   3.980   1.815  10.851  0.2394 -0.5331  0.4847
  177SOPE   O1220110   3.777   1.912  10.964 -0.0597 -0.5521 -0.2708
  177SOPE   O1120111   3.761   1.781  10.745  0.2654 -0.1222  0.3943
  177SOPE    C120112   3.803   1.679  10.654 -0.2354 -0.8380 -0.0181
  177SOPE    HA20113   3.752   1.584  10.683 -0.9654 -0.5136 -0.2332
  177SOPE    HB20114   3.908   1.644  10.661 -0.5883 -1.9550 -0.0813
  177SOPE    C220115   3.755   1.710  10.514 -0.5147 -0.5251 -0.2455
  177SOPE    HS20116   3.809   1.641  10.445  0.1423 -1.0053  0.7355
  177SOPE   O2120117   3.794   1.846  10.478  0.2452  0.2561  0.5867
  177SOPE   C2120118   3.922   1.883  10.468  0.0180  0.4644 -0.7205
  177SOPE   O2220119   4.020   1.811  10.488 -0.3901  0.2330 -0.2957
  177SOPE   C2220120   3.925   2.028  10.408 -0.6555 -0.7042  0.1051
  177SOPE   H2R20121   4.011   2.084  10.452 -1.8038  0.4380  0.9380
  177SOPE   H2S20122   3.834   2.084  10.439 -0.7582 -0.7114 -0.1807
  177SOPE    C320123   3.604   1.690  10.510 -0.0648 -0.1276 -0.0738
  177SOPE    HX20124   3.569   1.793  10.532 -0.1815  0.3662 -2.4344
  177SOPE    HY20125   3.575   1.622  10.593  1.9108 -1.0360 -0.1079
  177SOPE   O3120126   3.560   1.639  10.382  0.0512  0.1165 -0.4651
  177SOPE   C3120127   3.579   1.716  10.277  0.1676 -0.3129  0.1091
  177SOPE   O3220128   3.591   1.837  10.275 -0.3259  0.1308  0.1134
  177SOPE   C3220129   3.560   1.638  10.144 -0.1892 -0.3991 -0.1893
  177SOPE   H2X20130   3.450   1.642  10.127 -0.1398 -0.6662 -0.5674
  177SOPE   H2Y20131   3.585   1.530  10.151 -0.6303 -0.4752  0.2402
  177SOPE   C2320132   3.927   2.018  10.262  0.5524 -0.2822  0.7945
  177SOPE   H3R20133   3.933   2.121  10.220  0.8185 -1.0148 -0.9731
  177SOPE   H3S20134   3.827   1.979  10.232  1.1267 -1.4281  0.3582
  177SOPE   C2420135   4.042   1.942  10.197 -0.1475 -0.4680  0.5014
  177SOPE   H4R20136   4.137   1.976  10.243  0.4404 -1.6110  0.1546
  177SOPE   H4S20137   4.019   1.835  10.221 -1.8912 -0.0697  0.6599
  177SOPE   C2520138   4.041   1.972  10.044  0.2328  0.3280 -1.1764
  177SOPE   H5R20139   4.128   1.915  10.004  1.1587  1.0689 -0.2446
  177SOPE   H5S20140   3.946   1.940   9.997  0.6120 -2.9255  0.0930
  177SOPE   C2620141   4.080   2.114  10.004 -0.4192  0.1886  0.1269
  177SOPE   H6R20142   4.005   2.189  10.038 -0.3355  0.1085  0.4916
  177SOPE   H6S20143   4.176   2.140  10.054 -0.4127  0.5053 -0.0453
  177SOPE   C2720144   4.096   2.134   9.853  0.2836 -0.3850 -0.0240
  177SOPE   H7R20145   4.153   2.226   9.826 -1.9997  0.8234 -0.8699
  177SOPE   H7S20146   4.161   2.049   9.821  1.8227  0.3554  1.0587
  177SOPE   C2820147   3.966   2.131   9.768  0.1456 -0.0243 -0.1203
  177SOPE   H8R20148   3.890   2.188   9.826  0.3823  2.0717 -1.8280
  177SOPE   H8S20149   3.983   2.193   9.678  0.2222  0.8909  0.5153
  177SOPE   C2920150   3.902   2.005   9.727  0.1597  0.6492 -0.1531
  177SOPE   H9120151   3.823   1.966   9.793 -0.0138  1.7389  0.2959
  177SOPE  C21020152   3.940   1.922   9.623  0.4341  0.1983 -0.0371
  177SOPE  H10120153   3.882   1.833   9.598  0.3356  0.5884 -1.2128
  177SOPE  C21120154   4.050   1.935   9.521  0.1205  0.1359 -0.8238
  177SOPE  H11R20155   4.121   1.851   9.537 -0.0353  0.4596  1.8167
  177SOPE  H11S20156   4.110   2.027   9.539  2.1508 -1.0553 -1.3453
  177SOPE  C21220157   3.988   1.935   9.382  0.1161  0.1425  0.1044
  177SOPE  H12R20158   3.931   2.031   9.384  1.2059  0.8190 -0.6522
  177SOPE  H12S20159   3.916   1.853   9.362 -1.4548  1.1463  1.4933
  177SOPE  C21320160   4.091   1.941   9.265  0.5457  0.3583  0.0827
  177SOPE  H13R20161   4.176   2.008   9.288  0.7504  0.0229  0.3028
  177SOPE  H13S20162   4.036   1.980   9.176  0.0954  1.9979  1.0557
  177SOPE  C21420163   4.136   1.800   9.242 -0.3205  0.9693 -0.1299
  177SOPE  H14R20164   4.050   1.740   9.207  0.9156 -0.0122 -1.5371
  177SOPE  H14S20165   4.182   1.764   9.337  0.4735  2.1219 -0.0671
  177SOPE  C21520166   4.244   1.789   9.131  0.1209  0.1387 -0.3112
  177SOPE  H15R20167   4.329   1.848   9.171 -0.7965 -0.7108  3.1186
  177SOPE  H15S20168   4.214   1.846   9.041  0.5543 -0.1552 -0.6415
  177SOPE  C21620169   4.286   1.644   9.091  0.0826 -0.1480  0.6994
  177SOPE  H16R20170   4.203   1.589   9.042  0.7618 -1.1955  0.7077
  177SOPE  H16S20171   4.314   1.585   9.181  0.8768 -0.1595  0.4484
  177SOPE  C21720172   4.405   1.637   8.999 -0.1310  0.4587 -0.4961
  177SOPE  H17R20173   4.441   1.533   8.988 -2.2340 -0.0755 -2.6596
  177SOPE  H17S20174   4.486   1.684   9.059  1.8771 -3.7291  0.2489
  177SOPE  C21820175   4.402   1.711   8.868  0.5488  0.2261  0.0272
  177SOPE  H18R20176   4.386   1.817   8.894 -2.9002 -0.4416  0.9348
  177SOPE  H18S20177   4.312   1.681   8.809 -1.5744  2.2860  2.1409
  177SOPE  H18T20178   4.492   1.699   8.804 -1.1512  1.5020 -2.6875
  177SOPE   C3320179   3.625   1.677  10.009  0.2868 -0.8999  0.0961
  177SOPE   H3X20180   3.718   1.616  10.001 -0.5502 -2.0504 -0.9486
  177SOPE   H3Y20181   3.647   1.786  10.007 -1.8947 -0.3980 -4.5683
  177SOPE   C3420182   3.542   1.644   9.887 -0.2551  0.1373 -0.1612
  177SOPE   H4X20183   3.439   1.683   9.896 -0.5978 -0.3611 -1.7467
  177SOPE   H4Y20184   3.516   1.536   9.881 -0.7513  0.2224  0.4144
  177SOPE   C3520185   3.618   1.695   9.761 -0.2059 -0.2037 -0.0380
  177SOPE   H5X20186   3.728   1.683   9.768 -0.0891 -0.5632 -2.2209
  177SOPE   H5Y20187   3.606   1.804   9.741  2.1864 -0.0782 -1.0270
  177SOPE   C3620188   3.571   1.621   9.634  0.0496  0.3451 -0.2852
  177SOPE   H6X20189   3.462   1.644   9.634  0.4953  2.5418 -2.0485
  177SOPE   H6Y20190   3.586   1.512   9.650  2.1256  0.7121  0.4239
  177SOPE   C3720191   3.635   1.673   9.501 -0.2587  0.4900 -0.1425
  177SOPE   H7X20192   3.745   1.680   9.518 -0.5601  0.4834  2.0007
  177SOPE   H7Y20193   3.604   1.776   9.473  0.3646  1.2280  1.7677
  177SOPE   C3820194   3.615   1.587   9.371 -0.1634 -0.3320 -0.1052
  177SOPE   H8X20195   3.507   1.561   9.371 -0.7317  1.8660  0.9323
  177SOPE   H8Y20196   3.675   1.494   9.374  2.0384  1.0546  0.6670
  177SOPE   C3920197   3.650   1.662   9.239  0.4109 -0.4425  0.5819
  177SOPE   H9X20198   3.738   1.726   9.262  0.6189 -0.0711 -1.2150
  177SOPE   H9Y20199   3.567   1.733   9.220 -0.3751 -1.8249 -1.2173
  177SOPE  C31020200   3.710   1.570   9.130  0.2469 -0.5072 -0.4270
  177SOPE  H10X20201   3.628   1.501   9.102  2.0223 -3.0328  0.4003
  177SOPE  H10Y20202   3.791   1.507   9.174 -0.9418 -1.6960  0.0729
  177SOPE  C31120203   3.765   1.647   9.014 -0.5114 -0.3014  0.4868
  177SOPE  H11X20204   3.855   1.697   9.056 -2.1808  0.3119  3.4947
  177SOPE  H11Y20205   3.694   1.730   8.995 -2.1147 -1.3799  1.6212
  177SOPE  C31220206   3.810   1.562   8.896  0.4719  0.2208 -0.8641
  177SOPE  H12X20207   3.868   1.477   8.938  1.6787  1.0550 -0.8169
  177SOPE  H12Y20208   3.868   1.631   8.830 -0.8569  0.3750 -1.9073
  177SOPE  C31320209   3.694   1.511   8.811 -0.1633  0.7565 -0.0273
  177SOPE  H13X20210   3.625   1.591   8.779  1.5724  1.9556 -0.8662
  177SOPE  H13Y20211   3.639   1.444   8.880  0.5308 -0.1845 -0.3818
  177SOPE  C31420212   3.737   1.446   8.681  0.8126  0.3264 -0.5035
  177SOPE  H14X20213   3.782   1.524   8.616 -0.8123 -0.3480 -2.5226
  177SOPE  H14Y20214   3.644   1.420   8.626 -0.8399  0.6522  2.0872
  177SOPE  C31520215   3.835   1.327   8.690 -0.2781 -0.2715  1.0499
  177SOPE  H15X20216   3.794   1.243   8.750 -0.3062 -1.5561 -0.6986
  177SOPE  H15Y20217   3.926   1.358   8.745  1.1253 -2.6220  0.1466
  177SOPE  C31620218   3.885   1.288   8.550  0.0594 -0.0628  0.2976
  177SOPE  H16X20219   3.794   1.267   8.490  1.2163 -2.1945 -0.7431
  177SOPE  H16Y20220   3.948   1.197   8.545  3.7822  2.3979 -0.0282
  177SOPE  C31720221   3.968   1.398   8.469  0.6590 -0.1443 -0.1700
  177SOPE  H17X20222   3.899   1.484   8.454  0.1331 -0.1780  1.8927
  177SOPE  H17Y20223   3.990   1.350   8.371  1.0155 -1.3127  0.4713
  177SOPE  C31820224   4.101   1.432   8.536 -0.2567  0.3598  0.4971
  177SOPE  H18X20225   4.167   1.497   8.474 -0.0681 -0.8502 -0.5829
  177SOPE  H18Y20226   4.162   1.344   8.567  3.3938  2.0169 -1.5939
  177SOPE  H18Z20227   4.081   1.481   8.633  0.1172  0.7052  0.4004
  178SOPE     N20228   1.396   1.020  10.679 -0.1099 -0.0298 -0.7149
  178SOPE   HN120229   1.293   1.015  10.665 -0.2842  2.7928 -0.6474
  178SOPE   HN220230   1.418   1.045  10.778  1.1553 -0.9801 -0.7343
  178SOPE   HN320231   1.427   1.109  10.635 -1.9956  1.0350  0.0624
  178SOPE   C1220232   1.461   0.899  10.636 -0.0249 -0.4638 -0.4016
  178SOPE  H12A20233   1.572   0.907  10.639 -0.0671  0.2043 -0.5069
  178SOPE  H12B20234   1.439   0.878  10.530 -1.3354 -1.2688  0.0248
  178SOPE   C1120235   1.416   0.784  10.720 -0.0719  0.5187 -0.6858
  178SOPE  H11A20236   1.472   0.796  10.815  1.2120  0.5556 -1.4216
  178SOPE  H11B20237   1.466   0.695  10.676 -0.6557  0.5972 -1.5283
  178SOPE     P20238   1.196   0.637  10.752 -0.8767  0.2883 -0.4662
  178SOPE   O1320239   1.050   0.645  10.734 -0.0336  0.3503  0.3544
  178SOPE   O1420240   1.236   0.563  10.875 -0.0331 -0.4641 -0.1962
  178SOPE   O1220241   1.273   0.778  10.751  0.2230  0.1939 -0.2702
  178SOPE   O1120242   1.261   0.561  10.626  0.5960 -0.3818 -0.7425
  178SOPE    C120243   1.176   0.553  10.511 -0.5193  0.3131 -0.6654
  178SOPE    HA20244   1.125   0.652  10.500 -2.6366 -0.4285  1.7904
  178SOPE    HB20245   1.099   0.475  10.531  0.0447 -0.4845 -1.6104
  178SOPE    C220246   1.252   0.529  10.379 -0.2764  0.4220  0.5464
  178SOPE    HS20247   1.181   0.568  10.302  0.6040  0.8055 -0.0762
  178SOPE   O2120248   1.268   0.386  10.364  0.1381  0.2855 -0.1124
  178SOPE   C2120249   1.300   0.356  10.239 -0.6428 -0.0777  0.1155
  178SOPE   O2220250   1.280   0.425  10.140  0.5427 -0.0741 -0.3342
  178SOPE   C2220251   1.338   0.206  10.244  0.6547  0.2330  0.6340
  178SOPE   H2R20252   1.243   0.151  10.231  1.4655 -0.8737 -0.8371
  178SOPE   H2S20253   1.371   0.171  10.344  3.5447  2.4640  0.5113
  178SOPE    C320254   1.386   0.604  10.377  0.1581  0.1628 -0.0140
  178SOPE    HX20255   1.457   0.557  10.449 -0.4606 -1.2120 -0.2791
  178SOPE    HY20256   1.366   0.704  10.421 -0.0515  0.5473 -0.9671
  178SOPE   O3120257   1.460   0.613  10.251  0.7179 -0.4764 -0.1568
  178SOPE   C3120258   1.407   0.696  10.166  0.1570  0.0488  0.0238
  178SOPE   O3220259   1.312   0.766  10.182  0.7159  0.2944 -0.7460
  178SOPE   C3220260   1.500   0.704  10.042  1.0262 -0.5615  0.1596
  178SOPE   H2X20261   1.604   0.685  10.073  1.5731  0.4178 -1.0300
  178SOPE   H2Y20262   1.487   0.802   9.992 -3.1394 -0.8491  0.4907
  178SOPE   C2320263   1.436   0.173  10.128 -1.2538  0.1778  0.2479
  178SOPE   H3R20264   1.478   0.070  10.136  1.4989  1.0689 -1.9060
  178SOPE   H3S20265   1.520   0.245  10.117 -0.5379 -0.8970 -1.6545
  178SOPE   C2420266   1.363   0.175   9.983  0.2364  0.0150 -0.0115
  178SOPE   H4R20267   1.286   0.095   9.982 -0.6216  0.7985  1.6741
  178SOPE   H4S20268   1.305   0.269   9.973 -0.1013 -0.1861  0.0481
  178SOPE   C2520269   1.463   0.165   9.874  0.4436 -0.7166  0.6356
  178SOPE   H5R20270   1.543   0.233   9.911  1.6971 -0.9039 -1.6390
  178SOPE   H5S20271   1.515   0.067   9.865  1.5986  0.0903 -2.0092
  178SOPE   C2620272   1.409   0.195   9.738  0.1252 -0.2325  0.2308
  178SOPE   H6R20273   1.327   0.129   9.702 -1.6889  1.0105  1.9271
  178SOPE   H6S20274   1.351   0.290   9.744 -0.5656 -0.7352  1.9404
  178SOPE   C2720275   1.518   0.207   9.637  0.0305 -0.5836 -0.5547
  178SOPE   H7R20276   1.590   0.287   9.664 -0.1253 -1.3383  2.2326
  178SOPE   H7S20277   1.581   0.115   9.627  0.1518 -0.4957 -0.6028
  178SOPE   C2820278   1.472   0.244   9.489 -0.0975 -0.0882 -0.0604
  178SOPE   H8R20279   1.412   0.335   9.470 -1.2178 -0.1639  2.8606
  178SOPE   H8S20280   1.559   0.259   9.422  1.1807 -0.0170  1.6090
  178SOPE   C2920281   1.393   0.135   9.435  0.0719 -0.1430  1.1017
  178SOPE   H9120282   1.306   0.102   9.494  0.2010  0.3244  1.5505
  178SOPE  C21020283   1.408   0.087   9.310 -0.0641  0.5977  0.2050
  178SOPE  H10120284   1.349  -0.002   9.285 -2.4578  2.1523  0.1354
  178SOPE  C21120285   1.506   0.131   9.201 -0.1062  0.0344  0.6290
  178SOPE  H11R20286   1.603   0.082   9.223  0.0149 -0.2730 -0.5354
  178SOPE  H11S20287   1.532   0.239   9.194  0.5583 -0.1915 -0.5387
  178SOPE  C21220288   1.450   0.083   9.066 -0.1603  0.6156 -0.4113
  178SOPE  H12R20289   1.371   0.155   9.037  0.2019  0.4405 -1.8704
  178SOPE  H12S20290   1.406  -0.019   9.066  0.9271  0.1363 -0.2269
  178SOPE  C21320291   1.556   0.083   8.953 -0.1615 -0.3258  0.0388
  178SOPE  H13R20292   1.638   0.011   8.971  0.6542  0.3869 -0.7450
  178SOPE  H13S20293   1.596   0.187   8.945 -1.8761  0.4044  0.7753
  178SOPE  C21420294   1.497   0.028   8.826 -0.0922 -0.8478  0.1793
  178SOPE  H14R20295   1.544   0.071   8.735 -0.2022 -1.1295 -0.0097
  178SOPE  H14S20296   1.392   0.063   8.827 -0.7036 -2.6357  0.1813
  178SOPE  C21520297   1.506  -0.124   8.809 -0.2476 -0.5920 -0.6011
  178SOPE  H15R20298   1.445  -0.168   8.891  0.7368  0.6908  0.8336
  178SOPE  H15S20299   1.614  -0.149   8.807 -0.2057 -0.4577 -0.1251
  178SOPE  C21620300   1.473  -0.174   8.672  0.1096  0.5339  0.5060
  178SOPE  H16R20301   1.549  -0.128   8.605 -1.3571  1.1549 -0.7706
  178SOPE  H16S20302   1.373  -0.135   8.642 -0.6059 -1.3933  0.3201
  178SOPE  C21720303   1.472  -0.333   8.660 -0.1375  0.0916 -0.8093
  178SOPE  H17R20304   1.437  -0.356   8.557  0.0530 -0.3410 -0.7804
  178SOPE  H17S20305   1.391  -0.364   8.730  0.6484  0.6290  0.3433
  178SOPE  C21820306   1.605  -0.400   8.698  0.1428 -0.2061  0.2998
  178SOPE  H18R20307   1.682  -0.369   8.624 -1.0899  0.9704 -0.5009
  178SOPE  H18S20308   1.601  -0.511   8.697  0.2375 -0.2100  0.3516
  178SOPE  H18T20309   1.643  -0.372   8.798  0.8062  1.6230 -0.4466
  178SOPE   C3320310   1.480   0.582   9.946 -0.7242 -0.0948  0.2356
  178SOPE   H3X20311   1.488   0.497  10.017 -0.6007 -0.5442 -0.3084
  178SOPE   H3Y20312   1.565   0.576   9.875  0.0574 -0.7658  1.2124
  178SOPE   C3420313   1.350   0.594   9.864  0.2159  0.2903 -0.4706
  178SOPE   H4X20314   1.260   0.605   9.929 -0.8041  0.4033 -1.8853
  178SOPE   H4Y20315   1.349   0.501   9.803 -1.1669  0.2992 -0.4846
  178SOPE   C3520316   1.346   0.710   9.762  0.0056 -0.3238 -0.4183
  178SOPE   H5X20317   1.438   0.714   9.700  1.1417  0.1103  1.2389
  178SOPE   H5Y20318   1.359   0.808   9.814  1.0892  0.5769 -2.3594
  178SOPE   C3620319   1.230   0.708   9.664 -0.9088 -0.2918 -0.0127
  178SOPE   H6X20320   1.222   0.807   9.614 -0.6764 -1.1099 -1.6948
  178SOPE   H6Y20321   1.137   0.692   9.723 -0.3845  1.3612  1.3091
  178SOPE   C3720322   1.255   0.601   9.561  0.2028 -0.4554 -0.1277
  178SOPE   H7X20323   1.263   0.503   9.612 -0.5106 -0.6503 -0.3782
  178SOPE   H7Y20324   1.352   0.617   9.510 -0.2684  3.3280  0.0105
  178SOPE   C3820325   1.149   0.608   9.451 -0.0215 -0.0099  0.1349
  178SOPE   H8X20326   1.131   0.712   9.416  0.3258  0.6115  1.7549
  178SOPE   H8Y20327   1.051   0.587   9.498  0.6001  0.6864  1.7961
  178SOPE   C3920328   1.176   0.504   9.346 -0.0868 -0.2492  0.0235
  178SOPE   H9X20329   1.182   0.402   9.388  1.4051 -0.5512 -0.8670
  178SOPE   H9Y20330   1.282   0.517   9.314 -0.1739  0.4360  0.0056
  178SOPE  C31020331   1.066   0.502   9.237 -0.3871  0.2658 -0.5137
  178SOPE  H10X20332   1.027   0.604   9.220 -0.3537  0.3582 -0.0486
  178SOPE  H10Y20333   0.987   0.435   9.277  0.0177 -0.2255 -0.5331
  178SOPE  C31120334   1.111   0.435   9.106 -0.0707  0.4229  1.0419
  178SOPE  H11X20335   1.161   0.337   9.124 -0.8094 -0.0614  0.5084
  178SOPE  H11Y20336   1.183   0.504   9.059  1.3745 -2.1047 -0.5614
  178SOPE  C31220337   0.993   0.422   9.006 -0.4866  0.0162 -0.4853
  178SOPE  H12X20338   0.927   0.512   9.007  0.6242  0.8388 -0.1609
  178SOPE  H12Y20339   0.927   0.336   9.028 -1.8816  1.6869  2.1779
  178SOPE  C31320340   1.040   0.408   8.858  0.2555 -0.0894  0.9402
  178SOPE  H13X20341   1.110   0.494   8.851  1.4568 -0.8864  2.7355
  178SOPE  H13Y20342   0.950   0.429   8.796 -0.8204  1.7087  3.0657
  178SOPE  C31420343   1.097   0.271   8.819 -0.2035 -0.4166  0.6174
  178SOPE  H14X20344   1.028   0.202   8.871 -1.2888 -0.0038 -0.2624
  178SOPE  H14Y20345   1.197   0.254   8.865  0.7669  1.4485 -0.7253
  178SOPE  C31520346   1.100   0.253   8.669 -1.2065  0.0243 -0.3942
  178SOPE  H15X20347   1.002   0.289   8.632 -0.6645  1.0275 -0.8688
  178SOPE  H15Y20348   1.091   0.143   8.651 -0.6965 -0.6264  2.8970
  178SOPE  C31620349   1.213   0.305   8.590  0.8653 -0.2036 -0.1484
  178SOPE  H16X20350   1.304   0.254   8.627  2.4620  0.2769 -3.2571
  178SOPE  H16Y20351   1.230   0.413   8.609 -1.3576 -0.0822  1.3429
  178SOPE  C31720352   1.201   0.277   8.441 -0.1479  0.8663 -0.2528
  178SOPE  H17X20353   1.275   0.347   8.397  2.3577 -0.5913  1.5101
  178SOPE  H17Y20354   1.101   0.311   8.407 -1.3291 -2.1612  0.1195
  178SOPE  C31820355   1.223   0.135   8.394 -0.3182 -0.2355 -0.0984
  178SOPE  H18X20356   1.325   0.099   8.421 -0.3601 -1.3190 -1.3612
  178SOPE  H18Y20357   1.215   0.129   8.283 -2.1330  2.1867 -0.1360
  178SOPE  H18Z20358   1.154   0.056   8.429  0.5042 -1.7097 -1.7204
  179SOPE     N20359   6.176   2.080   6.446  0.3253 -0.4304 -0.2222
  179SOPE   HN120360   6.132   2.170   6.418  1.0185 -0.3555 -1.0579
  179SOPE   HN220361   6.126   2.007   6.392 -0.2391  0.7412 -1.3109
  179SOPE   HN320362   6.150   2.070   6.547  1.7524 -1.2365  0.0790
  179SOPE   C1220363   6.323   2.084   6.417  0.0318 -0.2714 -0.2096
  179SOPE  H12A20364   6.363   2.179   6.461 -1.3527  1.0211 -1.6907
  179SOPE  H12B20365   6.341   2.082   6.308  1.1326 -1.7640 -0.0206
  179SOPE   C1120366   6.400   1.971   6.479  0.7454  0.2109  0.0619
  179SOPE  H11A20367   6.505   1.994   6.451  1.1698 -0.9092  0.7241
  179SOPE  H11B20368   6.363   1.877   6.432 -1.8519  1.7335 -1.0874
  179SOPE     P20369   6.444   1.839   6.689 -0.2682 -0.1912  0.0420
  179SOPE   O1320370   6.593   1.845   6.671  0.3430  0.7979 -0.1852
  179SOPE   O1420371   6.375   1.724   6.623 -0.1516 -0.5229 -0.1210
  179SOPE   O1220372   6.380   1.971   6.623  0.1785 -0.5414  0.0778
  179SOPE   O1120373   6.413   1.851   6.843 -0.3974 -0.2659  0.3101
  179SOPE    C120374   6.401   1.974   6.912  0.6743  0.2372 -0.3111
  179SOPE    HA20375   6.306   1.980   6.969  0.1078 -2.8832 -0.8441
  179SOPE    HB20376   6.418   2.062   6.846  0.1654 -1.4849 -2.8452
  179SOPE    C220377   6.508   1.997   7.024  0.0782  0.3088  0.0448
  179SOPE    HS20378   6.613   2.003   6.987  0.0921  1.6728  0.2917
  179SOPE   O2120379   6.489   1.897   7.122 -0.1135  0.6583  0.1210
  179SOPE   C2120380   6.593   1.817   7.146  0.6513 -0.4768 -0.1010
  179SOPE   O2220381   6.690   1.806   7.073 -0.0742 -0.1249  0.4869
  179SOPE   C2220382   6.563   1.750   7.276 -0.0333  0.5447 -0.1397
  179SOPE   H2R20383   6.473   1.686   7.261  1.5222 -1.4368 -1.3180
  179SOPE   H2S20384   6.548   1.819   7.362 -1.5295  1.8306 -1.4201
  179SOPE    C320385   6.494   2.139   7.078 -0.3856 -0.1476 -0.2310
  179SOPE    HX20386   6.386   2.145   7.103  0.2661  0.5550  2.5934
  179SOPE    HY20387   6.495   2.218   7.000 -2.1708  0.2473  0.1171
  179SOPE   O3120388   6.556   2.173   7.200 -0.1073 -0.0581 -0.2695
  179SOPE   C3120389   6.692   2.182   7.189  0.0535 -0.2886  0.7029
  179SOPE   O3220390   6.761   2.187   7.087  0.0441  0.1334  0.4475
  179SOPE   C3220391   6.749   2.223   7.330 -0.2342  0.5260  0.2843
  179SOPE   H2X20392   6.725   2.331   7.338  0.6683  1.0074 -2.7131
  179SOPE   H2Y20393   6.860   2.222   7.325 -0.1872 -2.2223  1.2203
  179SOPE   C2320394   6.674   1.651   7.325 -0.7953 -0.0052 -0.1134
  179SOPE   H3R20395   6.765   1.714   7.335  0.8023 -2.2097 -0.5854
  179SOPE   H3S20396   6.690   1.566   7.256 -0.4668 -0.2031  0.2076
  179SOPE   C2420397   6.633   1.585   7.458 -0.2628 -0.4657 -0.1592
  179SOPE   H4R20398   6.525   1.559   7.461 -0.1757 -0.9693 -1.0696
  179SOPE   H4S20399   6.695   1.494   7.470 -1.1282 -0.7447  2.5376
  179SOPE   C2520400   6.658   1.680   7.576  0.6678  0.5174 -0.0501
  179SOPE   H5R20401   6.760   1.724   7.578  0.2481  1.5459 -0.6982
  179SOPE   H5S20402   6.586   1.764   7.573  0.1867  0.0532 -2.3616
  179SOPE   C2620403   6.637   1.596   7.708 -0.0358 -0.3448 -0.3414
  179SOPE   H6R20404   6.532   1.576   7.739  0.1624 -0.5018  0.2301
  179SOPE   H6S20405   6.691   1.501   7.687  0.5174 -0.5923  2.1260
  179SOPE   C2720406   6.688   1.663   7.840  0.0301  0.2854  0.0832
  179SOPE   H7R20407   6.640   1.763   7.849  0.4760  0.5225 -0.1385
  179SOPE   H7S20408   6.669   1.598   7.928 -2.8397  1.7194  0.5945
  179SOPE   C2820409   6.837   1.691   7.847  0.0496  0.4503 -0.2151
  179SOPE   H8R20410   6.883   1.591   7.829 -1.7174 -0.6917  1.4683
  179SOPE   H8S20411   6.855   1.756   7.759  0.9874 -0.7509 -0.9405
  179SOPE   C2920412   6.878   1.755   7.981 -0.7657 -0.0759 -0.6615
  179SOPE   H9120413   6.828   1.848   8.009  2.1564  0.6270  2.6015
  179SOPE  C21020414   6.975   1.706   8.064 -0.0574  0.0102  0.2932
  179SOPE  H10120415   6.996   1.763   8.156 -0.3411  0.5800  0.0050
  179SOPE  C21120416   7.060   1.577   8.036  0.3980 -0.1277 -0.4733
  179SOPE  H11R20417   7.168   1.606   8.031  0.2729  0.3488 -0.4895
  179SOPE  H11S20418   7.046   1.545   7.931  0.8658 -2.7494  0.2479
  179SOPE  C21220419   7.019   1.474   8.135 -0.0670 -0.0145  0.1390
  179SOPE  H12R20420   7.046   1.375   8.092  1.6351 -0.7734  2.8249
  179SOPE  H12S20421   6.909   1.455   8.139 -0.0866  0.0491 -0.1613
  179SOPE  C21320422   7.088   1.464   8.276  0.9529 -0.3065  0.0159
  179SOPE  H13R20423   7.194   1.497   8.278  0.7964  0.1322  2.4267
  179SOPE  H13S20424   7.098   1.356   8.298 -2.4951 -0.7501 -0.3518
  179SOPE  C21420425   7.018   1.545   8.379  0.2715 -0.1689 -1.2260
  179SOPE  H14R20426   6.908   1.534   8.368  0.0617  2.2016 -1.8336
  179SOPE  H14S20427   7.045   1.650   8.357  2.2547 -0.5076 -0.4545
  179SOPE  C21520428   7.062   1.513   8.527  0.1684 -0.4815 -0.1796
  179SOPE  H15R20429   7.029   1.412   8.558  0.2212 -0.4634 -0.0635
  179SOPE  H15S20430   7.008   1.592   8.584  0.7967  0.3259 -0.6870
  179SOPE  C21620431   7.214   1.534   8.550  0.2842  0.0758 -0.2768
  179SOPE  H16R20432   7.248   1.629   8.503  1.7642 -0.8455 -1.1087
  179SOPE  H16S20433   7.270   1.445   8.517 -1.1854 -1.3842  1.1018
  179SOPE  C21720434   7.267   1.544   8.695  0.2958  0.8558 -0.0471
  179SOPE  H17R20435   7.255   1.651   8.725 -1.9636  0.5556  0.2667
  179SOPE  H17S20436   7.365   1.497   8.714  1.4286  2.3267 -2.0787
  179SOPE  C21820437   7.165   1.470   8.786 -0.2853  0.3658  0.0444
  179SOPE  H18R20438   7.148   1.363   8.757 -0.1846  0.2615  0.3719
  179SOPE  H18S20439   7.069   1.524   8.800 -1.1711 -0.9437 -0.7766
  179SOPE  H18T20440   7.218   1.474   8.883 -0.0467  1.5721 -0.1288
  179SOPE   C3320441   6.707   2.151   7.459 -0.2394  0.1986 -0.6555
  179SOPE   H3X20442   6.602   2.119   7.442  0.6867 -2.6816 -1.1310
  179SOPE   H3Y20443   6.722   2.221   7.544  1.7745 -1.4889  0.4050
  179SOPE   C3420444   6.789   2.028   7.497 -0.2688 -0.0495  0.0279
  179SOPE   H4X20445   6.797   1.963   7.407  0.6388 -1.4029  1.0696
  179SOPE   H4Y20446   6.735   1.954   7.561 -1.5359 -0.9925 -2.0622
  179SOPE   C3520447   6.938   2.052   7.545 -0.3349 -0.5712  0.9148
  179SOPE   H5X20448   6.983   2.134   7.485  1.2062 -2.3974 -0.4845
  179SOPE   H5Y20449   6.992   1.955   7.534 -0.3582 -0.2994 -1.7640
  179SOPE   C3620450   6.942   2.091   7.697  0.5755  0.4341  0.4875
  179SOPE   H6X20451   6.887   2.018   7.761  1.4166 -1.8438 -1.3022
  179SOPE   H6Y20452   6.900   2.191   7.720 -1.6249 -0.2127 -0.6308
  179SOPE   C3720453   7.087   2.095   7.741  0.4355  0.3195 -0.5548
  179SOPE   H7X20454   7.152   2.170   7.692  0.7136  0.2871 -0.2333
  179SOPE   H7Y20455   7.124   1.997   7.703 -1.6633 -0.4333 -0.7220
  179SOPE   C3820456   7.112   2.092   7.898 -0.1881 -0.3400  0.4071
  179SOPE   H8X20457   7.212   2.056   7.931  0.7463  1.9669  0.1926
  179SOPE   H8Y20458   7.028   2.038   7.947 -0.1640  1.3974  2.4144
  179SOPE   C3920459   7.125   2.232   7.964 -0.0088 -0.3860 -0.1458
  179SOPE   H9X20460   7.030   2.285   7.943  0.3065  0.3295  0.2196
  179SOPE   H9Y20461   7.213   2.289   7.926  0.9833 -3.8338 -3.2768
  179SOPE  C31020462   7.155   2.214   8.117  0.3763 -0.1061  0.5760
  179SOPE  H10X20463   7.256   2.171   8.136  0.0913 -1.3120 -0.5103
  179SOPE  H10Y20464   7.078   2.139   8.146 -1.2243  1.1761 -0.2319
  179SOPE  C31120465   7.132   2.344   8.193 -0.1084  0.1404 -0.1701
  179SOPE  H11X20466   7.046   2.397   8.146  0.1243  0.4975 -0.1935
  179SOPE  H11Y20467   7.229   2.396   8.179 -0.0626 -0.0415 -0.5470
  179SOPE  C31220468   7.111   2.321   8.343 -0.4845  0.1963 -0.3432
  179SOPE  H12X20469   7.194   2.264   8.389  0.7637  1.5721 -0.8532
  179SOPE  H12Y20470   7.015   2.266   8.353  0.1553 -0.5674  1.6755
  179SOPE  C31320471   7.095   2.448   8.436 -0.0844  0.2928  0.5755
  179SOPE  H13X20472   7.169   2.525   8.403 -0.8648 -0.8740 -4.3149
  179SOPE  H13Y20473   7.117   2.414   8.539 -0.8576 -0.7002  0.4171
  179SOPE  C31420474   6.961   2.519   8.435 -0.8512 -0.5500 -0.2384
  179SOPE  H14X20475   6.938   2.555   8.332  0.8347 -4.3938 -2.0776
  179SOPE  H14Y20476   6.977   2.599   8.509  3.1422  1.5639 -3.1856
  179SOPE  C31520477   6.832   2.435   8.475 -0.2861  0.1347 -0.5785
  179SOPE  H15X20478   6.805   2.373   8.387 -0.1880  0.7406 -1.0343
  179SOPE  H15Y20479   6.749   2.507   8.493  1.4216  1.5978  1.8550
  179SOPE  C31620480   6.846   2.344   8.593  0.1410  0.6130  0.0801
  179SOPE  H16X20481   6.874   2.411   8.677  2.8399 -2.3439  1.6278
  179SOPE  H16Y20482   6.917   2.261   8.572 -1.3485 -0.7092  0.1601
  179SOPE  C31720483   6.712   2.264   8.610 -0.4162 -0.4874  0.2995
  179SOPE  H17X20484   6.706   2.206   8.515 -0.3590 -0.3611  0.2172
  179SOPE  H17Y20485   6.623   2.331   8.614  2.0913  3.1407 -1.1611
  179SOPE  C31820486   6.697   2.170   8.730  0.7043 -0.1766  0.1809
  179SOPE  H18X20487   6.762   2.081   8.713  0.4712 -0.3042 -0.0401
  179SOPE  H18Y20488   6.592   2.141   8.753  0.8516 -1.4052 -0.6136
  179SOPE  H18Z20489   6.741   2.214   8.822 -1.4185 -2.3657  2.3361
  180SOPE     N20490   5.067   1.227   6.199  0.0786 -0.0072  0.0065
  180SOPE   HN120491   5.120   1.142   6.226 -0.0280  0.0148  0.2824
  180SOPE   HN220492   4.965   1.208   6.199  0.1776 -0.5552 -0.6236
  180SOPE   HN320493   5.086   1.261   6.102  1.8185 -1.0339 -0.0266
  180SOPE   C1220494   5.106   1.353   6.290  0.4391 -0.2017  0.9069
  180SOPE  H12A20495   5.032   1.354   6.373 -1.8784 -0.7206 -1.1069
  180SOPE  H12B20496   5.094   1.439   6.222 -0.3218 -0.4004  0.7881
  180SOPE   C1120497   5.245   1.349   6.350 -0.6271 -0.4089 -0.5117
  180SOPE  H11A20498   5.247   1.245   6.389 -1.8576  0.3144  1.5707
  180SOPE  H11B20499   5.260   1.414   6.439 -0.5537  0.1753 -0.9461
  180SOPE     P20500   5.489   1.329   6.276 -0.0428 -0.2240  0.0265
  180SOPE   O1320501   5.589   1.438   6.247 -0.3500  0.1353 -0.1998
  180SOPE   O1420502   5.519   1.198   6.214  0.1492  0.0540  0.2155
  180SOPE   O1220503   5.338   1.369   6.243  0.5128 -0.5469 -0.3924
  180SOPE   O1120504   5.495   1.312   6.432 -0.0155 -0.2660 -0.3215
  180SOPE    C120505   5.498   1.420   6.525  0.0932 -1.2241  0.2862
  180SOPE    HA20506   5.434   1.502   6.488  3.3505  1.1336 -0.3291
  180SOPE    HB20507   5.599   1.464   6.529  0.6471 -2.5076  0.9815
  180SOPE    C220508   5.455   1.378   6.670  0.2976  0.3824  0.1532
  180SOPE    HS20509   5.550   1.340   6.714  1.0552  2.1739  0.1215
  180SOPE   O2120510   5.348   1.275   6.680  0.1816 -0.0523 -0.2591
  180SOPE   C2120511   5.394   1.152   6.680 -0.1191 -0.2714  0.3119
  180SOPE   O2220512   5.509   1.110   6.668  0.1803 -0.0574 -0.6538
  180SOPE   C2220513   5.277   1.051   6.701  0.3813 -0.7667 -1.1839
  180SOPE   H2R20514   5.319   0.954   6.667 -0.5948 -1.2887 -0.9215
  180SOPE   H2S20515   5.189   1.074   6.638 -0.4516 -1.7018 -0.3947
  180SOPE    C320516   5.412   1.504   6.750 -0.9869  0.2007  0.4715
  180SOPE    HX20517   5.319   1.542   6.702 -0.8096 -1.6340 -1.4153
  180SOPE    HY20518   5.487   1.583   6.729  0.7514 -1.9596 -1.7212
  180SOPE   O3120519   5.406   1.470   6.888  0.7116  0.4689  0.2527
  180SOPE   C3120520   5.318   1.544   6.953 -0.7239 -0.0079  0.3312
  180SOPE   O3220521   5.258   1.633   6.891  0.6738  0.0758  0.5818
  180SOPE   C3220522   5.300   1.502   7.098 -0.2546  0.5580  0.0303
  180SOPE   H2X20523   5.406   1.496   7.130 -0.7596  0.3040  1.7139
  180SOPE   H2Y20524   5.263   1.398   7.111  0.0048  0.6344  1.4141
  180SOPE   C2320525   5.231   1.043   6.851 -0.2457  0.4031  0.4005
  180SOPE   H3R20526   5.131   0.997   6.864 -0.6478  1.4103  0.9437
  180SOPE   H3S20527   5.227   1.147   6.891  2.6340  0.7081  0.0143
  180SOPE   C2420528   5.329   0.980   6.950  0.0763  0.4359  0.2803
  180SOPE   H4R20529   5.357   0.880   6.910  0.6422 -0.1486  2.0586
  180SOPE   H4S20530   5.423   1.039   6.961 -0.9597  2.0223  0.7782
  180SOPE   C2520531   5.267   0.975   7.088 -0.2869 -0.6063 -0.5304
  180SOPE   H5R20532   5.263   1.076   7.134  0.8319 -1.2162  0.9557
  180SOPE   H5S20533   5.160   0.947   7.094 -0.6867  0.8579 -0.6977
  180SOPE   C2620534   5.332   0.874   7.188  0.1971  0.1383 -0.2519
  180SOPE   H6R20535   5.297   0.770   7.174  0.7221 -0.0025 -0.5090
  180SOPE   H6S20536   5.443   0.873   7.187  0.2195  0.0391  1.0870
  180SOPE   C2720537   5.292   0.924   7.333  0.4524 -0.1180 -0.6274
  180SOPE   H7R20538   5.315   1.029   7.362  0.0317  0.2163 -1.4852
  180SOPE   H7S20539   5.181   0.932   7.336  0.4574 -0.5125  3.0740
  180SOPE   C2820540   5.336   0.836   7.447 -0.5028 -0.2456  0.1355
  180SOPE   H8R20541   5.292   0.737   7.420  0.7333 -1.3083  1.8961
  180SOPE   H8S20542   5.446   0.823   7.441 -0.3970  1.3171 -1.8876
  180SOPE   C2920543   5.274   0.872   7.581 -0.0595  0.3903  0.2916
  180SOPE   H9120544   5.167   0.893   7.588  0.1044  0.7512  2.0386
  180SOPE  C21020545   5.346   0.882   7.702 -0.3861  0.5045 -0.6356
  180SOPE  H10120546   5.295   0.923   7.791  0.1403 -3.8834  1.8304
  180SOPE  C21120547   5.492   0.860   7.725  0.0899 -1.3271 -0.5009
  180SOPE  H11R20548   5.530   0.954   7.771 -1.4032 -0.8261 -0.2491
  180SOPE  H11S20549   5.552   0.847   7.633  3.0051 -2.0914  1.4507
  180SOPE  C21220550   5.527   0.757   7.839  0.6840 -0.2072 -0.1047
  180SOPE  H12R20551   5.636   0.741   7.825  0.3092 -2.6871 -0.4945
  180SOPE  H12S20552   5.491   0.654   7.816  1.5582 -0.2263 -1.4343
  180SOPE  C21320553   5.514   0.802   7.984 -0.4413 -0.1017  1.1991
  180SOPE  H13R20554   5.405   0.798   8.002 -0.1445 -0.7274  2.8942
  180SOPE  H13S20555   5.555   0.904   7.998  0.3844 -0.1509 -0.6776
  180SOPE  C21420556   5.572   0.706   8.092  0.0963  0.4179 -0.4271
  180SOPE  H14R20557   5.516   0.610   8.086 -0.3764  0.5775  1.3646
  180SOPE  H14S20558   5.556   0.744   8.195 -0.9124 -0.6368 -0.1811
  180SOPE  C21520559   5.724   0.668   8.082  0.2645  0.8832 -0.1236
  180SOPE  H15R20560   5.784   0.760   8.098  0.7115  0.2963  1.8110
  180SOPE  H15S20561   5.743   0.622   7.983  0.9365  0.1427  0.3405
  180SOPE  C21620562   5.783   0.561   8.182  0.2935  0.2833 -0.2035
  180SOPE  H16R20563   5.707   0.482   8.200 -1.9488  2.3456 -0.3272
  180SOPE  H16S20564   5.803   0.615   8.277 -2.9609 -1.8195  1.7657
  180SOPE  C21720565   5.918   0.510   8.128  0.0086 -0.0968 -0.1369
  180SOPE  H17R20566   5.950   0.442   8.209  0.5629  1.2446  0.7847
  180SOPE  H17S20567   5.992   0.593   8.132 -0.8013  0.9203 -3.8834
  180SOPE  C21820568   5.927   0.434   7.997  0.0541 -0.4901 -0.2610
  180SOPE  H18R20569   6.034   0.413   7.976  0.1542 -1.3218  1.0798
  180SOPE  H18S20570   5.875   0.485   7.913 -0.3071 -0.4193  0.0052
  180SOPE  H18T20571   5.874   0.337   8.008 -1.3260  0.1028 -1.3471
  180SOPE   C3320572   5.220   1.597   7.187  0.4813  0.2898  0.7806
  180SOPE   H3X20573   5.116   1.592   7.149  1.3852 -1.3101 -1.6782
  180SOPE   H3Y20574   5.249   1.701   7.162  0.4494  0.1013 -0.0615
  180SOPE   C3420575   5.238   1.564   7.332 -0.1778 -0.5300  0.4616
  180SOPE   H4X20576   5.342   1.575   7.368  1.0775 -2.7271 -2.2721
  180SOPE   H4Y20577   5.211   1.457   7.346 -1.1763 -0.2440  0.7459
  180SOPE   C3520578   5.129   1.641   7.412  0.1832 -0.8463  0.2977
  180SOPE   H5X20579   5.026   1.633   7.371 -0.1342 -1.0547  1.1260
  180SOPE   H5Y20580   5.150   1.749   7.400 -1.0727 -0.6564 -0.2645
  180SOPE   C3620581   5.121   1.589   7.560 -0.9953  0.4427  0.3408
  180SOPE   H6X20582   5.219   1.613   7.608 -0.2357 -1.5169 -0.1802
  180SOPE   H6Y20583   5.098   1.481   7.558 -1.1135  0.4809 -1.0640
  180SOPE   C3720584   5.023   1.665   7.639 -0.5582  0.1459  0.1724
  180SOPE   H7X20585   4.919   1.653   7.602 -0.6326  1.2401  0.0063
  180SOPE   H7Y20586   5.046   1.769   7.608 -1.8374 -0.6451 -3.6526
  180SOPE   C3820587   5.024   1.640   7.790  0.3648 -0.0647  0.1515
  180SOPE   H8X20588   5.121   1.669   7.835  0.8872  1.1126 -1.6972
  180SOPE   H8Y20589   5.009   1.530   7.801  0.8781 -0.5746 -3.6080
  180SOPE   C3920590   4.917   1.723   7.855 -0.0659  0.0200 -0.2292
  180SOPE   H9X20591   4.821   1.695   7.805  0.0136 -1.5032  0.4307
  180SOPE   H9Y20592   4.940   1.830   7.838  0.4091  0.1427  1.0987
  180SOPE  C31020593   4.900   1.701   8.012 -0.4966 -0.7188  0.3984
  180SOPE  H10X20594   4.810   1.764   8.029  0.7600  1.3979 -0.4967
  180SOPE  H10Y20595   4.983   1.750   8.068 -0.0752 -0.3784 -0.5161
  180SOPE  C31120596   4.910   1.561   8.058 -0.0453  0.2869 -0.0016
  180SOPE  H11X20597   5.000   1.507   8.021  1.0020  1.5834  0.6427
  180SOPE  H11Y20598   4.828   1.498   8.018  1.3117 -3.0527  2.3236
  180SOPE  C31220599   4.908   1.540   8.214 -0.2649 -0.3316  0.1286
  180SOPE  H12X20600   4.813   1.581   8.254 -0.5164 -1.8358  1.1394
  180SOPE  H12Y20601   4.984   1.605   8.262 -0.6072 -1.4325  2.2125
  180SOPE  C31320602   4.929   1.392   8.247 -0.4559  0.3315  0.3970
  180SOPE  H13X20603   5.028   1.351   8.220 -0.0905  3.0624 -2.8776
  180SOPE  H13Y20604   4.848   1.335   8.196 -0.8538  1.3838 -0.1656
  180SOPE  C31420605   4.925   1.366   8.398  0.7026 -0.0072 -0.2039
  180SOPE  H14X20606   4.823   1.379   8.439  0.0260 -1.5893 -1.3327
  180SOPE  H14Y20607   4.987   1.446   8.444  1.5202 -0.8426  0.1572
  180SOPE  C31520608   4.991   1.231   8.441 -0.1448  0.0387  0.5140
  180SOPE  H15X20609   5.005   1.228   8.551  1.7791  0.1324  0.2840
  180SOPE  H15Y20610   5.095   1.231   8.402 -0.4218  1.3659 -0.2585
  180SOPE  C31620611   4.919   1.109   8.385  1.2525 -0.2883  0.7515
  180SOPE  H16X20612   4.899   1.116   8.276  1.8050 -0.4110  0.6419
  180SOPE  H16Y20613   4.819   1.091   8.430  0.8387  2.2689  0.9167
  180SOPE  C31720614   5.010   0.981   8.399 -0.1391 -0.0483  0.5275
  180SOPE  H17X20615   5.086   0.983   8.318 -1.2361  2.8484 -0.4943
  180SOPE  H17Y20616   4.939   0.897   8.381  2.3581 -2.1475  0.1403
  180SOPE  C31820617   5.064   0.958   8.543  0.3052  0.6886  0.8215
  180SOPE  H18X20618   5.009   1.028   8.610 -0.9936  0.1950  0.2869
  180SOPE  H18Y20619   5.173   0.976   8.557  0.4013  0.5596  0.2244
  180SOPE  H18Z20620   5.034   0.860   8.585 -0.2890 -0.1495 -1.5072
  181SOPE     N20621   5.222   5.081   5.820 -0.2055  0.1682 -0.9669
  181SOPE   HN120622   5.174   5.034   5.900 -1.1687 -0.5389 -1.9470
  181SOPE   HN220623   5.154   5.086   5.741 -1.4929 -1.4810 -0.0068
  181SOPE   HN320624   5.311   5.038   5.789  0.3584  0.0987  0.7014
  181SOPE   C1220625   5.259   5.216   5.860 -0.0017 -0.0106 -0.4869
  181SOPE  H12A20626   5.171   5.279   5.884  1.0386  1.2177  0.1791
  181SOPE  H12B20627   5.302   5.270   5.772  0.9153 -1.1796 -0.7778
  181SOPE   C1120628   5.372   5.219   5.960 -0.8270 -0.2024 -0.9244
  181SOPE  H11A20629   5.332   5.172   6.053 -0.6952 -0.0124 -0.7684
  181SOPE  H11B20630   5.402   5.322   5.989  0.4014 -1.0556  0.9843
  181SOPE     P20631   5.595   5.077   5.989  0.3451  0.5152  0.6099
  181SOPE   O1320632   5.718   5.138   5.935  0.1100  0.5849  0.2506
  181SOPE   O1420633   5.575   4.938   5.966 -0.0867 -0.0827  0.6637
  181SOPE   O1220634   5.483   5.148   5.908 -0.4725 -0.1668 -0.1472
  181SOPE   O1120635   5.571   5.129   6.131  0.2348  0.1597 -0.7700
  181SOPE    C120636   5.667   5.096   6.234 -0.1501  0.2486  1.2626
  181SOPE    HA20637   5.746   5.173   6.220 -1.5185  1.2761 -1.0480
  181SOPE    HB20638   5.716   4.997   6.229  0.8766  0.7771  0.8109
  181SOPE    C220639   5.622   5.136   6.378 -0.3348 -0.3953  0.0835
  181SOPE    HS20640   5.531   5.073   6.392 -0.8986  0.5004  0.4573
  181SOPE   O2120641   5.576   5.272   6.373  1.0613 -0.2730 -0.0383
  181SOPE   C2120642   5.453   5.295   6.331  0.3802  0.4965 -0.1212
  181SOPE   O2220643   5.357   5.217   6.323  0.1879  0.0834 -0.1124
  181SOPE   C2220644   5.443   5.442   6.289 -0.6031  0.0116 -0.5583
  181SOPE   H2R20645   5.419   5.427   6.182 -2.4437 -0.3033 -0.1321
  181SOPE   H2S20646   5.536   5.502   6.289 -2.0164  2.2792 -1.2122
  181SOPE    C320647   5.726   5.118   6.483 -0.0947  0.0982  0.3626
  181SOPE    HX20648   5.829   5.160   6.482 -0.1384  0.2144 -0.7598
  181SOPE    HY20649   5.762   5.014   6.465 -2.0690 -0.4724 -0.4396
  181SOPE   O3120650   5.658   5.134   6.609  0.4049  0.3901  0.0389
  181SOPE   C3120651   5.682   5.255   6.662  0.0983  0.2565  0.0569
  181SOPE   O3220652   5.757   5.338   6.619 -0.1340 -0.2131  0.2978
  181SOPE   C3220653   5.577   5.284   6.774  0.0458 -0.0097 -0.1134
  181SOPE   H2X20654   5.500   5.204   6.761 -1.4815  1.3788  0.2008
  181SOPE   H2Y20655   5.533   5.381   6.743  0.4483  0.9206  2.0978
  181SOPE   C2320656   5.335   5.505   6.374  0.5094 -0.1819 -0.1658
  181SOPE   H3R20657   5.244   5.442   6.367 -0.2895  0.9537 -0.2379
  181SOPE   H3S20658   5.303   5.593   6.314  1.7058 -1.2657 -2.4718
  181SOPE   C2420659   5.374   5.546   6.518  0.7208  0.5903 -0.5368
  181SOPE   H4R20660   5.464   5.491   6.554  0.5042  0.8151  0.3486
  181SOPE   H4S20661   5.410   5.651   6.523  0.6708  0.5723  0.2493
  181SOPE   C2520662   5.252   5.520   6.613 -0.4013 -0.3267  0.3715
  181SOPE   H5R20663   5.165   5.579   6.577  0.5776  0.8777 -0.0845
  181SOPE   H5S20664   5.216   5.415   6.621 -0.3186 -0.2237  2.3804
  181SOPE   C2620665   5.279   5.564   6.755 -0.5949  0.9670 -0.4305
  181SOPE   H6R20666   5.362   5.504   6.798 -2.2081 -1.0546 -0.0303
  181SOPE   H6S20667   5.317   5.668   6.748 -1.1553  1.0810 -1.8936
  181SOPE   C2720668   5.159   5.564   6.851  0.3043  0.2403  0.7825
  181SOPE   H7R20669   5.086   5.635   6.807  0.2098 -0.7860 -0.7563
  181SOPE   H7S20670   5.107   5.468   6.830  0.8529 -0.0452  0.7228
  181SOPE   C2820671   5.184   5.570   7.001  0.3858 -0.1804 -0.9335
  181SOPE   H8R20672   5.089   5.545   7.053 -0.3265  1.9205 -1.1755
  181SOPE   H8S20673   5.254   5.489   7.029  2.2556  1.2832 -1.2503
  181SOPE   C2920674   5.245   5.699   7.055 -0.7180 -0.2215  0.1920
  181SOPE   H9120675   5.251   5.781   6.981  0.9589  1.3304  2.0146
  181SOPE  C21020676   5.283   5.732   7.179  0.2787  0.1886  0.3551
  181SOPE  H10120677   5.292   5.840   7.202  2.1737  0.2250 -0.4538
  181SOPE  C21120678   5.263   5.641   7.293  0.7582 -0.2004  0.0312
  181SOPE  H11R20679   5.361   5.590   7.303  0.2914 -1.6734 -2.3915
  181SOPE  H11S20680   5.193   5.557   7.274  0.2931  0.6959 -2.3770
  181SOPE  C21220681   5.244   5.712   7.434 -0.3370 -0.0648  0.1596
  181SOPE  H12R20682   5.196   5.811   7.425  0.4455  0.1124 -2.5600
  181SOPE  H12S20683   5.345   5.743   7.468 -0.8386  2.6522 -0.7123
  181SOPE  C21320684   5.190   5.617   7.538  0.3966  0.2431 -0.2487
  181SOPE  H13R20685   5.238   5.522   7.509 -2.0197 -0.9876 -0.3118
  181SOPE  H13S20686   5.079   5.614   7.544  0.2104  2.2715 -1.8404
  181SOPE  C21420687   5.219   5.674   7.674  0.5012 -0.4315  0.6259
  181SOPE  H14R20688   5.148   5.760   7.680  0.8876  0.1397 -2.2980
  181SOPE  H14S20689   5.324   5.709   7.669  1.3993 -2.9988  0.6386
  181SOPE  C21520690   5.184   5.580   7.788 -0.1343  0.3941 -0.5341
  181SOPE  H15R20691   5.255   5.495   7.795 -0.6132  0.1181  0.9182
  181SOPE  H15S20692   5.082   5.540   7.773 -0.7121  1.9235 -0.7469
  181SOPE  C21620693   5.179   5.648   7.928  0.1843 -0.7364  0.0720
  181SOPE  H16R20694   5.148   5.573   8.004 -0.8130 -0.3697  0.0217
  181SOPE  H16S20695   5.094   5.719   7.924 -0.1483 -1.1643 -0.3317
  181SOPE  C21720696   5.303   5.727   7.971 -0.7487 -0.2265 -0.4410
  181SOPE  H17R20697   5.320   5.816   7.906 -1.2724  0.5442  0.4627
  181SOPE  H17S20698   5.385   5.653   7.954 -1.2712 -0.4385 -2.2009
  181SOPE  C21820699   5.300   5.780   8.111  0.6667 -0.1482 -0.3138
  181SOPE  H18R20700   5.302   5.698   8.186  0.2096  0.1897  0.0640
  181SOPE  H18S20701   5.207   5.839   8.112 -0.0979 -1.3398  1.7661
  181SOPE  H18T20702   5.388   5.846   8.128  0.8554 -0.7288  1.0364
  181SOPE   C3320703   5.638   5.294   6.919 -0.5447 -0.0897 -0.7545
  181SOPE   H3X20704   5.719   5.371   6.920 -0.2069 -0.4476 -0.0910
  181SOPE   H3Y20705   5.676   5.191   6.940 -0.9471 -0.3382 -1.2353
  181SOPE   C3420706   5.531   5.302   7.031  1.0537 -0.5628 -0.2381
  181SOPE   H4X20707   5.446   5.234   7.008 -0.3509  1.2167 -0.4418
  181SOPE   H4Y20708   5.491   5.405   7.042  0.4396 -0.7407 -0.7395
  181SOPE   C3520709   5.585   5.263   7.169  0.0590 -0.2887 -0.8141
  181SOPE   H5X20710   5.674   5.327   7.186 -1.3534  0.7851  3.2674
  181SOPE   H5Y20711   5.623   5.159   7.162  2.5198  0.4972  0.4950
  181SOPE   C3620712   5.479   5.277   7.278  0.0840  0.4639  0.1194
  181SOPE   H6X20713   5.397   5.207   7.248  0.0664  0.5993 -0.1450
  181SOPE   H6Y20714   5.440   5.380   7.287 -1.2722 -0.0673  0.5721
  181SOPE   C3720715   5.531   5.228   7.413 -0.0222 -0.2266  0.8556
  181SOPE   H7X20716   5.634   5.186   7.413  1.2436  2.7803  1.2074
  181SOPE   H7Y20717   5.473   5.142   7.455 -2.4581 -0.0438 -1.9492
  181SOPE   C3820718   5.539   5.334   7.527 -0.6434  0.4297 -0.2891
  181SOPE   H8X20719   5.572   5.280   7.618 -2.3422 -0.3282 -0.1158
  181SOPE   H8Y20720   5.434   5.368   7.543 -0.7961 -0.2681  0.1839
  181SOPE   C3920721   5.636   5.453   7.493 -0.8216  0.0008  0.1244
  181SOPE   H9X20722   5.580   5.533   7.439  1.1998  2.5029  1.6016
  181SOPE   H9Y20723   5.722   5.408   7.439 -0.6501  0.5128 -0.0329
  181SOPE  C31020724   5.703   5.519   7.612  0.2931  0.1113 -0.0418
  181SOPE  H10X20725   5.788   5.573   7.563 -0.1370  0.2206 -0.6764
  181SOPE  H10Y20726   5.745   5.446   7.684 -2.6849  0.6486  2.3402
  181SOPE  C31120727   5.623   5.618   7.698 -0.0072  0.7513 -0.5526
  181SOPE  H11X20728   5.536   5.561   7.739  0.4352  0.3325 -0.2014
  181SOPE  H11Y20729   5.583   5.695   7.628  4.6227  0.4647 -3.6628
  181SOPE  C31220730   5.719   5.686   7.803 -0.5746 -0.3954 -0.2204
  181SOPE  H12X20731   5.808   5.719   7.747  0.2657  0.6485  1.6732
  181SOPE  H12Y20732   5.750   5.609   7.877 -1.1764  0.5173  1.0027
  181SOPE  C31320733   5.657   5.788   7.894  0.7411  0.6997 -0.4465
  181SOPE  H13X20734   5.582   5.737   7.958  0.4760 -0.7272 -1.8425
  181SOPE  H13Y20735   5.601   5.870   7.843  1.2184 -0.0223 -2.1847
  181SOPE  C31420736   5.756   5.869   7.976 -0.3041  0.6116  0.0686
  181SOPE  H14X20737   5.788   5.962   7.924  0.7554  1.8020  2.7520
  181SOPE  H14Y20738   5.844   5.808   8.004 -1.3392 -1.2878 -0.7858
  181SOPE  C31520739   5.700   5.911   8.108 -0.3346  0.0154  0.4708
  181SOPE  H15X20740   5.790   5.935   8.169 -2.2395  0.0741  3.3862
  181SOPE  H15Y20741   5.651   5.826   8.162 -0.6765 -1.5567 -2.2192
  181SOPE  C31620742   5.624   6.034   8.100 -0.9204  0.5280 -0.5019
  181SOPE  H16X20743   5.527   6.022   8.048 -1.6922  0.5983  0.8752
  181SOPE  H16Y20744   5.674   6.115   8.044  0.5474  0.6729  0.9768
  181SOPE  C31720745   5.590   6.079   8.236 -0.0769 -0.3983  0.4203
  181SOPE  H17X20746   5.676   6.095   8.304  0.6667  0.1260 -0.6332
  181SOPE  H17Y20747   5.529   6.003   8.290 -0.5433 -0.2733  0.0718
  181SOPE  C31820748   5.512   6.207   8.248  0.6382 -0.3378  0.5677
  181SOPE  H18X20749   5.568   6.294   8.206 -0.1937  0.0670  0.2793
  181SOPE  H18Y20750   5.489   6.244   8.350  1.9273  1.0612  0.3761
  181SOPE  H18Z20751   5.418   6.203   8.189  1.9573  0.0298 -1.6440
  182SOPE     N20752   6.448   0.860   6.370 -0.1824 -0.6133 -0.8382
  182SOPE   HN120753   6.459   0.955   6.409  0.0180 -0.8074 -0.4246
  182SOPE   HN220754   6.536   0.824   6.329  0.5749  0.4722 -0.1685
  182SOPE   HN320755   6.384   0.857   6.287 -1.6925 -1.0483  0.3100
  182SOPE   C1220756   6.406   0.752   6.462 -0.1598 -0.1812  0.0322
  182SOPE  H12A20757   6.488   0.723   6.531 -0.6911 -2.0153 -0.0740
  182SOPE  H12B20758   6.378   0.665   6.398  1.7254 -0.0222 -1.0416
  182SOPE   C1120759   6.285   0.796   6.547 -0.0965 -0.5449 -0.0398
  182SOPE  H11A20760   6.318   0.867   6.625 -3.0668  2.7386 -1.6094
  182SOPE  H11B20761   6.253   0.707   6.605  1.0393 -1.7761 -1.2566
  182SOPE     P20762   6.105   0.787   6.352 -0.1459  0.7503  0.2286
  182SOPE   O1320763   6.190   0.777   6.236 -0.4158  0.6507  0.5528
  182SOPE   O1420764   5.970   0.841   6.331 -0.0841 -0.2432  0.5515
  182SOPE   O1220765   6.182   0.862   6.467  0.3612 -0.2895 -0.2548
  182SOPE   O1120766   6.098   0.638   6.409 -0.2240  0.3165 -0.3746
  182SOPE    C120767   5.972   0.563   6.429  0.5679  0.8969 -0.4518
  182SOPE    HA20768   5.987   0.457   6.461 -0.7924  0.2562 -1.8492
  182SOPE    HB20769   5.916   0.558   6.334 -0.9824 -0.0110  0.4964
  182SOPE    C220770   5.875   0.623   6.535 -0.1143  0.3190  0.1341
  182SOPE    HS20771   5.830   0.707   6.478 -0.1850 -0.2832 -0.6996
  182SOPE   O2120772   5.940   0.653   6.659 -0.5182 -0.3662 -0.3517
  182SOPE   C2120773   5.925   0.784   6.695 -0.1610  0.8225 -0.3218
  182SOPE   O2220774   5.883   0.875   6.625 -0.1099 -0.5665  0.1008
  182SOPE   C2220775   5.973   0.807   6.833  0.0929 -0.3559 -0.6352
  182SOPE   H2R20776   6.079   0.839   6.828 -0.0215 -0.0268 -1.0560
  182SOPE   H2S20777   5.982   0.712   6.890 -1.2763 -0.1773 -0.1060
  182SOPE    C320778   5.760   0.519   6.570 -0.4596  0.1228  0.6566
  182SOPE    HX20779   5.802   0.431   6.622  0.8451  0.6822  0.5692
  182SOPE    HY20780   5.718   0.493   6.470  0.6947  1.0653 -0.0942
  182SOPE   O3120781   5.666   0.575   6.658  0.2103  0.7298 -0.3418
  182SOPE   C3120782   5.537   0.583   6.619 -0.8554  0.0648  0.0715
  182SOPE   O3220783   5.495   0.557   6.510 -0.0222  0.5805 -0.0821
  182SOPE   C3220784   5.453   0.647   6.727  0.5961  0.2110  0.2259
  182SOPE   H2X20785   5.358   0.686   6.684 -0.5540 -1.4786  1.1931
  182SOPE   H2Y20786   5.518   0.730   6.763 -1.4284  1.6763  0.5910
  182SOPE   C2320787   5.886   0.916   6.903 -1.0648  0.3158 -0.0165
  182SOPE   H3R20788   5.869   1.010   6.847 -3.4052 -0.9857 -1.5586
  182SOPE   H3S20789   5.940   0.940   6.997  0.8542 -2.0342 -0.4871
  182SOPE   C2420790   5.757   0.870   6.972 -0.1079 -0.2280  0.0937
  182SOPE   H4R20791   5.703   0.945   7.034  0.2239 -0.0779  0.1976
  182SOPE   H4S20792   5.687   0.841   6.890  2.4113 -0.2410 -2.1182
  182SOPE   C2520793   5.774   0.752   7.066 -0.0306  0.0805 -0.6463
  182SOPE   H5R20794   5.668   0.732   7.092  0.6058 -0.6482  1.6056
  182SOPE   H5S20795   5.817   0.665   7.012  0.4758  0.3482 -0.6804
  182SOPE   C2620796   5.849   0.765   7.198 -0.8439  0.0535 -0.3606
  182SOPE   H6R20797   5.850   0.669   7.255 -0.6590 -0.9651 -2.0312
  182SOPE   H6S20798   5.956   0.781   7.172  0.0991 -3.2057  1.1547
  182SOPE   C2720799   5.793   0.869   7.298 -0.3891  0.5892  0.4878
  182SOPE   H7R20800   5.820   0.969   7.258 -1.5458  1.3344  1.5014
  182SOPE   H7S20801   5.682   0.869   7.293 -0.2853 -0.3042 -2.1316
  182SOPE   C2820802   5.848   0.859   7.446  0.3434 -0.1482  0.0167
  182SOPE   H8R20803   5.955   0.886   7.431  0.1332  2.2156  2.4315
  182SOPE   H8S20804   5.783   0.930   7.501 -0.4462  0.6066 -1.8467
  182SOPE   C2920805   5.819   0.732   7.521  1.0806 -0.3076  0.4039
  182SOPE   H9120806   5.761   0.661   7.460 -2.7555  3.2474 -0.2718
  182SOPE  C21020807   5.860   0.696   7.644 -0.3238 -0.9842 -0.6599
  182SOPE  H10120808   5.830   0.598   7.684  0.1973  0.3692  3.2113
  182SOPE  C21120809   5.953   0.779   7.734  0.9187 -0.6902 -0.4032
  182SOPE  H11R20810   5.904   0.831   7.819  3.7185 -0.1327  0.9233
  182SOPE  H11S20811   5.981   0.862   7.666  1.8105  0.8557  1.8204
  182SOPE  C21220812   6.085   0.713   7.768 -0.1828 -0.6204 -0.4396
  182SOPE  H12R20813   6.121   0.672   7.671  1.2501 -0.6405  0.0904
  182SOPE  H12S20814   6.085   0.616   7.822  1.8278 -0.2769  0.2072
  182SOPE  C21320815   6.185   0.800   7.836  0.3434 -0.2576  0.1984
  182SOPE  H13R20816   6.194   0.896   7.781 -1.3653 -0.0760  0.2075
  182SOPE  H13S20817   6.283   0.752   7.818 -0.0746 -0.8921 -0.4165
  182SOPE  C21420818   6.154   0.807   7.983  0.0695 -0.6099  0.1418
  182SOPE  H14R20819   6.181   0.709   8.029 -1.8741 -0.6374  1.3120
  182SOPE  H14S20820   6.049   0.826   8.015  0.3762 -1.1308  1.5166
  182SOPE  C21520821   6.239   0.907   8.058  0.9786  0.2918 -0.2090
  182SOPE  H15R20822   6.216   1.010   8.022 -1.8159 -0.7245 -1.4962
  182SOPE  H15S20823   6.347   0.898   8.034  1.0424  0.6023 -0.0526
  182SOPE  C21620824   6.198   0.896   8.202 -0.5091  0.6456 -0.5854
  182SOPE  H16R20825   6.223   0.793   8.237  0.5944  0.8783 -0.6687
  182SOPE  H16S20826   6.088   0.912   8.212 -0.9848 -2.2187 -0.8429
  182SOPE  C21720827   6.273   0.987   8.301 -0.3148 -0.1758  0.7159
  182SOPE  H17R20828   6.217   1.083   8.296  0.3716  0.1606 -0.9117
  182SOPE  H17S20829   6.377   1.000   8.264 -0.8931  0.9961 -0.5394
  182SOPE  C21820830   6.273   0.941   8.448 -0.5875 -0.2024 -0.4454
  182SOPE  H18R20831   6.168   0.916   8.478 -1.3753  0.6826 -2.3725
  182SOPE  H18S20832   6.316   1.019   8.514  0.3233 -0.1595 -1.0917
  182SOPE  H18T20833   6.331   0.848   8.466  0.5964  0.5073 -0.6093
  182SOPE   C3320834   5.419   0.542   6.839  0.0118 -0.0774 -0.1893
  182SOPE   H3X20835   5.452   0.439   6.810  1.7401  1.0970 -2.6700
  182SOPE   H3Y20836   5.309   0.545   6.849  0.1396 -1.1253  1.7365
  182SOPE   C3420837   5.472   0.578   6.979 -0.3845  0.4284 -0.3989
  182SOPE   H4X20838   5.445   0.682   7.006  0.4837  0.6714 -0.4522
  182SOPE   H4Y20839   5.583   0.576   6.985 -0.4457 -0.0923  0.7088
  182SOPE   C3520840   5.423   0.476   7.082  0.4005 -0.2367  0.1721
  182SOPE   H5X20841   5.437   0.367   7.064 -0.8758 -0.5554  1.0257
  182SOPE   H5Y20842   5.313   0.493   7.082  0.8019  2.5246 -0.2088
  182SOPE   C3620843   5.479   0.507   7.221  0.5201 -0.0638 -0.1722
  182SOPE   H6X20844   5.488   0.613   7.251 -0.1825  0.0020 -0.1807
  182SOPE   H6Y20845   5.578   0.457   7.224  1.0696  0.8002 -2.6425
  182SOPE   C3720846   5.388   0.438   7.323 -0.1894  0.0588  0.6373
  182SOPE   H7X20847   5.352   0.338   7.292 -0.1912  0.1468  0.3567
  182SOPE   H7Y20848   5.309   0.507   7.361  0.1629  0.8987 -0.1542
  182SOPE   C3820849   5.475   0.409   7.447  0.1907  0.1190  0.8342
  182SOPE   H8X20850   5.528   0.503   7.472  0.9935  0.2040 -1.0648
  182SOPE   H8Y20851   5.556   0.339   7.416  0.1336 -0.0838  1.1439
  182SOPE   C3920852   5.389   0.363   7.557 -0.6223  0.3629 -0.2435
  182SOPE   H9X20853   5.348   0.263   7.532 -1.1169  0.5109 -0.0332
  182SOPE   H9Y20854   5.303   0.428   7.584 -0.8569 -0.3738  0.8243
  182SOPE  C31020855   5.478   0.355   7.683  1.3384 -0.6110 -0.0342
  182SOPE  H10X20856   5.529   0.450   7.708 -0.1155  0.0892  0.2747
  182SOPE  H10Y20857   5.566   0.287   7.677  2.7674  1.0711  1.3147
  182SOPE  C31120858   5.392   0.314   7.805 -0.1821  0.4326  0.3941
  182SOPE  H11X20859   5.344   0.217   7.777 -2.7861  1.8491 -0.1863
  182SOPE  H11Y20860   5.309   0.387   7.804 -1.3376 -0.8620 -1.3842
  182SOPE  C31220861   5.467   0.298   7.942  0.3013 -1.1057  0.4712
  182SOPE  H12X20862   5.388   0.288   8.019 -2.3938 -0.1438 -2.0293
  182SOPE  H12Y20863   5.535   0.379   7.974  0.1919 -0.1487 -1.5939
  182SOPE  C31320864   5.566   0.180   7.939 -0.4029  0.1940  0.3352
  182SOPE  H13X20865   5.646   0.203   7.865  0.7431  0.2346  1.5603
  182SOPE  H13Y20866   5.514   0.092   7.895  2.4749  0.0581 -3.0941
  182SOPE  C31420867   5.622   0.129   8.069 -0.3079 -0.3789  0.2339
  182SOPE  H14X20868   5.668   0.209   8.130 -1.3250 -2.4265  3.8412
  182SOPE  H14Y20869   5.706   0.057   8.059 -0.2133 -0.1435 -0.7098
  182SOPE  C31520870   5.502   0.078   8.156  0.8290 -0.2351  0.6092
  182SOPE  H15X20871   5.444   0.001   8.102 -1.0967  0.6653  1.3706
  182SOPE  H15Y20872   5.427   0.158   8.173  2.0258  1.4136 -1.5078
  182SOPE  C31620873   5.554   0.034   8.295 -0.2364  0.0641 -0.3263
  182SOPE  H16X20874   5.469   0.007   8.363 -0.6727  1.0850 -0.4563
  182SOPE  H16Y20875   5.609   0.123   8.332 -1.6529 -1.1146  5.1761
  182SOPE  C31720876   5.660  -0.081   8.285 -0.4959 -0.3741  0.1866
  182SOPE  H17X20877   5.694  -0.101   8.389 -2.3746 -0.2034  0.8515
  182SOPE  H17Y20878   5.748  -0.026   8.245  0.8216 -1.3447  1.7334
  182SOPE  C31820879   5.624  -0.207   8.211  0.5652  0.1646  0.8606
  182SOPE  H18X20880   5.620  -0.175   8.105  1.5279  0.1645  0.8180
  182SOPE  H18Y20881   5.529  -0.255   8.242  0.2412  0.0080 -0.3672
  182SOPE  H18Z20882   5.700  -0.287   8.225  0.8986  0.7591  2.6888
  183SOPE     N20883   0.986   5.699   6.086  0.4136  0.5911  0.3916
  183SOPE   HN120884   0.949   5.740   5.998 -2.2528  0.6309  1.4837
  183SOPE   HN220885   0.925   5.618   6.109 -0.0980  0.1497 -2.3562
  183SOPE   HN320886   0.973   5.763   6.166  1.9267  1.7742 -0.2730
  183SOPE   C1220887   1.123   5.639   6.060 -0.4076  0.0713  0.1860
  183SOPE  H12A20888   1.122   5.555   5.987 -0.1374 -1.2059  1.6381
  183SOPE  H12B20889   1.149   5.598   6.159 -1.1372 -0.4614  0.1609
  183SOPE   C1120890   1.215   5.746   6.021 -0.1827 -0.0917  0.1391
  183SOPE  H11A20891   1.196   5.768   5.914 -1.0568  0.0097  0.3105
  183SOPE  H11B20892   1.319   5.706   6.023 -0.0717  0.0741 -1.5357
  183SOPE     P20893   1.317   5.908   6.186  0.0531  0.0685  0.3576
  183SOPE   O1320894   1.275   6.018   6.270  0.8647  0.0502  0.1502
  183SOPE   O1420895   1.441   5.937   6.101  0.1698 -0.0416 -0.1770
  183SOPE   O1220896   1.198   5.868   6.093  0.0627  0.0936 -0.6003
  183SOPE   O1120897   1.342   5.779   6.280  0.2870  0.3883 -0.8862
  183SOPE    C120898   1.270   5.737   6.395 -0.4503 -0.6251 -0.3556
  183SOPE    HA20899   1.284   5.627   6.407  0.2232 -0.4224  0.8888
  183SOPE    HB20900   1.160   5.754   6.400 -0.1221  1.6482 -0.5281
  183SOPE    C220901   1.307   5.807   6.532 -0.0279 -0.4670 -0.1548
  183SOPE    HS20902   1.246   5.900   6.537  0.1772 -0.3916  0.9669
  183SOPE   O2120903   1.449   5.843   6.526  0.5713 -0.5184  0.3831
  183SOPE   C2120904   1.479   5.968   6.567  0.8196 -0.2078  0.0769
  183SOPE   O2220905   1.394   6.062   6.578 -0.1173 -0.1867  0.3915
  183SOPE   C2220906   1.627   5.974   6.588  0.7297  0.7145  1.3445
  183SOPE   H2R20907   1.672   6.017   6.496 -0.3344 -0.4785  0.2481
  183SOPE   H2S20908   1.667   5.873   6.610 -0.3516  0.4903  2.3423
  183SOPE    C320909   1.282   5.709   6.649  0.3353  0.5664  0.5429
  183SOPE    HX20910   1.338   5.615   6.629 -2.0508 -0.4969 -1.4470
  183SOPE    HY20911   1.174   5.684   6.639  0.6486  0.2789 -2.5990
  183SOPE   O3120912   1.301   5.766   6.780 -0.3506  0.3204 -0.2501
  183SOPE   C3120913   1.392   5.699   6.853  0.8157 -0.5785  0.1148
  183SOPE   O3220914   1.472   5.618   6.814 -0.5426 -0.2027 -0.1575
  183SOPE   C3220915   1.370   5.752   6.989 -0.4904  0.0401 -0.0817
  183SOPE   H2X20916   1.263   5.739   7.016 -0.3853 -0.9514 -0.1364
  183SOPE   H2Y20917   1.408   5.855   6.975 -0.3367 -0.3163 -2.3530
  183SOPE   C2320918   1.660   6.071   6.708 -0.2092 -0.1310  0.4850
  183SOPE   H3R20919   1.637   6.178   6.687 -0.4039 -0.4974 -1.2902
  183SOPE   H3S20920   1.771   6.075   6.713 -0.2527 -1.5844  3.8138
  183SOPE   C2420921   1.607   6.022   6.842  0.5984 -0.0460  0.1220
  183SOPE   H4R20922   1.496   6.024   6.841  0.5128 -3.0597 -1.1019
  183SOPE   H4S20923   1.642   5.918   6.860 -2.0268 -0.9085  0.4397
  183SOPE   C2520924   1.662   6.100   6.951 -0.7510 -0.6144 -0.2853
  183SOPE   H5R20925   1.773   6.100   6.947 -0.6978  1.7693  0.4858
  183SOPE   H5S20926   1.639   6.207   6.931  0.0661 -0.4167 -0.1780
  183SOPE   C2620927   1.607   6.056   7.094 -0.5495 -0.0006 -0.1126
  183SOPE   H6R20928   1.496   6.060   7.092 -0.7377 -3.3593  0.7479
  183SOPE   H6S20929   1.636   5.950   7.112  2.1017  0.9208  1.4323
  183SOPE   C2720930   1.664   6.137   7.211  0.4818  0.0627  0.6010
  183SOPE   H7R20931   1.773   6.130   7.194  0.1999 -0.5015 -1.0559
  183SOPE   H7S20932   1.632   6.243   7.202 -0.7645 -0.2307  1.3549
  183SOPE   C2820933   1.607   6.099   7.347  0.4505  0.2268 -0.0020
  183SOPE   H8R20934   1.501   6.124   7.367  0.1162 -0.3148 -1.0569
  183SOPE   H8S20935   1.595   5.989   7.332 -3.2025  0.9174 -2.8904
  183SOPE   C2920936   1.694   6.147   7.464  0.1919 -0.3885  0.2255
  183SOPE   H9120937   1.802   6.144   7.440 -0.0358 -0.5485 -0.8161
  183SOPE  C21020938   1.661   6.200   7.581  0.6466 -0.5694  0.1240
  183SOPE  H10120939   1.743   6.228   7.650  1.5424  0.2690 -1.2581
  183SOPE  C21120940   1.517   6.225   7.629 -0.6997 -0.1450  0.2763
  183SOPE  H11R20941   1.440   6.204   7.551 -3.0932  1.8179  2.0490
  183SOPE  H11S20942   1.506   6.329   7.665  0.5657  1.0573 -2.6133
  183SOPE  C21220943   1.480   6.132   7.742 -0.1972  0.2951 -0.4926
  183SOPE  H12R20944   1.560   6.119   7.819  0.0869  3.5995 -0.1518
  183SOPE  H12S20945   1.467   6.029   7.705  0.6280 -0.8508  2.2595
  183SOPE  C21320946   1.350   6.183   7.820 -0.0728  0.2790 -0.2146
  183SOPE  H13R20947   1.265   6.194   7.749 -1.6302 -1.5203  1.3085
  183SOPE  H13S20948   1.369   6.284   7.860 -0.1324 -1.0408  3.3204
  183SOPE  C21420949   1.311   6.092   7.938  0.3671  0.2143 -0.4099
  183SOPE  H14R20950   1.388   6.083   8.018  0.4292 -0.1650 -0.5113
  183SOPE  H14S20951   1.292   5.988   7.905  2.1229 -0.2718  0.0681
  183SOPE  C21520952   1.184   6.143   8.007 -0.5579  0.6367  0.1290
  183SOPE  H15R20953   1.156   6.075   8.090  2.1378 -0.7442 -0.0442
  183SOPE  H15S20954   1.100   6.152   7.935 -0.4373 -0.0887 -0.1049
  183SOPE  C21620955   1.189   6.285   8.079  0.4256 -0.5420 -0.0779
  183SOPE  H16R20956   1.095   6.298   8.138  2.1020 -0.7081  2.7477
  183SOPE  H16S20957   1.184   6.353   7.991 -1.3478 -3.3082 -2.1753
  183SOPE  C21720958   1.315   6.318   8.157 -0.2430 -0.1563 -0.4925
  183SOPE  H17R20959   1.410   6.329   8.101 -0.8794  0.2425 -1.5200
  183SOPE  H17S20960   1.325   6.245   8.240 -1.0078  1.9528  1.5003
  183SOPE  C21820961   1.305   6.458   8.211  0.4762 -0.1540 -0.7781
  183SOPE  H18R20962   1.289   6.532   8.130 -2.4253  1.2748  0.9840
  183SOPE  H18S20963   1.386   6.496   8.277 -0.9051 -0.7134  1.3223
  183SOPE  H18T20964   1.208   6.466   8.265  0.3084  0.4346 -1.1588
  183SOPE   C3320965   1.464   5.687   7.094  0.6071 -0.0417 -0.1235
  183SOPE   H3X20966   1.563   5.728   7.063  0.8043  1.0112  1.8444
  183SOPE   H3Y20967   1.470   5.576   7.099  2.0649  0.0691  0.9521
  183SOPE   C3420968   1.435   5.743   7.233 -0.3155 -0.3672  0.9869
  183SOPE   H4X20969   1.348   5.688   7.277  0.2241 -1.0877  1.1593
  183SOPE   H4Y20970   1.412   5.850   7.212 -0.5860 -0.5481  0.3405
  183SOPE   C3520971   1.553   5.729   7.326 -0.2110  0.1584  0.0378
  183SOPE   H5X20972   1.625   5.805   7.290 -1.3829  1.2272 -0.1013
  183SOPE   H5Y20973   1.599   5.628   7.321 -2.1442 -0.8022  1.2320
  183SOPE   C3620974   1.534   5.760   7.475  0.1088 -0.4221 -0.2643
  183SOPE   H6X20975   1.487   5.860   7.486  0.8896 -0.2057  1.2268
  183SOPE   H6Y20976   1.631   5.778   7.525 -0.1484 -0.1594  0.1458
  183SOPE   C3720977   1.457   5.661   7.553 -0.3723  0.7209  1.3357
  183SOPE   H7X20978   1.508   5.564   7.535 -0.4960  0.4908  2.2230
  183SOPE   H7Y20979   1.351   5.658   7.518 -0.0522  2.1660  0.2091
  183SOPE   C3820980   1.462   5.683   7.706 -0.3762  1.0796 -0.4540
  183SOPE   H8X20981   1.390   5.765   7.728  0.3513  0.9710  2.5043
  183SOPE   H8Y20982   1.562   5.712   7.743 -0.7690  1.3537  0.4062
  183SOPE   C3920983   1.433   5.553   7.783  0.1537 -0.0799  0.7226
  183SOPE   H9X20984   1.506   5.473   7.754  0.8049  1.3885 -1.8379
  183SOPE   H9Y20985   1.327   5.528   7.764  0.0779  0.5687  0.2615
  183SOPE  C31020986   1.456   5.568   7.935 -0.3065  0.6100  0.2052
  183SOPE  H10X20987   1.395   5.651   7.977 -0.0867  0.9468 -0.1319
  183SOPE  H10Y20988   1.564   5.576   7.960  0.3102 -1.3243 -1.6929
  183SOPE  C31120989   1.394   5.455   8.019  0.0998 -0.0340  0.1829
  183SOPE  H11X20990   1.460   5.367   8.003  1.4173  1.2100 -1.4612
  183SOPE  H11Y20991   1.288   5.441   7.988  0.3766  0.3622 -0.9882
  183SOPE  C31220992   1.412   5.495   8.166  0.0447  0.0890 -0.1718
  183SOPE  H12X20993   1.347   5.582   8.189  0.2009  0.7579 -2.1561
  183SOPE  H12Y20994   1.519   5.525   8.171 -0.3469  1.0845  4.1676
  183SOPE  C31320995   1.381   5.384   8.268 -0.0976 -0.4315 -0.6600
  183SOPE  H13X20996   1.292   5.329   8.231  0.0980 -0.1948 -1.4838
  183SOPE  H13Y20997   1.353   5.421   8.370  1.8154 -3.0977  0.8976
  183SOPE  C31420998   1.497   5.289   8.277  0.6689 -0.4608  0.4455
  183SOPE  H14X20999   1.592   5.345   8.292  0.8294 -0.5412 -0.2148
  183SOPE  H14Y21000   1.508   5.240   8.178 -0.2132  0.7626 -0.2732
  183SOPE  C31521001   1.473   5.169   8.368 -0.3944 -0.2650  0.4559
  183SOPE  H15X21002   1.569   5.115   8.373 -1.2223 -2.0017 -1.5263
  183SOPE  H15Y21003   1.397   5.094   8.336 -1.5522  1.0527  0.0277
  183SOPE  C31621004   1.436   5.198   8.508 -0.2779 -0.5779 -0.7744
  183SOPE  H16X21005   1.334   5.242   8.513 -0.1315 -0.1977 -1.1317
  183SOPE  H16Y21006   1.510   5.265   8.556  0.4302 -1.6073 -0.3949
  183SOPE  C31721007   1.417   5.075   8.595 -0.4427  0.2700 -0.0513
  183SOPE  H17X21008   1.358   5.002   8.536  1.3689 -0.3844 -1.0727
  183SOPE  H17Y21009   1.367   5.105   8.690 -0.7451  1.6769 -0.6302
  183SOPE  C31821010   1.547   5.020   8.640 -0.1603  0.2296  0.4468
  183SOPE  H18X21011   1.604   4.981   8.554  1.5562 -0.7201  1.9708
  183SOPE  H18Y21012   1.530   4.936   8.711  2.0740 -0.7578 -0.1358
  183SOPE  H18Z21013   1.616   5.092   8.690 -0.9206  0.7328  0.7840
  184SOPE     N21014   1.210   6.237   6.402 -0.1157 -0.2284  0.6750
  184SOPE   HN121015   1.112   6.221   6.433 -0.6690  2.3972  0.4100
  184SOPE   HN221016   1.236   6.149   6.352 -0.6680  0.5188 -0.9754
  184SOPE   HN321017   1.274   6.245   6.484  0.7232  1.0607 -0.0880
  184SOPE   C1221018   1.238   6.352   6.321  0.0446  0.4147 -0.4978
  184SOPE  H12A21019   1.259   6.316   6.218  1.2317 -1.6063  0.4138
  184SOPE  H12B21020   1.332   6.399   6.358  0.8666 -1.0580 -0.6857
  184SOPE   C1121021   1.121   6.443   6.318  0.3258 -0.5072 -0.2238
  184SOPE  H11A21022   1.136   6.533   6.254 -0.8174  0.8844  1.4335
  184SOPE  H11B21023   1.109   6.496   6.414  1.1350  2.0769 -1.5076
  184SOPE     P21024   0.949   6.347   6.139  0.1683  0.1784  0.0112
  184SOPE   O1321025   1.061   6.271   6.076  0.1254  0.2797  0.0031
  184SOPE   O1421026   0.911   6.474   6.073  0.0841 -0.3447 -0.3181
  184SOPE   O1221027   1.002   6.377   6.282  0.4141  0.3106  0.2586
  184SOPE   O1121028   0.824   6.254   6.161  0.3496 -0.3482  0.1583
  184SOPE    C121029   0.823   6.152   6.261  0.4853 -0.2328 -0.2614
  184SOPE    HA21030   0.926   6.121   6.287  1.1593  1.6263 -0.6240
  184SOPE    HB21031   0.765   6.065   6.223  1.0123 -0.8395  0.3063
  184SOPE    C221032   0.755   6.201   6.396  0.4896  0.6660 -0.2938
  184SOPE    HS21033   0.801   6.298   6.427 -0.5315  0.7608  0.9952
  184SOPE   O2121034   0.763   6.099   6.497 -0.2809 -0.0010 -0.4116
  184SOPE   C2121035   0.876   6.097   6.559 -0.5457  0.1433  0.1301
  184SOPE   O2221036   0.976   6.167   6.529  0.2063 -0.0955  0.2082
  184SOPE   C2221037   0.880   5.981   6.663 -0.2746  0.5161 -1.1009
  184SOPE   H2R21038   0.905   5.897   6.595 -0.3155 -0.4295  0.0267
  184SOPE   H2S21039   0.778   5.963   6.703  0.2886 -0.1299  0.0744
  184SOPE    C321040   0.606   6.230   6.373 -0.5449 -0.2490  0.3734
  184SOPE    HX21041   0.556   6.174   6.291 -1.9205  0.6519  0.5945
  184SOPE    HY21042   0.606   6.335   6.338  0.6230 -0.1879  0.5370
  184SOPE   O3121043   0.534   6.225   6.495 -0.2571  0.1918  0.0765
  184SOPE   C3121044   0.499   6.335   6.563  0.0393  0.1596 -0.2988
  184SOPE   O3221045   0.542   6.444   6.543 -0.2208  0.6418  0.6895
  184SOPE   C3221046   0.383   6.296   6.660  0.3434 -0.4339  0.0919
  184SOPE   H2X21047   0.389   6.187   6.681 -0.5749 -0.8319 -1.6419
  184SOPE   H2Y21048   0.289   6.326   6.610 -0.5515 -1.5895  1.0587
  184SOPE   C2321049   0.991   6.009   6.767  0.0889 -0.4660  0.0931
  184SOPE   H3R21050   0.963   6.102   6.820 -1.4018  0.2407 -1.8670
  184SOPE   H3S21051   1.083   6.021   6.708 -0.8664 -1.6726 -1.6889
  184SOPE   C2421052   1.021   5.897   6.866 -0.4043  0.3059 -0.1093
  184SOPE   H4R21053   1.046   5.809   6.803  1.6924  1.1777 -0.5203
  184SOPE   H4S21054   1.112   5.921   6.924 -0.0385 -2.0248  0.3495
  184SOPE   C2521055   0.911   5.884   6.963  0.1366 -0.1198 -0.4220
  184SOPE   H5R21056   0.853   5.978   6.975  2.1724  1.1403 -0.4262
  184SOPE   H5S21057   0.836   5.810   6.928 -1.2297  0.6277  0.8713
  184SOPE   C2621058   0.948   5.825   7.106 -0.0980  0.0701  0.3687
  184SOPE   H6R21059   0.853   5.795   7.155  1.2096 -2.1537  1.6197
  184SOPE   H6S21060   1.018   5.738   7.102  1.2316  1.1110  0.4204
  184SOPE   C2721061   1.015   5.926   7.202 -0.6991  0.1845  0.0024
  184SOPE   H7R21062   1.083   5.983   7.135  0.0346 -2.3186 -1.4354
  184SOPE   H7S21063   0.947   6.009   7.229 -2.1153 -1.0861  0.4090
  184SOPE   C2821064   1.071   5.866   7.332 -0.1383  1.3232  0.8819
  184SOPE   H8R21065   1.011   5.784   7.379 -0.7814  2.1305  1.4925
  184SOPE   H8S21066   1.154   5.799   7.301 -0.5534  1.8572 -1.4555
  184SOPE   C2921067   1.113   5.973   7.432  0.5144  0.8072 -0.5626
  184SOPE   H9121068   1.178   6.052   7.391  2.9336 -0.2940  1.0362
  184SOPE  C21021069   1.090   5.988   7.564  0.6910  1.0812 -0.1217
  184SOPE  H10121070   1.119   6.079   7.619  1.4631  1.5506 -1.2692
  184SOPE  C21121071   1.001   5.894   7.642 -0.1687  0.0222  0.1829
  184SOPE  H11R21072   0.960   5.817   7.574  0.4501  0.7351 -1.0401
  184SOPE  H11S21073   0.918   5.960   7.674  0.4185  1.6727 -1.5454
  184SOPE  C21221074   1.056   5.826   7.770  0.1802 -0.7499 -0.3463
  184SOPE  H12R21075   1.088   5.903   7.844  0.2631 -0.4298 -0.7144
  184SOPE  H12S21076   1.138   5.761   7.733 -0.7993 -1.1347 -1.8819
  184SOPE  C21321077   0.945   5.744   7.843 -0.1211 -0.0064 -0.4658
  184SOPE  H13R21078   0.883   5.689   7.769  0.4358 -1.8848  0.4322
  184SOPE  H13S21079   0.890   5.821   7.901  0.7354  0.7461 -0.6423
  184SOPE  C21421080   1.014   5.651   7.944 -0.3707 -0.1423  0.1018
  184SOPE  H14R21081   1.092   5.597   7.887  0.4596 -0.3856  1.4381
  184SOPE  H14S21082   0.932   5.583   7.977 -3.3045  3.2982  0.2517
  184SOPE  C21521083   1.083   5.728   8.065  0.2715  0.2025  0.8033
  184SOPE  H15R21084   1.149   5.809   8.029 -0.1911  0.4672  0.5462
  184SOPE  H15S21085   1.154   5.664   8.122  1.6882  2.1223  1.2588
  184SOPE  C21621086   0.975   5.773   8.159  0.1674 -0.8478  0.3292
  184SOPE  H16R21087   0.893   5.698   8.162 -0.3302 -0.2790  1.2922
  184SOPE  H16S21088   0.937   5.873   8.127 -0.8069 -1.2486  0.2313
  184SOPE  C21721089   1.016   5.801   8.303  0.6726 -0.1377 -0.0063
  184SOPE  H17R21090   0.938   5.854   8.361  0.4534 -0.2843 -0.1698
  184SOPE  H17S21091   1.095   5.880   8.303 -0.3255  0.8767 -1.9890
  184SOPE  C21821092   1.057   5.686   8.395  0.3061  0.4527  0.1043
  184SOPE  H18R21093   0.968   5.629   8.431 -0.6959  2.5548  1.0330
  184SOPE  H18S21094   1.116   5.717   8.484  2.2059 -0.6793 -0.7323
  184SOPE  H18T21095   1.115   5.615   8.332  1.3781  2.0176 -0.6964
  184SOPE   C3321096   0.382   6.356   6.805 -0.3023  0.7260  0.2271
  184SOPE   H3X21097   0.367   6.465   6.798 -2.0711  0.7833  3.9857
  184SOPE   H3Y21098   0.483   6.341   6.848 -0.0835  2.9227  0.5050
  184SOPE   C3421099   0.275   6.279   6.889 -0.1371  0.0710 -0.0790
  184SOPE   H4X21100   0.296   6.171   6.902 -0.8371 -0.0714 -0.1059
  184SOPE   H4Y21101   0.177   6.288   6.839 -0.4038 -1.2459  0.1972
  184SOPE   C3521102   0.271   6.322   7.032 -0.7706 -0.1054 -0.5178
  184SOPE   H5X21103   0.374   6.348   7.065 -1.1217  1.3561 -0.5343
  184SOPE   H5Y21104   0.244   6.235   7.095  3.2465 -2.0521 -1.2914
  184SOPE   C3621105   0.193   6.457   7.054  0.2268 -0.1470 -0.4172
  184SOPE   H6X21106   0.093   6.459   7.005 -0.3903  2.3000  0.8635
  184SOPE   H6Y21107   0.253   6.536   7.005  1.0099 -0.3032  0.2777
  184SOPE   C3721108   0.182   6.493   7.199  0.3581  0.3228  0.6316
  184SOPE   H7X21109   0.290   6.493   7.223  0.6237 -0.2157 -0.5315
  184SOPE   H7Y21110   0.138   6.411   7.260 -2.6936  0.7033 -0.9600
  184SOPE   C3821111   0.131   6.626   7.219 -0.8405 -0.1395  0.5391
  184SOPE   H8X21112   0.029   6.632   7.175 -0.2255 -2.3581 -1.2816
  184SOPE   H8Y21113   0.201   6.694   7.164  0.5106 -2.2206 -0.3971
  184SOPE   C3921114   0.119   6.679   7.363 -0.0256  0.6963  0.1057
  184SOPE   H9X21115   0.112   6.594   7.435 -0.5081  0.9194  0.3262
  184SOPE   H9Y21116   0.017   6.722   7.370 -0.7603 -1.3411  3.5486
  184SOPE  C31021117   0.218   6.785   7.406  0.0353  0.2953  0.3606
  184SOPE  H10X21118   0.229   6.857   7.323  1.0296  1.1254  1.2004
  184SOPE  H10Y21119   0.313   6.733   7.431 -0.1665 -0.2558 -0.0134
  184SOPE  C31121120   0.177   6.871   7.527 -0.0425 -0.0935  0.0474
  184SOPE  H11X21121   0.080   6.925   7.520  0.4438  0.5708 -1.7870
  184SOPE  H11Y21122   0.261   6.943   7.532  0.7143 -0.7240 -2.6494
  184SOPE  C31221123   0.170   6.796   7.660 -0.2105  0.8064 -0.1140
  184SOPE  H12X21124   0.270   6.753   7.680 -0.1895  0.9291  0.0369
  184SOPE  H12Y21125   0.089   6.720   7.662 -0.7486  1.3926  0.2764
  184SOPE  C31321126   0.154   6.901   7.766  0.5689 -1.0581 -0.2188
  184SOPE  H13X21127   0.054   6.950   7.771  0.8501 -0.6710  3.5275
  184SOPE  H13Y21128   0.220   6.986   7.741  0.5430 -0.7975  0.5660
  184SOPE  C31421129   0.205   6.840   7.896  0.0883 -0.1533  0.2293
  184SOPE  H14X21130   0.315   6.835   7.887  0.0204  0.5698 -1.0804
  184SOPE  H14Y21131   0.173   6.735   7.916  1.3617 -0.4740  0.6017
  184SOPE  C31521132   0.166   6.927   8.024  0.4875 -1.0487 -0.0050
  184SOPE  H15X21133   0.070   6.984   8.026  0.6056 -0.8434 -0.1588
  184SOPE  H15Y21134   0.244   7.006   8.024  1.0147 -1.5607  1.6226
  184SOPE  C31621135   0.176   6.855   8.155 -0.7889  0.9881 -0.4392
  184SOPE  H16X21136   0.276   6.811   8.172 -1.1824 -0.2717 -1.2689
  184SOPE  H16Y21137   0.101   6.773   8.163 -0.3097  0.6775  0.9637
  184SOPE  C31721138   0.140   6.933   8.286 -0.2939  0.4338  0.6619
  184SOPE  H17X21139   0.044   6.982   8.261  0.3276  2.2354  1.7403
  184SOPE  H17Y21140   0.206   7.020   8.302  2.5750 -1.5737  0.1471
  184SOPE  C31821141   0.143   6.841   8.403 -0.0461  0.0065 -0.2394
  184SOPE  H18X21142   0.169   6.896   8.495 -0.5438 -2.2359  1.2722
  184SOPE  H18Y21143   0.223   6.765   8.387  0.1050 -0.3664  2.1230
  184SOPE  H18Z21144   0.051   6.779   8.414  0.2286 -0.6854 -1.6318
  185SAPI   C1221145   4.612   2.339  10.708  0.6686 -0.2331  0.0807
  185SAPI    H221146   4.547   2.288  10.633 -2.0826 -1.1237  2.9377
  185SAPI    O221147   4.684   2.245  10.779 -0.1804  0.1807  0.2253
  185SAPI   HO221148   4.666   2.159  10.740 -1.6642 -0.4435  2.1928
  185SAPI   C1321149   4.708   2.431  10.644  0.0531 -0.2656  0.4198
  185SAPI    H321150   4.649   2.497  10.576  1.5959  0.4151 -0.2648
  185SAPI    O321151   4.808   2.368  10.565  0.0259 -0.1869  0.0146
  185SAPI   HO321152   4.833   2.290  10.614 -1.5553 -1.7980 -1.6573
  185SAPI   C1421153   4.783   2.522  10.742 -0.2671  0.0398  0.4211
  185SAPI    H421154   4.835   2.451  10.810  3.0421  0.4249 -1.6341
  185SAPI    O421155   4.871   2.610  10.671  0.1544  0.3461  0.1264
  185SAPI   HO421156   4.885   2.561  10.589 -0.7061  0.4476 -0.0812
  185SAPI   C1521157   4.684   2.591  10.836  0.0377  0.1784  0.0397
  185SAPI    H521158   4.607   2.649  10.780 -1.3857 -0.4875  1.2590
  185SAPI    O521159   4.747   2.682  10.927  0.4950  0.2182 -0.5592
  185SAPI   HO521160   4.795   2.631  10.992  0.5457  2.7292  1.4784
  185SAPI   C1621161   4.589   2.490  10.908 -0.3574  0.0607 -0.2892
  185SAPI    H621162   4.653   2.423  10.968  0.2987  0.6907 -0.2817
  185SAPI    O621163   4.496   2.551  10.994  0.4475 -0.1968  0.5070
  185SAPI   HO621164   4.405   2.524  10.978  0.5093  0.3274 -0.8593
  185SAPI   C1121165   4.515   2.414  10.795  0.4640  0.4294 -0.5363
  185SAPI    H121166   4.477   2.500  10.735 -1.6804  1.0033  1.5573
  185SAPI     P21167   4.255   2.368  10.856 -0.0184 -0.0260  0.3865
  185SAPI   O1321168   4.247   2.483  10.946  0.0627  1.0382  0.2162
  185SAPI   O1421169   4.173   2.253  10.904 -0.6742  0.7493 -0.4265
  185SAPI   O1221170   4.414   2.325  10.843  0.0492  0.0435  0.0681
  185SAPI   O1121171   4.218   2.401  10.703 -0.1511  0.0940  0.2220
  185SAPI    C121172   4.185   2.291  10.612  0.7063 -0.1177 -0.8016
  185SAPI    HA21173   4.253   2.206  10.637 -0.6807 -0.7126  1.0379
  185SAPI    HB21174   4.078   2.266  10.628  0.9353 -1.3098 -1.0703
  185SAPI    C221175   4.211   2.330  10.463  0.0763  0.5435 -0.9151
  185SAPI    HS21176   4.165   2.255  10.395 -0.0806  0.0790 -0.2982
  185SAPI   O2121177   4.353   2.341  10.445  0.1249 -0.0437  0.1587
  185SAPI   C2121178   4.387   2.351  10.312  0.0303  0.3368 -0.3015
  185SAPI   O2221179   4.312   2.317  10.224 -0.3284 -0.2789  0.1706
  185SAPI   C2221180   4.529   2.408  10.281  0.0512 -0.5463  0.3121
  185SAPI   H2R21181   4.539   2.504  10.335 -0.7015  0.5823 -1.5169
  185SAPI   H2S21182   4.600   2.328  10.313 -2.0047 -3.0876 -1.2408
  185SAPI    C321183   4.129   2.460  10.435 -0.7875  0.3690  0.4265
  185SAPI    HX21184   4.176   2.547  10.486  0.9758  0.7418 -1.7818
  185SAPI    HY21185   4.033   2.445  10.489 -1.1004  1.1973  0.1080
  185SAPI   O3121186   4.109   2.495  10.299  0.3307  0.0503 -0.6722
  185SAPI   C3121187   4.009   2.436  10.234  0.7790 -0.2315 -0.3422
  185SAPI   O3221188   3.919   2.370  10.292 -0.0277  0.1430 -0.6401
  185SAPI   C3221189   4.003   2.480  10.089  0.4288 -0.8107 -0.0155
  185SAPI   H2X21190   3.993   2.390  10.026 -0.1626 -0.1890 -0.8124
  185SAPI   H2Y21191   4.103   2.523  10.067  0.6310 -1.0183  0.4929
  185SAPI   C2321192   4.548   2.443  10.132  0.2994  0.6757  0.3761
  185SAPI   H3R21193   4.501   2.536  10.094  0.3798  0.1483 -1.0459
  185SAPI   H3S21194   4.511   2.359  10.070  1.6784  1.2879 -1.2978
  185SAPI   C2421195   4.699   2.439  10.090  0.0966 -0.1796 -0.0970
  185SAPI   H4R21196   4.714   2.419   9.982 -1.3544  1.3408 -0.5998
  185SAPI   H4S21197   4.743   2.349  10.139 -0.6209 -0.2722  0.3945
  185SAPI   C2521198   4.774   2.559  10.136  0.9625 -0.2861  0.2956
  185SAPI   H5R21199   4.719   2.641  10.185  1.3979 -0.7597  1.5952
  185SAPI   C2621200   4.904   2.573  10.109  0.0715  0.4304  0.3247
  185SAPI   H6R21201   4.958   2.665  10.135  1.7971  0.2106 -2.3179
  185SAPI   C2721202   4.994   2.477  10.044  0.7472  0.1596  0.5010
  185SAPI   H7R21203   4.944   2.385  10.007 -0.3629  0.5081  1.1230
  185SAPI   H7S21204   5.075   2.457  10.117  0.3846 -0.2710  0.7853
  185SAPI   C2821205   5.067   2.544   9.927 -0.3083 -0.1907 -0.1534
  185SAPI   H8R21206   5.149   2.610   9.958 -0.9669 -0.8154  3.1623
  185SAPI   C2921207   5.053   2.532   9.789 -0.4160 -0.8722 -0.0486
  185SAPI   H9R21208   5.113   2.588   9.716 -1.0772  2.8579  2.1613
  185SAPI  C21021209   4.940   2.456   9.729 -0.2494 -0.4909  0.3322
  185SAPI  H10R21210   4.880   2.408   9.809  0.4930 -0.0731  1.1523
  185SAPI  H10S21211   4.978   2.373   9.665 -0.6214 -0.1060 -0.3872
  185SAPI  C21121212   4.834   2.521   9.651  0.3214 -0.1861 -0.0605
  185SAPI  H11R21213   4.739   2.532   9.706 -2.1001 -3.2358 -3.3782
  185SAPI  C21221214   4.843   2.556   9.517  0.1860 -0.6676  0.5134
  185SAPI  H12R21215   4.754   2.596   9.467  1.0985  0.7202 -0.0339
  185SAPI  C21321216   4.961   2.547   9.431  0.4913 -1.0464  0.5099
  185SAPI  H13R21217   4.926   2.486   9.345 -1.0312  0.4522  0.0359
  185SAPI  H13S21218   5.050   2.495   9.472  1.3489  0.6491  0.8328
  185SAPI  C21421219   5.006   2.685   9.382  0.5657 -1.0281 -0.4855
  185SAPI  H14R21220   5.069   2.737   9.456 -0.1007 -0.2514 -0.4580
  185SAPI  C21521221   4.979   2.745   9.271  0.4938  0.3480  0.7368
  185SAPI  H15R21222   5.042   2.834   9.256  0.6631  0.1838  0.4638
  185SAPI  C21621223   4.895   2.693   9.154  0.0339 -0.8790 -0.0172
  185SAPI  H16R21224   4.839   2.782   9.121 -0.2885  0.5081  4.0352
  185SAPI  H16S21225   4.823   2.611   9.176 -0.5307 -0.6912 -1.1247
  185SAPI  C21721226   4.978   2.652   9.026 -0.0013  0.5074 -0.4641
  185SAPI  H17R21227   5.037   2.559   9.041  1.1666  1.2662 -0.3499
  185SAPI  H17S21228   5.065   2.718   9.009  0.6500 -0.3572 -0.5187
  185SAPI  C21821229   4.883   2.633   8.898  0.1482 -0.1105  0.1829
  185SAPI  H18R21230   4.837   2.731   8.875  0.2516 -0.2510 -0.6381
  185SAPI  H18S21231   4.815   2.552   8.933 -0.0512  0.2837  0.7102
  185SAPI  C21921232   4.957   2.590   8.772  0.1537  0.4817  0.0820
  185SAPI  H19R21233   4.997   2.686   8.733  0.8657  0.2936  0.3475
  185SAPI  H19S21234   4.876   2.555   8.704  0.4817  1.9157 -1.0708
  185SAPI  C22021235   5.070   2.487   8.778 -0.0324  0.2222  0.1160
  185SAPI  H20R21236   5.115   2.463   8.680 -0.3560  0.7076 -0.1488
  185SAPI  H20S21237   5.032   2.397   8.832 -0.3694  0.2329 -0.1037
  185SAPI  H20T21238   5.155   2.532   8.834  0.6040 -0.8933  0.0579
  185SAPI   C3321239   3.886   2.577  10.043  0.2645  0.7837  0.2308
  185SAPI   H3X21240   3.901   2.670  10.103  0.6924 -0.7556  2.5883
  185SAPI   H3Y21241   3.790   2.532  10.076  0.9156  1.3932  3.1356
  185SAPI   C3421242   3.890   2.606   9.901 -0.6266 -0.1751  0.1071
  185SAPI   H4X21243   3.992   2.633   9.867 -1.1472 -2.8603 -3.9878
  185SAPI   H4Y21244   3.828   2.696   9.880 -2.6162 -1.4955  0.0924
  185SAPI   C3521245   3.845   2.490   9.817 -0.4714 -0.7408  0.5018
  185SAPI   H5X21246   3.768   2.428   9.867 -3.3509  1.0729 -1.5467
  185SAPI   H5Y21247   3.938   2.430   9.807  0.1264 -0.1351  2.2240
  185SAPI   C3621248   3.803   2.533   9.680  0.9428 -0.6566 -0.2513
  185SAPI   H6X21249   3.895   2.539   9.618 -0.0489  2.8980 -1.5067
  185SAPI   H6Y21250   3.768   2.638   9.669 -1.8846 -1.4802  0.4562
  185SAPI   C3721251   3.715   2.427   9.616  0.0594 -0.0072  0.6082
  185SAPI   H7X21252   3.616   2.433   9.666 -0.0966 -0.1135  0.3113
  185SAPI   H7Y21253   3.755   2.325   9.636  1.6346  0.1610 -1.5363
  185SAPI   C3821254   3.704   2.427   9.468 -0.1263  0.4668 -0.7521
  185SAPI   H8X21255   3.632   2.347   9.442 -1.6444  2.1056 -1.7681
  185SAPI   H8Y21256   3.800   2.405   9.415 -0.5704  1.9480 -2.2319
  185SAPI   C3921257   3.658   2.551   9.404 -0.5958 -0.2881 -0.3629
  185SAPI   H9X21258   3.722   2.635   9.439 -1.3713 -0.1230  0.6687
  185SAPI   H9Y21259   3.551   2.570   9.424 -0.8051  1.4638 -2.8668
  185SAPI  C31021260   3.679   2.557   9.255 -0.0465 -1.2736  0.3965
  185SAPI  H10X21261   3.649   2.460   9.210 -3.4888 -0.1954  0.2528
  185SAPI  H10Y21262   3.782   2.565   9.214 -0.8619  2.6677 -1.0632
  185SAPI  C31121263   3.600   2.664   9.174 -0.1690 -0.3041  0.7216
  185SAPI  H11X21264   3.658   2.678   9.080 -1.9398 -0.9214 -0.4800
  185SAPI  H11Y21265   3.613   2.754   9.239 -2.1100  0.8135 -0.3898
  185SAPI  C31221266   3.460   2.618   9.141 -0.0373  0.4005 -0.6448
  185SAPI  H12X21267   3.404   2.581   9.229  0.0798 -2.0567 -1.5513
  185SAPI  H12Y21268   3.471   2.529   9.075  3.7854 -1.7639  2.6626
  185SAPI  C31321269   3.377   2.728   9.075 -0.0149 -0.5288 -0.1886
  185SAPI  H13X21270   3.422   2.778   8.987  0.2912 -2.5713 -1.2215
  185SAPI  H13Y21271   3.369   2.808   9.152  0.0679 -0.0686 -0.6594
  185SAPI  C31421272   3.226   2.690   9.057 -0.8077  0.0983 -0.1105
  185SAPI  H14X21273   3.178   2.631   9.138 -2.6624 -0.0529 -1.3019
  185SAPI  H14Y21274   3.225   2.620   8.972  2.0708 -3.5672  2.6914
  185SAPI  C31521275   3.119   2.814   9.036  0.4108 -0.0367  0.3676
  185SAPI  H15X21276   3.184   2.886   8.981  0.4211  0.3396  0.8735
  185SAPI  H15Y21277   3.106   2.853   9.139  0.8844  0.1799  0.3491
  185SAPI  C31621278   2.992   2.781   8.954 -1.1943  0.3377  0.3698
  185SAPI  H16X21279   2.954   2.681   8.984  0.8675 -0.6051 -0.0354
  185SAPI  H16Y21280   3.032   2.768   8.851 -0.7128  2.3791  0.2797
  185SAPI  C31721281   2.885   2.889   8.947 -0.4771 -0.7143 -0.4522
  185SAPI  H17X21282   2.933   2.988   8.939 -0.7500 -0.5985 -0.6669
  185SAPI  H17Y21283   2.836   2.891   9.046 -1.0791  2.3676 -0.7581
  185SAPI  C31821284   2.788   2.883   8.837 -0.0554 -0.0562 -0.3232
  185SAPI  H18X21285   2.759   2.778   8.815 -2.3851  0.8447 -1.7358
  185SAPI  H18Y21286   2.829   2.909   8.738  1.0902 -0.0636  0.1394
  185SAPI  H18Z21287   2.693   2.939   8.853 -0.6880 -0.3253 -2.9548
  186SAPI   C1221288   4.402   0.298  10.985 -0.5092  0.3875 -0.3322
  186SAPI    H221289   4.454   0.202  10.965  0.1156  0.4129  1.0760
  186SAPI    O221290   4.272   0.303  10.936 -0.5010  0.1624  0.0297
  186SAPI   HO221291   4.265   0.324  10.842  2.3030  0.2961 -0.1888
  186SAPI   C1321292   4.399   0.322  11.133  0.7120 -0.0248  0.9344
  186SAPI    H321293   4.500   0.332  11.178  1.7550 -0.0973 -1.2757
  186SAPI    O321294   4.337   0.209  11.198  0.2352 -0.3452 -0.2807
  186SAPI   HO321295   4.244   0.206  11.173 -0.1973 -0.8171  1.3348
  186SAPI   C1421296   4.331   0.456  11.168  0.0382 -0.8136 -0.0873
  186SAPI    H421297   4.231   0.472  11.122  0.6226  0.6264 -0.9175
  186SAPI    O421298   4.316   0.476  11.310  0.0797  0.1915 -0.1134
  186SAPI   HO421299   4.287   0.396  11.355  1.5537  0.0594  0.6251
  186SAPI   C1521300   4.414   0.565  11.108 -0.0089 -0.3260  0.4612
  186SAPI    H521301   4.517   0.553  11.150  0.3382  2.2755  0.4344
  186SAPI    O521302   4.366   0.692  11.148 -0.1014 -0.2191  0.1566
  186SAPI   HO521303   4.309   0.691  11.225 -1.0808  0.1360 -0.5511
  186SAPI   C1621304   4.421   0.552  10.963  0.5615  0.6429 -0.4021
  186SAPI    H621305   4.316   0.566  10.930  0.6478  1.7195 -0.2104
  186SAPI    O621306   4.501   0.660  10.902  0.6487  0.0947  0.4310
  186SAPI   HO621307   4.590   0.624  10.911  0.3462 -0.1571  2.7730
  186SAPI   C1121308   4.477   0.418  10.921 -0.3297  0.5106  0.0494
  186SAPI    H121309   4.584   0.418  10.949  0.1050 -0.1618 -1.5473
  186SAPI     P21310   4.549   0.283  10.691 -0.2695  0.3107 -0.2048
  186SAPI   O1321311   4.438   0.199  10.643 -0.5639  0.2810  0.7696
  186SAPI   O1421312   4.654   0.217  10.774 -0.5940  0.5552  0.5477
  186SAPI   O1221313   4.481   0.410  10.774 -0.7945  0.1563 -0.1217
  186SAPI   O1121314   4.630   0.342  10.568  0.3883  0.1696  0.3377
  186SAPI    C121315   4.749   0.417  10.568 -1.3857 -0.1840  0.0900
  186SAPI    HA21316   4.733   0.500  10.640 -0.1105  0.8990 -0.8330
  186SAPI    HB21317   4.837   0.361  10.606 -1.8344 -1.2854 -0.4812
  186SAPI    C221318   4.802   0.447  10.421 -0.8601  0.0136  0.7823
  186SAPI    HS21319   4.899   0.499  10.436 -0.8410  0.6321 -1.3495
  186SAPI   O2121320   4.718   0.539  10.353 -0.1478 -0.1056  0.5137
  186SAPI   C2121321   4.736   0.663  10.392 -0.6207 -0.0812 -0.7606
  186SAPI   O2221322   4.809   0.699  10.480  0.8869 -0.2633 -0.1960
  186SAPI   C2221323   4.652   0.754  10.301 -0.1669  0.1774  0.4144
  186SAPI   H2R21324   4.561   0.765  10.364 -1.0879 -0.6121 -0.7637
  186SAPI   H2S21325   4.702   0.852  10.286 -1.5794  1.0500  1.2357
  186SAPI    C321326   4.821   0.320  10.340 -0.1995  0.2706 -0.1280
  186SAPI    HX21327   4.734   0.252  10.344  1.3010 -1.5863  2.0761
  186SAPI    HY21328   4.902   0.271  10.398 -0.5165  0.9902  0.9380
  186SAPI   O3121329   4.870   0.349  10.206 -0.4144 -0.1973  0.2959
  186SAPI   C3121330   4.841   0.246  10.117  0.3214 -0.9699 -0.2066
  186SAPI   O3221331   4.814   0.134  10.156  0.0852  0.2304  0.7633
  186SAPI   C3221332   4.868   0.281   9.977  0.6625 -0.3847  0.4287
  186SAPI   H2X21333   4.950   0.355   9.988 -1.0234  1.6620 -0.4534
  186SAPI   H2Y21334   4.778   0.330   9.933  0.9930  0.6168  0.8663
  186SAPI   C2321335   4.604   0.699  10.168 -0.1004  0.6125  0.3824
  186SAPI   H3R21336   4.500   0.733  10.146 -0.2458 -0.3463 -0.4429
  186SAPI   H3S21337   4.601   0.589  10.159  1.4276  0.5016  1.1601
  186SAPI   C2421338   4.692   0.739  10.046  0.0653 -0.5744 -0.2107
  186SAPI   H4R21339   4.686   0.850  10.043 -0.9097 -0.5334  1.9779
  186SAPI   H4S21340   4.644   0.704   9.953  0.6854  1.2682 -1.2515
  186SAPI   C2521341   4.825   0.663  10.055 -0.1437  0.1396  0.1954
  186SAPI   H5R21342   4.855   0.645  10.159 -0.0536 -0.5137  0.0610
  186SAPI   C2621343   4.919   0.649   9.960 -0.2092 -0.1526 -0.5820
  186SAPI   H6R21344   5.004   0.586   9.989 -0.1601  0.8829  1.5453
  186SAPI   C2721345   4.910   0.707   9.819  0.9130 -0.3027 -0.4247
  186SAPI   H7R21346   5.011   0.744   9.795  1.0409 -0.4999 -0.1938
  186SAPI   H7S21347   4.835   0.789   9.810 -1.8051 -2.7542 -1.1008
  186SAPI   C2821348   4.869   0.606   9.711 -0.1039 -0.0445 -0.1796
  186SAPI   H8R21349   4.878   0.499   9.736 -1.2331  0.2496  1.5589
  186SAPI   C2921350   4.842   0.646   9.580  0.2179 -0.4481 -0.0704
  186SAPI   H9R21351   4.841   0.569   9.501  1.7736  2.2947 -2.9152
  186SAPI  C21021352   4.840   0.785   9.547  0.1668 -0.2186  0.1972
  186SAPI  H10R21353   4.941   0.829   9.551 -0.1936  0.5967  0.3817
  186SAPI  H10S21354   4.790   0.850   9.621  4.6353  1.3241  1.9922
  186SAPI  C21121355   4.772   0.811   9.413  0.2528  0.1530 -0.4584
  186SAPI  H11R21356   4.662   0.807   9.412  0.1490  2.1412  0.6327
  186SAPI  C21221357   4.847   0.821   9.295  0.1144  0.1923 -0.6458
  186SAPI  H12R21358   4.798   0.844   9.199 -1.1597  1.1175  0.2130
  186SAPI  C21321359   4.997   0.803   9.294  0.3779  0.3765 -0.0693
  186SAPI  H13R21360   5.056   0.815   9.387  1.3864 -0.6104 -0.5718
  186SAPI  H13S21361   5.042   0.885   9.232  1.9001 -0.6897 -0.4112
  186SAPI  C21421362   5.038   0.672   9.235  0.0251  0.5221 -0.3224
  186SAPI  H14R21363   5.028   0.595   9.313  2.0230  0.3743 -0.1883
  186SAPI  C21521364   5.086   0.649   9.113 -0.0640  0.7418  1.0090
  186SAPI  H15R21365   5.125   0.547   9.099  1.8144  1.5081  0.5430
  186SAPI  C21621366   5.110   0.747   9.002 -0.5389  0.5109  0.3204
  186SAPI  H16R21367   5.051   0.841   9.010  0.7219  1.2464  1.0728
  186SAPI  H16S21368   5.067   0.696   8.913  1.2209 -0.9072  0.2436
  186SAPI  C21721369   5.247   0.787   8.975  0.1173 -0.2659  0.1004
  186SAPI  H17R21370   5.309   0.695   8.979  1.2809  0.5092  0.0644
  186SAPI  H17S21371   5.273   0.855   9.058  1.6735  0.0874 -0.6590
  186SAPI  C21821372   5.264   0.853   8.836  0.0896  0.2038 -0.0366
  186SAPI  H18R21373   5.185   0.931   8.821  1.2051  1.7336  1.7637
  186SAPI  H18S21374   5.246   0.769   8.766  0.8232  1.0107 -1.1925
  186SAPI  C21921375   5.406   0.909   8.822  0.4025 -0.2690 -0.3112
  186SAPI  H19R21376   5.409   1.007   8.875  0.9764  0.6964 -2.1151
  186SAPI  H19S21377   5.431   0.939   8.719  1.2965 -0.5669 -0.1806
  186SAPI  C22021378   5.518   0.824   8.884  0.3495  0.0878 -0.2615
  186SAPI  H20R21379   5.503   0.792   8.989  0.7038 -1.3641 -0.6506
  186SAPI  H20S21380   5.605   0.890   8.906  0.3452  0.1756 -0.5101
  186SAPI  H20T21381   5.548   0.741   8.817 -1.5549  0.9728 -2.2492
  186SAPI   C3321382   4.912   0.171   9.885 -0.5028  0.7456 -0.1572
  186SAPI   H3X21383   4.830   0.100   9.861  0.5474 -2.0933  4.1047
  186SAPI   H3Y21384   4.990   0.108   9.932 -1.1138 -0.0547 -0.2129
  186SAPI   C3421385   4.975   0.212   9.753 -0.8547  0.2639 -0.2500
  186SAPI   H4X21386   5.042   0.131   9.720 -0.1558  1.3185 -1.4715
  186SAPI   H4Y21387   5.032   0.305   9.773  0.1772 -0.0778 -1.5258
  186SAPI   C3521388   4.868   0.244   9.650  0.0781  0.2110 -0.1637
  186SAPI   H5X21389   4.798   0.326   9.678  0.3342  0.3865 -0.0406
  186SAPI   H5Y21390   4.815   0.147   9.638 -0.5644  0.6136 -0.6300
  186SAPI   C3621391   4.915   0.272   9.505 -0.7370 -0.1089  0.2409
  186SAPI   H6X21392   4.989   0.196   9.472 -0.3618  0.4126 -0.1258
  186SAPI   H6Y21393   4.971   0.368   9.496  0.4430 -0.8809 -0.7654
  186SAPI   C3721394   4.791   0.288   9.412  0.2652  0.4899 -0.1456
  186SAPI   H7X21395   4.742   0.381   9.446  2.0877  1.0339  1.0684
  186SAPI   H7Y21396   4.724   0.201   9.429  0.2260  0.5089 -0.2013
  186SAPI   C3821397   4.823   0.293   9.260 -0.0112  0.6686  0.2524
  186SAPI   H8X21398   4.830   0.187   9.228  1.4276  1.2401 -1.4483
  186SAPI   H8Y21399   4.917   0.350   9.245 -0.5267  1.3797 -0.3422
  186SAPI   C3921400   4.706   0.349   9.175 -0.1609  0.3926 -0.2962
  186SAPI   H9X21401   4.659   0.434   9.228  0.3421 -0.4848  1.5761
  186SAPI   H9Y21402   4.630   0.273   9.148  0.3872  0.3192 -1.7038
  186SAPI  C31021403   4.766   0.409   9.043  0.8270 -0.5270  0.1588
  186SAPI  H10X21404   4.849   0.481   9.057 -0.0156  0.8024 -1.4481
  186SAPI  H10Y21405   4.677   0.460   9.001  0.9134 -0.7523 -0.3043
  186SAPI  C31121406   4.805   0.288   8.945  0.2800 -0.1432 -0.1190
  186SAPI  H11X21407   4.715   0.224   8.938 -0.0600  0.1597  1.2583
  186SAPI  H11Y21408   4.885   0.229   8.995 -0.7397 -1.1600  0.3331
  186SAPI  C31221409   4.826   0.338   8.793 -0.4400 -0.0114 -0.6140
  186SAPI  H12X21410   4.754   0.417   8.763  0.6206  1.1382 -0.1843
  186SAPI  H12Y21411   4.800   0.248   8.733  1.3857 -0.4330 -0.8182
  186SAPI  C31321412   4.964   0.371   8.747 -0.2026  0.1107 -0.4289
  186SAPI  H13X21413   5.038   0.288   8.739  1.0374  0.9284  1.8736
  186SAPI  H13Y21414   5.021   0.421   8.829 -0.3483  0.4453 -0.5336
  186SAPI  C31421415   4.978   0.445   8.612 -0.3367  0.0905 -0.5047
  186SAPI  H14X21416   4.899   0.522   8.598 -2.0253 -1.1956  1.6240
  186SAPI  H14Y21417   4.972   0.363   8.538  0.0498  0.1413 -0.5920
  186SAPI  C31521418   5.121   0.505   8.595  0.1165 -0.4311  0.7893
  186SAPI  H15X21419   5.201   0.432   8.619  1.0597  0.6809  1.0753
  186SAPI  H15Y21420   5.143   0.588   8.666 -1.9423  0.0954  0.8517
  186SAPI  C31621421   5.145   0.561   8.456 -0.5545  0.0263 -0.1927
  186SAPI  H16X21422   5.066   0.639   8.444  1.6694  2.5605  1.1721
  186SAPI  H16Y21423   5.130   0.481   8.380 -2.0253 -0.8203  0.9414
  186SAPI  C31721424   5.280   0.636   8.451  0.2459 -0.4111 -0.6073
  186SAPI  H17X21425   5.297   0.686   8.548  2.5098 -1.1789 -0.5916
  186SAPI  H17Y21426   5.263   0.718   8.377  1.3021  0.4462  0.0856
  186SAPI  C31821427   5.399   0.553   8.418  0.4862 -0.5243  0.7197
  186SAPI  H18X21428   5.413   0.469   8.490 -2.3627 -0.8276  0.9740
  186SAPI  H18Y21429   5.488   0.620   8.410 -0.2372  0.4656  0.9509
  186SAPI  H18Z21430   5.386   0.493   8.325 -0.0995 -1.3936  1.3539
  187SAPI   C1221431   1.366   2.086   6.217 -0.2516 -0.2168  0.2900
  187SAPI    H221432   1.385   2.142   6.310  0.0782  2.3535 -1.2681
  187SAPI    O221433   1.226   2.099   6.188 -0.2578  0.1400 -0.1528
  187SAPI   HO221434   1.177   2.068   6.265  1.3475  0.0123  0.8205
  187SAPI   C1321435   1.441   2.158   6.113  0.1499 -0.2130 -0.3927
  187SAPI    H321436   1.548   2.146   6.142  0.6114  0.6348 -1.6987
  187SAPI    O321437   1.426   2.302   6.116 -0.4111  0.4472  0.3532
  187SAPI   HO321438   1.332   2.321   6.114 -1.3269 -3.4085  2.0927
  187SAPI   C1421439   1.427   2.093   5.973 -0.4353  0.2240  0.2079
  187SAPI    H421440   1.319   2.097   5.948 -0.0992  0.6619 -1.1619
  187SAPI    O421441   1.503   2.149   5.864 -0.2435 -0.0882 -0.1259
  187SAPI   HO421442   1.459   2.134   5.780 -0.8911  0.6273  0.0835
  187SAPI   C1521443   1.444   1.940   5.972 -0.3596  0.6924 -0.6191
  187SAPI    H521444   1.549   1.918   6.000 -0.5154 -0.0077 -0.5782
  187SAPI    O521445   1.407   1.874   5.849 -0.3023  0.0015  0.1053
  187SAPI   HO521446   1.356   1.796   5.872 -0.3363 -0.0656 -0.1920
  187SAPI   C1621447   1.359   1.874   6.081 -0.1914 -0.5072  0.2563
  187SAPI    H621448   1.252   1.895   6.061 -0.2029 -1.1518 -0.3761
  187SAPI    O621449   1.371   1.729   6.088  0.1634 -0.4688 -0.1085
  187SAPI   HO621450   1.457   1.711   6.127  2.0877  2.4045 -2.8320
  187SAPI   C1121451   1.388   1.936   6.215  0.4759 -0.0805  0.5385
  187SAPI    H121452   1.496   1.920   6.235  0.9118  1.0758 -0.7641
  187SAPI     P21453   1.375   1.790   6.441  0.0614  0.1596 -0.0011
  187SAPI   O1321454   1.469   1.693   6.384 -0.2626  0.3485 -0.0371
  187SAPI   O1421455   1.262   1.736   6.525 -0.1715  0.6961 -0.4611
  187SAPI   O1221456   1.309   1.886   6.326 -0.2578  0.1350  0.2622
  187SAPI   O1121457   1.463   1.895   6.522 -0.4535 -0.0671 -0.9106
  187SAPI    C121458   1.418   1.997   6.615 -0.5680  0.3211  0.3836
  187SAPI    HA21459   1.468   2.091   6.581 -2.3152  1.3138  0.5012
  187SAPI    HB21460   1.310   2.022   6.602 -0.6704 -0.8965 -1.2188
  187SAPI    C221461   1.434   1.960   6.763 -0.0147  0.7049  0.0348
  187SAPI    HS21462   1.404   2.041   6.833  2.0294  0.1359  1.6027
  187SAPI   O2121463   1.568   1.929   6.791  0.2284 -0.3873 -0.6600
  187SAPI   C2121464   1.654   2.037   6.802 -0.1761 -0.0436 -0.1901
  187SAPI   O2221465   1.629   2.149   6.769 -0.3569  0.4954 -0.0346
  187SAPI   C2221466   1.791   1.982   6.858 -0.2279 -0.2068 -0.4543
  187SAPI   H2R21467   1.781   1.885   6.912 -0.7080 -0.7535 -1.5144
  187SAPI   H2S21468   1.840   1.954   6.763 -1.0551 -0.0594 -0.9324
  187SAPI    C321469   1.352   1.831   6.818 -0.3673 -0.1853 -0.0485
  187SAPI    HX21470   1.373   1.736   6.766 -0.3898 -0.2693  0.0976
  187SAPI    HY21471   1.250   1.862   6.786 -0.3623 -0.1199 -0.0020
  187SAPI   O3121472   1.347   1.826   6.958 -0.5397 -0.3001 -0.0740
  187SAPI   C3121473   1.429   1.738   7.012  0.6448 -0.5228  0.0621
  187SAPI   O3221474   1.473   1.640   6.960  0.5592 -0.4983 -0.1639
  187SAPI   C3221475   1.468   1.778   7.153  0.2303  0.1759 -0.0674
  187SAPI   H2X21476   1.514   1.878   7.149 -0.6940  0.7027  1.8957
  187SAPI   H2Y21477   1.545   1.713   7.200 -0.9500 -2.0259 -1.0705
  187SAPI   C2321478   1.867   2.095   6.931  0.2623 -0.2212 -0.4457
  187SAPI   H3R21479   1.867   2.193   6.880  0.2481  0.4269  0.7813
  187SAPI   H3S21480   1.968   2.055   6.954  0.0988 -0.8697 -0.8309
  187SAPI   C2421481   1.806   2.127   7.075  0.1719 -0.1575 -0.3831
  187SAPI   H4R21482   1.888   2.180   7.128 -0.6071 -0.3837  1.0725
  187SAPI   H4S21483   1.814   2.029   7.127 -1.0172  0.1209  0.3703
  187SAPI   C2521484   1.671   2.200   7.082  0.0590  0.3831 -0.2591
  187SAPI   H5R21485   1.637   2.235   6.983 -1.0013 -1.7008 -0.6648
  187SAPI   C2621486   1.600   2.202   7.198  0.6581  0.7112  1.1465
  187SAPI   H6R21487   1.497   2.242   7.196  0.5239  0.3475  0.2233
  187SAPI   C2721488   1.624   2.141   7.333 -0.2120 -0.0735  0.3940
  187SAPI   H7R21489   1.644   2.033   7.317 -0.3058 -0.2942  1.6936
  187SAPI   H7S21490   1.530   2.155   7.391  0.5086 -0.9786  1.8047
  187SAPI   C2821491   1.741   2.206   7.396  0.6089 -0.2263 -0.0729
  187SAPI   H8R21492   1.804   2.267   7.329  1.4868 -1.2137 -0.1572
  187SAPI   C2921493   1.774   2.190   7.522 -0.7294 -0.3042 -0.4200
  187SAPI   H9R21494   1.869   2.232   7.560 -1.5924  0.2417  1.1837
  187SAPI  C21021495   1.692   2.110   7.615  0.0087  0.3776  0.1511
  187SAPI  H10R21496   1.655   2.017   7.568  2.3235 -1.0528  1.0885
  187SAPI  H10S21497   1.603   2.171   7.641 -1.3408 -0.4478 -2.3111
  187SAPI  C21121498   1.762   2.069   7.744  0.0771 -0.2433 -0.4565
  187SAPI  H11R21499   1.698   2.099   7.828 -0.5099  0.0793 -1.0085
  187SAPI  C21221500   1.884   2.011   7.765  0.5461 -0.0886 -0.3485
  187SAPI  H12R21501   1.921   2.007   7.869 -0.3870  0.8058  0.0315
  187SAPI  C21321502   1.983   1.960   7.666  0.1277 -0.4752 -0.4666
  187SAPI  H13R21503   1.932   1.947   7.568  2.0344 -0.1553 -1.5174
  187SAPI  H13S21504   2.017   1.862   7.706 -0.3183 -0.3064  0.3349
  187SAPI  C21421505   2.095   2.065   7.652 -0.3485 -0.0173 -0.3587
  187SAPI  H14R21506   2.126   2.118   7.743 -0.1284  0.0181 -0.4536
  187SAPI  C21521507   2.158   2.101   7.539 -0.5370 -0.7243  0.2242
  187SAPI  H15R21508   2.241   2.172   7.554  1.1837 -2.0425 -2.6638
  187SAPI  C21621509   2.137   2.055   7.398 -0.9685 -0.0114  0.1808
  187SAPI  H16R21510   2.145   2.139   7.325  2.6768 -0.7110 -0.2888
  187SAPI  H16S21511   2.037   2.008   7.387 -0.3270 -1.5100  0.7545
  187SAPI  C21721512   2.237   1.951   7.343  0.2544 -0.5796 -0.2042
  187SAPI  H17R21513   2.240   1.860   7.407 -1.1002 -1.4749 -1.3786
  187SAPI  H17S21514   2.343   1.982   7.330 -0.1883  0.7859 -0.6621
  187SAPI  C21821515   2.196   1.912   7.197 -0.3339  0.1817  0.1180
  187SAPI  H18R21516   2.163   1.998   7.135  0.9422 -1.7650 -3.3893
  187SAPI  H18S21517   2.109   1.843   7.211  0.6280 -0.7003  1.9506
  187SAPI  C21921518   2.307   1.840   7.129  0.1771 -0.1250  0.0535
  187SAPI  H19R21519   2.355   1.774   7.205 -0.5438  0.8024  1.3395
  187SAPI  H19S21520   2.388   1.913   7.106  0.5430 -0.5958 -0.1531
  187SAPI  C22021521   2.276   1.742   7.017  0.4077  0.4835 -0.6076
  187SAPI  H20R21522   2.225   1.807   6.943 -1.2210 -1.5121 -1.2733
  187SAPI  H20S21523   2.213   1.654   7.043 -0.3536  0.8812 -1.0817
  187SAPI  H20T21524   2.370   1.711   6.965  0.4599 -1.1914  0.4362
  187SAPI   C3321525   1.350   1.781   7.249  0.0275  0.0372  0.0793
  187SAPI   H3X21526   1.275   1.700   7.234 -3.6785  3.4752 -0.8193
  187SAPI   H3Y21527   1.290   1.873   7.232 -1.3148 -1.1047 -1.6376
  187SAPI   C3421528   1.389   1.788   7.400  0.2962 -0.0196  0.1497
  187SAPI   H4X21529   1.475   1.857   7.411  0.2195  0.3255 -1.2694
  187SAPI   H4Y21530   1.422   1.687   7.432  1.9773  0.0880 -1.2076
  187SAPI   C3521531   1.281   1.819   7.514  0.2836  0.7699  0.2346
  187SAPI   H5X21532   1.206   1.737   7.503  1.1137  0.0588 -0.1351
  187SAPI   H5Y21533   1.237   1.918   7.487  3.2836  2.2459  0.5785
  187SAPI   C3621534   1.335   1.826   7.657  0.3707 -0.1061 -1.0276
  187SAPI   H6X21535   1.408   1.910   7.655 -0.8490  0.9337 -3.6029
  187SAPI   H6Y21536   1.365   1.727   7.699  1.5222 -0.1552 -1.9376
  187SAPI   C3721537   1.219   1.869   7.753 -0.3143  0.1966  0.0357
  187SAPI   H7X21538   1.134   1.798   7.740 -1.3287  1.0076  2.0243
  187SAPI   H7Y21539   1.172   1.967   7.730  2.0202  1.3813  0.2188
  187SAPI   C3821540   1.264   1.884   7.897 -0.0152 -0.1042  0.3030
  187SAPI   H8X21541   1.342   1.961   7.917  0.0322 -0.1556  0.3128
  187SAPI   H8Y21542   1.304   1.789   7.936 -1.2476 -0.9643 -0.4631
  187SAPI   C3921543   1.146   1.907   7.992 -0.3464 -0.4864  0.2049
  187SAPI   H9X21544   1.065   1.833   7.981  1.0820 -2.0200 -0.1157
  187SAPI   H9Y21545   1.094   1.998   7.955  0.9687  0.6570  1.0995
  187SAPI  C31021546   1.185   1.911   8.147 -0.0330  0.5628 -0.7566
  187SAPI  H10X21547   1.278   1.970   8.161  0.2992 -0.3553  0.9490
  187SAPI  H10Y21548   1.198   1.809   8.186  0.2518  1.3612  1.2814
  187SAPI  C31121549   1.074   1.977   8.226 -0.3777 -0.1209  0.1832
  187SAPI  H11X21550   0.987   1.909   8.221 -1.0595  0.8463 -1.2007
  187SAPI  H11Y21551   1.039   2.068   8.173  0.1230 -0.6022 -0.9844
  187SAPI  C31221552   1.123   2.015   8.370 -0.0629 -0.3871  0.2872
  187SAPI  H12X21553   1.222   2.066   8.367 -1.3191  2.0318 -2.6660
  187SAPI  H12Y21554   1.146   1.921   8.425  0.2057 -0.7560 -0.4477
  187SAPI  C31321555   1.025   2.113   8.440  0.0491 -0.5932  0.6560
  187SAPI  H13X21556   0.931   2.053   8.440  0.2428 -0.8966  0.4008
  187SAPI  H13Y21557   1.015   2.200   8.372  2.2955  0.7397  1.9607
  187SAPI  C31421558   1.070   2.159   8.579 -0.2295 -0.2105  0.1271
  187SAPI  H14X21559   1.157   2.225   8.563 -1.9125  1.2119 -3.8089
  187SAPI  H14Y21560   1.100   2.073   8.643  2.0012 -0.3685 -1.1126
  187SAPI  C31521561   0.956   2.233   8.655  0.3476  0.6045 -0.2924
  187SAPI  H15X21562   0.995   2.258   8.756  0.0373  0.6786 -0.1871
  187SAPI  H15Y21563   0.877   2.155   8.667  0.4912 -0.1295 -3.6405
  187SAPI  C31621564   0.894   2.360   8.592  0.7667 -0.2850 -0.2363
  187SAPI  H16X21565   0.855   2.323   8.495 -0.3059 -1.7069  0.7103
  187SAPI  H16Y21566   0.968   2.442   8.591  0.1580  0.2679 -1.8996
  187SAPI  C31721567   0.774   2.413   8.669 -0.5151 -0.3979 -0.1387
  187SAPI  H17X21568   0.764   2.522   8.652  1.2970 -0.5488 -2.4259
  187SAPI  H17Y21569   0.784   2.390   8.777 -0.1686  3.2400  0.6670
  187SAPI  C31821570   0.643   2.354   8.627  0.3121  0.0849 -0.0750
  187SAPI  H18X21571   0.639   2.247   8.595 -0.9433  0.2697 -0.5906
  187SAPI  H18Y21572   0.601   2.397   8.533  3.0103  0.5347 -1.1183
  187SAPI  H18Z21573   0.570   2.359   8.710  0.0609 -0.5149 -0.2507
  188SAPI   C1221574   2.350   5.428   5.944 -0.4200  0.6565  0.4711
  188SAPI    H221575   2.301   5.349   6.005  0.8790  0.0427  0.7210
  188SAPI    O221576   2.456   5.383   5.866 -0.1330  0.4139  0.3567
  188SAPI   HO221577   2.476   5.295   5.898 -0.4472 -0.7441 -2.4667
  188SAPI   C1321578   2.243   5.483   5.855  0.1805 -0.4435 -0.4735
  188SAPI    H321579   2.157   5.517   5.917 -2.6709 -1.5433 -3.6855
  188SAPI    O321580   2.196   5.392   5.757  0.3943 -0.1897 -0.8603
  188SAPI   HO321581   2.146   5.325   5.805  0.3301  0.1846 -0.4036
  188SAPI   C1421582   2.298   5.612   5.792 -0.4359 -0.1781  0.8619
  188SAPI    H421583   2.387   5.582   5.732 -1.0640 -0.0567 -0.1386
  188SAPI    O421584   2.212   5.658   5.690 -0.4446  0.4463  0.3860
  188SAPI   HO421585   2.204   5.590   5.623  0.4590  2.2734 -1.6580
  188SAPI   C1521586   2.345   5.724   5.894 -0.0292  0.2145 -0.0397
  188SAPI    H521587   2.254   5.744   5.954  0.0286  2.5224 -0.6666
  188SAPI    O521588   2.387   5.847   5.830  0.1308  0.2834 -0.0794
  188SAPI   HO521589   2.333   5.918   5.866 -0.8781  0.0629 -1.1032
  188SAPI   C1621590   2.454   5.665   5.979  0.0972 -0.3285 -0.0599
  188SAPI    H621591   2.532   5.633   5.906  3.2697  1.2255  2.5005
  188SAPI    O621592   2.501   5.761   6.070 -0.5298 -0.4418 -0.1333
  188SAPI   HO621593   2.528   5.718   6.151  1.0088  2.3058  0.8721
  188SAPI   C1121594   2.403   5.541   6.048 -0.0297  0.3836 -0.0759
  188SAPI    H121595   2.307   5.568   6.096 -0.2268 -1.6463  0.7315
  188SAPI     P21596   2.488   5.500   6.302 -0.5676 -0.2458 -0.0778
  188SAPI   O1321597   2.498   5.647   6.323  0.3774  0.5402  0.1101
  188SAPI   O1421598   2.586   5.406   6.366 -0.3985 -0.1358  0.1004
  188SAPI   O1221599   2.489   5.472   6.143  0.2627  0.3015 -0.9015
  188SAPI   O1121600   2.349   5.455   6.354 -0.2242  0.2821 -0.5555
  188SAPI    C121601   2.261   5.533   6.431 -0.0153  0.1678  0.3724
  188SAPI    HA21602   2.277   5.642   6.416 -0.7869  0.2316 -0.0013
  188SAPI    HB21603   2.159   5.519   6.390 -0.0830 -0.6194  0.7918
  188SAPI    C221604   2.256   5.486   6.580 -0.5223 -0.4800 -0.5228
  188SAPI    HS21605   2.176   5.534   6.639 -0.3017 -0.7247 -0.0227
  188SAPI   O2121606   2.386   5.500   6.639 -0.2073  0.8004 -0.0908
  188SAPI   C2121607   2.426   5.615   6.688 -0.0541  0.1472 -0.3622
  188SAPI   O2221608   2.351   5.715   6.699 -0.3356 -0.3233  0.1835
  188SAPI   C2221609   2.575   5.594   6.728  0.3350 -0.3701 -1.2303
  188SAPI   H2R21610   2.573   5.508   6.799 -0.3660  1.6771  1.2657
  188SAPI   H2S21611   2.624   5.559   6.635 -0.6989 -3.4358 -0.6994
  188SAPI    C321612   2.224   5.336   6.584  0.8031 -0.0072  0.5292
  188SAPI    HX21613   2.278   5.275   6.508 -2.3678 -1.6293 -0.5048
  188SAPI    HY21614   2.115   5.341   6.561  0.8304  0.1079  0.4223
  188SAPI   O3121615   2.236   5.282   6.720  0.7021 -0.4128 -0.3749
  188SAPI   C3121616   2.328   5.189   6.744  0.0403 -0.0875  0.0394
  188SAPI   O3221617   2.407   5.146   6.658  0.4825 -0.0751 -0.2964
  188SAPI   C3221618   2.343   5.163   6.900  0.2829  0.1011 -0.9430
  188SAPI   H2X21619   2.337   5.052   6.900  1.0739  0.0176  1.6268
  188SAPI   H2Y21620   2.255   5.208   6.951  0.4997 -0.1529 -0.3400
  188SAPI   C2321621   2.643   5.719   6.777 -0.2135  0.0799  0.5116
  188SAPI   H3R21622   2.607   5.814   6.733 -1.9024 -0.8054 -0.0675
  188SAPI   H3S21623   2.752   5.706   6.760  0.4047  2.2703  2.4976
  188SAPI   C2421624   2.630   5.742   6.930  0.0759  0.0301  0.6716
  188SAPI   H4R21625   2.703   5.820   6.960  0.1671 -0.5445  2.0020
  188SAPI   H4S21626   2.659   5.649   6.983  0.0329  0.5872  1.6791
  188SAPI   C2521627   2.489   5.783   6.975  0.8209 -0.1890 -0.1436
  188SAPI   H5R21628   2.418   5.795   6.893  0.1334  2.2513  0.7601
  188SAPI   C2621629   2.444   5.793   7.098 -0.4894 -0.2209  0.0244
  188SAPI   H6R21630   2.341   5.822   7.124 -1.0359 -2.2976  0.2115
  188SAPI   C2721631   2.530   5.768   7.219 -0.1203 -0.0067  0.1677
  188SAPI   H7R21632   2.557   5.860   7.274 -2.6909  2.0370 -1.8756
  188SAPI   H7S21633   2.628   5.732   7.181 -0.0851  0.6458 -0.3637
  188SAPI   C2821634   2.477   5.667   7.321 -0.6206 -0.1266  0.6877
  188SAPI   H8R21635   2.403   5.593   7.286  0.9477 -1.2915 -0.2297
  188SAPI   C2921636   2.516   5.658   7.455 -0.2218 -0.1695  0.3359
  188SAPI   H9R21637   2.467   5.576   7.511  0.9810 -1.9532 -1.1605
  188SAPI  C21021638   2.614   5.742   7.529 -0.1860  0.3088 -0.1324
  188SAPI  H10R21639   2.704   5.759   7.467 -0.3786 -2.1001 -1.1086
  188SAPI  H10S21640   2.659   5.678   7.608  2.5928  1.7375 -0.4864
  188SAPI  C21121641   2.552   5.865   7.588  0.2798 -0.6563  0.2212
  188SAPI  H11R21642   2.529   5.947   7.518  0.9097  0.7612  1.6240
  188SAPI  C21221643   2.506   5.883   7.710 -0.4903  0.0722 -0.6503
  188SAPI  H12R21644   2.461   5.978   7.743 -0.9930 -1.0236  2.0343
  188SAPI  C21321645   2.509   5.783   7.825  0.2408 -1.3675  0.5491
  188SAPI  H13R21646   2.544   5.835   7.917  1.8839 -0.4258 -0.5999
  188SAPI  H13S21647   2.572   5.693   7.806 -0.0500 -1.4108 -0.2003
  188SAPI  C21421648   2.374   5.731   7.863  0.0349 -0.1118  0.3845
  188SAPI  H14R21649   2.324   5.680   7.780 -0.0007 -1.4778  1.2291
  188SAPI  C21521650   2.295   5.746   7.971 -0.2096  0.9537 -0.4046
  188SAPI  H15R21651   2.190   5.714   7.963 -0.0281  0.1500  0.3736
  188SAPI  C21621652   2.324   5.838   8.087 -0.2800 -0.3528 -0.2294
  188SAPI  H16R21653   2.239   5.910   8.081 -0.6025 -0.7212 -0.0877
  188SAPI  H16S21654   2.417   5.896   8.069 -0.4993 -0.5608 -2.1422
  188SAPI  C21721655   2.341   5.769   8.223  0.2918  0.3810  0.1834
  188SAPI  H17R21656   2.404   5.678   8.208  1.1839  1.4116 -2.4543
  188SAPI  H17S21657   2.251   5.733   8.278  0.8368 -1.5175 -0.1122
  188SAPI  C21821658   2.435   5.847   8.318 -0.5254 -0.6062 -0.0566
  188SAPI  H18R21659   2.403   5.950   8.344  3.7574  0.5006  1.2834
  188SAPI  H18S21660   2.534   5.850   8.268  0.0819 -2.3579  0.9886
  188SAPI  C21921661   2.453   5.775   8.450 -0.1812 -1.5339  0.1349
  188SAPI  H19R21662   2.481   5.670   8.426  3.1112 -1.0134  1.4106
  188SAPI  H19S21663   2.354   5.762   8.498 -1.3130 -0.7534 -1.9270
  188SAPI  C22021664   2.551   5.849   8.542  0.6221 -0.1920  0.5034
  188SAPI  H20R21665   2.648   5.861   8.489 -0.7731 -1.4452 -2.4943
  188SAPI  H20S21666   2.553   5.799   8.642  0.5988  0.0035  0.5984
  188SAPI  H20T21667   2.518   5.953   8.561  0.8680 -0.0143 -0.0458
  188SAPI   C3321668   2.478   5.209   6.969 -0.4674  0.4705 -0.3873
  188SAPI   H3X21669   2.494   5.310   6.926  2.0451 -0.2836 -1.3300
  188SAPI   H3Y21670   2.554   5.133   6.940 -1.6788 -0.5061 -1.0582
  188SAPI   C3421671   2.479   5.211   7.123  0.0001 -0.5359 -0.1610
  188SAPI   H4X21672   2.383   5.250   7.164  0.0494  1.1269 -1.5734
  188SAPI   H4Y21673   2.543   5.297   7.154  0.8198 -1.5363  0.9667
  188SAPI   C3521674   2.524   5.079   7.187 -0.1881  0.1409  0.4326
  188SAPI   H5X21675   2.634   5.073   7.197 -0.0885 -2.1387 -1.5499
  188SAPI   H5Y21676   2.481   4.994   7.130  0.0276 -0.1954  0.7673
  188SAPI   C3621677   2.466   5.066   7.326 -0.7994  0.1809 -0.1506
  188SAPI   H6X21678   2.507   4.971   7.368 -0.7440  0.3603  0.1982
  188SAPI   H6Y21679   2.356   5.051   7.323 -0.6889 -0.4121 -1.4383
  188SAPI   C3721680   2.515   5.185   7.413 -0.2266  1.0165  0.7620
  188SAPI   H7X21681   2.452   5.275   7.399  0.1757  1.0993 -0.5594
  188SAPI   H7Y21682   2.621   5.211   7.393  0.3557 -1.6531  0.0985
  188SAPI   C3821683   2.511   5.163   7.571  0.1814  0.0248  0.5440
  188SAPI   H8X21684   2.579   5.082   7.603  0.2412  0.6717  2.0989
  188SAPI   H8Y21685   2.409   5.134   7.606  0.5160 -0.5100  1.0682
  188SAPI   C3921686   2.541   5.295   7.646  0.6222  0.3149  0.0075
  188SAPI   H9X21687   2.454   5.362   7.627 -0.6683 -1.4765 -0.5675
  188SAPI   H9Y21688   2.627   5.347   7.600  0.6646  0.7360  0.5590
  188SAPI  C31021689   2.563   5.271   7.801  0.0704 -0.3962  0.1295
  188SAPI  H10X21690   2.666   5.242   7.828  0.6028  3.6386  2.7776
  188SAPI  H10Y21691   2.493   5.197   7.847  2.0152 -3.4592 -1.6861
  188SAPI  C31121692   2.536   5.402   7.874 -0.1788 -0.6938  0.0630
  188SAPI  H11X21693   2.435   5.436   7.843 -0.8413 -3.1516 -0.6247
  188SAPI  H11Y21694   2.607   5.482   7.845 -1.1443  0.6903  1.4558
  188SAPI  C31221695   2.548   5.400   8.028  0.3564  0.1723 -0.1343
  188SAPI  H12X21696   2.531   5.503   8.068 -1.2733 -1.0275  2.4064
  188SAPI  H12Y21697   2.649   5.366   8.059  0.2542  0.2100  0.2419
  188SAPI  C31321698   2.461   5.296   8.097  0.5806 -0.7149  0.4546
  188SAPI  H13X21699   2.506   5.197   8.076  0.9518  0.1116 -2.9241
  188SAPI  H13Y21700   2.353   5.298   8.068  0.7557 -2.6282 -0.3614
  188SAPI  C31421701   2.468   5.307   8.257 -0.1016  0.3171  0.4732
  188SAPI  H14X21702   2.430   5.403   8.297  0.0570  0.4028  0.4223
  188SAPI  H14Y21703   2.578   5.295   8.272 -0.0298  1.1045  0.6141
  188SAPI  C31521704   2.383   5.201   8.328  0.0519  0.1783  0.5071
  188SAPI  H15X21705   2.410   5.106   8.278  2.0418  0.4265  1.0398
  188SAPI  H15Y21706   2.278   5.221   8.300  0.6064 -0.0297 -1.8306
  188SAPI  C31621707   2.394   5.181   8.480 -0.9514 -0.7041 -0.0329
  188SAPI  H16X21708   2.499   5.152   8.504 -0.4629 -0.0584 -1.3118
  188SAPI  H16Y21709   2.319   5.103   8.507 -1.3588 -0.8457 -1.5307
  188SAPI  C31721710   2.359   5.315   8.548 -0.8737 -1.0843 -0.0732
  188SAPI  H17X21711   2.251   5.330   8.526 -1.0710  1.1991  2.1629
  188SAPI  H17Y21712   2.411   5.406   8.509  0.0335  0.0722  3.6759
  188SAPI  C31821713   2.392   5.295   8.694 -0.1499  0.0209  0.3338
  188SAPI  H18X21714   2.501   5.281   8.707  0.0954  1.6228  0.0862
  188SAPI  H18Y21715   2.349   5.201   8.735  0.4510  0.4372  1.9732
  188SAPI  H18Z21716   2.354   5.379   8.757  1.5260  1.2019 -0.1869
  189POPC     N21717   3.260   6.370  10.736  0.7360  0.3293  0.4459
  189POPC   C1221718   3.210   6.470  10.635  0.4056  0.7383  0.1406
  189POPC  H12A21719   3.289   6.474  10.561  0.2066 -1.0800 -0.1963
  189POPC  H12B21720   3.203   6.563  10.690  0.5782  1.3449 -0.8321
  189POPC   C1321721   3.174   6.357  10.861 -0.7097 -0.1529  0.0689
  189POPC  H13A21722   3.170   6.453  10.911 -1.0851 -1.1245  1.9390
  189POPC  H13B21723   3.073   6.326  10.839 -0.3442 -1.3348  0.0321
  189POPC  H13C21724   3.221   6.282  10.923 -1.3026  0.6438  1.5076
  189POPC   C1421725   3.273   6.235  10.665 -0.0356 -0.0409  0.4865
  189POPC  H14A21726   3.332   6.236  10.574  0.9785  1.3961  1.1523
  189POPC  H14B21727   3.326   6.165  10.728  0.4479 -0.8363 -0.7595
  189POPC  H14C21728   3.178   6.194  10.634  1.2693 -0.9618 -2.4913
  189POPC   C1521729   3.396   6.415  10.783  0.7659  0.0460 -0.4508
  189POPC  H15A21730   3.396   6.523  10.785  2.4167  0.0300  3.4281
  189POPC  H15B21731   3.461   6.389  10.701  0.2695 -0.4314 -0.6950
  189POPC  H15C21732   3.424   6.364  10.874 -1.2935  1.1520  0.8342
  189POPC   C1121733   3.073   6.448  10.570  0.2402 -0.7654  0.5907
  189POPC  H11A21734   3.073   6.345  10.527 -2.0562 -1.3425  1.8828
  189POPC  H11B21735   3.054   6.524  10.491  1.1615 -0.0214  1.0755
  189POPC     P21736   2.921   6.602  10.711  0.1826 -0.0741 -0.1669
  189POPC   O1321737   3.044   6.690  10.714  0.4904 -0.0647 -0.4982
  189POPC   O1421738   2.847   6.600  10.839 -0.4871 -0.4965 -0.9020
  189POPC   O1221739   2.966   6.455  10.670 -0.3290 -0.4784  0.1993
  189POPC   O1121740   2.816   6.633  10.600  0.8025  0.5691  0.2494
  189POPC    C121741   2.715   6.540  10.553  0.1106 -0.4528 -1.0198
  189POPC    HA21742   2.640   6.520  10.632 -0.6803  2.2170 -1.0244
  189POPC    HB21743   2.767   6.443  10.539 -1.0141 -1.4521  1.4187
  189POPC    C221744   2.678   6.584  10.418 -0.0653  0.5550  0.4612
  189POPC    HS21745   2.605   6.667  10.423 -1.7371 -0.9832  2.5538
  189POPC   O2121746   2.619   6.469  10.351 -0.1111  0.1219  0.4539
  189POPC   C2121747   2.495   6.432  10.378  0.3695  0.2762 -0.9292
  189POPC   O2221748   2.430   6.473  10.470 -0.5021  0.1225 -0.1277
  189POPC   C2221749   2.447   6.319  10.279 -0.9826  0.6480  0.4929
  189POPC   H2R21750   2.506   6.226  10.289 -0.2750  0.9932 -0.3523
  189POPC   H2S21751   2.449   6.359  10.175 -1.8421 -1.0251 -0.1822
  189POPC    C321752   2.798   6.640  10.336 -0.1635  0.0911  0.1151
  189POPC    HX21753   2.844   6.728  10.386 -0.2989  1.9437 -2.8935
  189POPC    HY21754   2.761   6.684  10.241  1.5113  0.6330 -0.3085
  189POPC   O3121755   2.900   6.545  10.319  0.1023  0.2655 -0.4505
  189POPC   C3121756   2.892   6.466  10.204  0.6056  0.7876 -0.0082
  189POPC   O3221757   2.802   6.472  10.124 -0.3377 -0.2318  0.3957
  189POPC   C3221758   3.022   6.393  10.191  0.8124 -0.1436 -0.1886
  189POPC   H2X21759   3.042   6.320  10.273 -2.1220 -2.2539 -1.2419
  189POPC   H2Y21760   3.107   6.465  10.197 -0.0277  1.0742 -2.2988
  189POPC   C2321761   2.299   6.276  10.297 -0.3820 -0.2338 -1.3642
  189POPC   H3R21762   2.227   6.358  10.317 -0.4320 -0.3185 -1.1906
  189POPC   H3S21763   2.283   6.227  10.396 -0.5290  4.1586  0.8861
  189POPC   C2421764   2.242   6.194  10.179 -0.1569  0.2257 -0.0664
  189POPC   H4R21765   2.270   6.228  10.077 -0.5859  0.8669  0.0268
  189POPC   H4S21766   2.131   6.196  10.187 -0.2183 -1.7682 -0.2668
  189POPC   C2521767   2.280   6.046  10.175  0.0865 -0.1399 -0.0271
  189POPC   H5R21768   2.251   5.999  10.271 -1.2511 -0.2751 -0.4845
  189POPC   H5S21769   2.390   6.044  10.166  0.1738  1.6870  0.5318
  189POPC   C2621770   2.218   5.966  10.056 -0.3413  0.4556 -0.8952
  189POPC   H6R21771   2.109   5.987  10.060 -0.6578 -1.1491 -0.4925
  189POPC   H6S21772   2.235   5.859  10.081 -1.4630  0.1136 -1.5566
  189POPC   C2721773   2.280   5.983   9.911  0.1312  0.1939  0.4500
  189POPC   H7R21774   2.387   5.952   9.903 -0.2044 -0.8079 -0.2120
  189POPC   H7S21775   2.278   6.092   9.889  1.7753  0.6155  2.1590
  189POPC   C2821776   2.205   5.888   9.803  0.3404 -1.0980  0.4189
  189POPC   H8R21777   2.095   5.890   9.817  0.3012  1.4556  0.0974
  189POPC   H8S21778   2.253   5.791   9.829  0.1129 -0.6382  2.6843
  189POPC   C2921779   2.234   5.946   9.663 -0.2594 -0.0292 -0.2503
  189POPC   H9121780   2.228   6.054   9.645 -0.0832 -0.1517 -1.0725
  189POPC  C21021781   2.270   5.875   9.557 -0.1947  0.6044 -0.0221
  189POPC  H10121782   2.286   5.930   9.463  0.6169 -0.3012 -0.4206
  189POPC  C21121783   2.281   5.728   9.554  0.4217  0.1966 -0.1974
  189POPC  H11R21784   2.261   5.682   9.653  3.2695 -1.1535 -0.2034
  189POPC  H11S21785   2.389   5.707   9.540  1.1256  2.1804  1.8816
  189POPC  C21221786   2.191   5.672   9.442  0.4730  0.3964  0.3202
  189POPC  H12R21787   2.082   5.691   9.458  0.6035  0.8409  0.6574
  189POPC  H12S21788   2.189   5.561   9.443  0.9954  0.3511 -1.6936
  189POPC  C21321789   2.231   5.700   9.300 -0.0896 -0.1725  0.6498
  189POPC  H13R21790   2.339   5.671   9.294 -0.0272  0.3624 -1.0901
  189POPC  H13S21791   2.226   5.810   9.284  0.0590 -0.1696  0.6265
  189POPC  C21421792   2.159   5.627   9.183 -0.0823  0.7681 -0.2864
  189POPC  H14R21793   2.051   5.637   9.207  0.2191 -1.2150  2.0782
  189POPC  H14S21794   2.188   5.520   9.183  2.6738  1.4943  0.2706
  189POPC  C21521795   2.203   5.693   9.052 -0.0405  0.3750 -0.5383
  189POPC  H15R21796   2.313   5.695   9.062 -0.1406 -0.5273  0.8440
  189POPC  H15S21797   2.168   5.798   9.057  1.4303  0.9695 -2.1449
  189POPC  C21621798   2.165   5.625   8.918  0.3472  0.4431 -0.5881
  189POPC  H16R21799   2.054   5.620   8.920  0.3831 -0.6170 -0.7077
  189POPC  H16S21800   2.203   5.521   8.917  2.5871  1.2458 -1.0160
  189POPC  C21721801   2.217   5.689   8.785  0.2526  0.8351  0.7210
  189POPC  H17R21802   2.328   5.685   8.773 -0.0828 -0.0290 -2.8983
  189POPC  H17S21803   2.184   5.795   8.793  1.5652  1.4909 -1.7331
  189POPC  C21821804   2.144   5.622   8.658  0.0424 -0.5001 -0.1450
  189POPC  H18R21805   2.036   5.614   8.685  0.0884 -2.0736 -0.4250
  189POPC  H18S21806   2.183   5.520   8.642  3.1289  0.2983  1.8510
  189POPC  H18T21807   2.163   5.678   8.564  1.9124  1.2853  1.2538
  189POPC   C3321808   3.038   6.323  10.055  0.6008 -0.0085  0.4846
  189POPC   H3X21809   3.050   6.399   9.975 -2.8849  0.4607  0.3362
  189POPC   H3Y21810   2.947   6.260  10.039 -0.5600  1.3407  1.5721
  189POPC   C3421811   3.157   6.235  10.054 -0.7181 -0.4524  0.8216
  189POPC   H4X21812   3.134   6.159  10.132 -4.2749  0.0268  0.3242
  189POPC   H4Y21813   3.253   6.286  10.078 -0.5301 -0.2872 -0.2500
  189POPC   C3521814   3.193   6.165   9.920 -0.0598 -0.6128  0.2377
  189POPC   H5X21815   3.104   6.107   9.887 -0.6358  0.0580  0.6156
  189POPC   H5Y21816   3.275   6.096   9.950 -0.8117 -0.4789  2.7170
  189POPC   C3621817   3.232   6.252   9.799  0.4320  1.0083  0.0475
  189POPC   H6X21818   3.322   6.307   9.834  0.1239  1.7878 -0.3475
  189POPC   H6Y21819   3.149   6.326   9.785  0.4919  0.6500 -2.4488
  189POPC   C3721820   3.264   6.174   9.668  0.7429  0.5288 -0.0215
  189POPC   H7X21821   3.179   6.104   9.663  2.4493 -2.0750  4.4574
  189POPC   H7Y21822   3.353   6.112   9.692  1.1424  0.9200 -0.4890
  189POPC   C3821823   3.278   6.260   9.541  0.9892 -0.2132 -0.5998
  189POPC   H8X21824   3.347   6.342   9.573 -1.5674  2.3651 -1.4373
  189POPC   H8Y21825   3.186   6.319   9.519  0.2134 -1.4436 -0.6556
  189POPC   C3921826   3.316   6.175   9.423  0.1847  0.1883  0.1044
  189POPC   H9X21827   3.237   6.097   9.422  0.0189  0.3436 -1.7851
  189POPC   H9Y21828   3.417   6.137   9.446  0.8606  3.1860  2.4556
  189POPC  C31021829   3.325   6.261   9.300  0.1577  0.2555 -0.1793
  189POPC  H10X21830   3.411   6.329   9.316  0.3877  0.3231 -1.6393
  189POPC  H10Y21831   3.233   6.322   9.289 -0.6168 -1.0765 -1.3214
  189POPC  C31121832   3.331   6.174   9.175 -0.5438 -0.4039  0.7055
  189POPC  H11X21833   3.228   6.135   9.160 -1.2942  1.8255 -0.1474
  189POPC  H11Y21834   3.405   6.097   9.207 -0.0149 -0.4122 -0.4992
  189POPC  C31221835   3.386   6.233   9.044 -0.2555  0.0314  0.3640
  189POPC  H12X21836   3.485   6.281   9.057  0.7584 -1.4129 -1.6549
  189POPC  H12Y21837   3.316   6.313   9.013  0.0815  0.1945  0.0196
  189POPC  C31321838   3.377   6.133   8.922 -0.3642 -0.1026  0.0480
  189POPC  H13X21839   3.276   6.091   8.907 -0.1433 -0.1060 -1.4983
  189POPC  H13Y21840   3.451   6.058   8.959 -0.9488 -0.3329  0.7603
  189POPC  C31421841   3.425   6.200   8.793  0.1587 -0.4240 -0.0436
  189POPC  H14X21842   3.530   6.235   8.806 -0.2026 -0.5312  3.4523
  189POPC  H14Y21843   3.375   6.299   8.783  0.0953 -0.2804  1.6403
  189POPC  C31521844   3.425   6.115   8.664 -0.5458  0.7439  0.0807
  189POPC  H15X21845   3.502   6.035   8.665 -2.5635 -1.2945 -1.9526
  189POPC  H15Y21846   3.471   6.181   8.588 -1.6627 -0.2392 -1.4689
  189POPC  C31621847   3.289   6.072   8.612  0.2371  0.3573 -0.5484
  189POPC  H16X21848   3.213   6.149   8.636 -1.3206 -0.3192 -3.1819
  189POPC  H16Y21849   3.270   5.971   8.653 -2.1516  0.7075 -0.7586
  189POPC  H16Z21850   3.293   6.056   8.502  2.2911  2.5298 -0.8570
  190POPC     N21851   4.603   2.094  11.151 -0.4367  0.1704 -0.3783
  190POPC   C1221852   4.736   2.139  11.098 -0.5769 -0.0867 -0.6756
  190POPC  H12A21853   4.726   2.174  10.997 -0.4536 -1.5204 -1.1999
  190POPC  H12B21854   4.810   2.061  11.108  0.2303  0.7371 -0.1233
  190POPC   C1321855   4.509   2.204  11.140 -0.0494 -0.8053 -0.5913
  190POPC  H13A21856   4.473   2.200  11.038 -0.0204  0.5781 -0.6688
  190POPC  H13B21857   4.416   2.192  11.195 -0.1591  1.0254 -0.3440
  190POPC  H13C21858   4.550   2.302  11.161 -2.1580 -0.1971  0.8265
  190POPC   C1421859   4.547   1.981  11.069  0.3305  0.1330 -0.0933
  190POPC  H14A21860   4.540   2.005  10.964  0.9483  0.8312  0.0196
  190POPC  H14B21861   4.604   1.891  11.087  1.4134  1.0064  0.9105
  190POPC  H14C21862   4.448   1.960  11.107  0.5525  1.4829  1.2856
  190POPC   C1521863   4.619   2.056  11.293  0.4844  0.3522  0.1401
  190POPC  H15A21864   4.681   1.969  11.306  0.1242  0.0440 -0.1859
  190POPC  H15B21865   4.519   2.039  11.331  0.1883  1.9719  0.1390
  190POPC  H15C21866   4.667   2.123  11.362  2.3164 -0.8686  0.0541
  190POPC   C1121867   4.796   2.254  11.179 -0.5397 -0.4301 -0.3138
  190POPC  H11A21868   4.810   2.217  11.282 -1.8197 -0.4824 -0.1575
  190POPC  H11B21869   4.731   2.344  11.181  0.8715  0.6632 -2.1291
  190POPC     P21870   4.985   2.418  11.122  0.0763 -0.4174  0.0280
  190POPC   O1321871   5.075   2.428  11.237  0.6992 -1.1121 -0.3026
  190POPC   O1421872   4.876   2.518  11.112  0.0997 -0.4508  0.2360
  190POPC   O1221873   4.922   2.277  11.116  0.4511 -0.3807 -0.1693
  190POPC   O1121874   5.069   2.418  10.987 -0.5009 -0.1153 -0.1998
  190POPC    C121875   5.098   2.295  10.919 -0.0720 -0.3971 -1.0777
  190POPC    HA21876   5.005   2.274  10.862 -1.2411 -0.4447  0.8332
  190POPC    HB21877   5.124   2.208  10.983  0.4386 -1.0943 -2.2106
  190POPC    C221878   5.216   2.304  10.806  0.1043  0.1135 -1.0629
  190POPC    HS21879   5.315   2.308  10.857 -0.1633  2.6052 -0.6696
  190POPC   O2121880   5.187   2.413  10.720 -0.5327 -0.1341  0.2186
  190POPC   C2121881   5.301   2.461  10.666  0.5401 -0.2738 -0.0609
  190POPC   O2221882   5.410   2.414  10.682  0.1190  0.0869 -0.1227
  190POPC   C2221883   5.269   2.570  10.568  0.0188  0.6461 -0.2082
  190POPC   H2R21884   5.222   2.654  10.624 -1.5440 -0.7763  0.6190
  190POPC   H2S21885   5.190   2.531  10.501  0.3518  2.3976 -1.6723
  190POPC    C321886   5.234   2.172  10.726  0.1215  0.6543 -0.0634
  190POPC    HX21887   5.187   2.090  10.785  2.2987  0.0281  0.8397
  190POPC    HY21888   5.340   2.143  10.739  0.3603  1.5518  0.0078
  190POPC   O3121889   5.199   2.173  10.581 -0.1334 -0.0333 -0.2880
  190POPC   C3121890   5.076   2.159  10.547 -0.1167 -0.2983  0.6711
  190POPC   O3221891   4.984   2.128  10.616 -0.0130  0.0262  0.1963
  190POPC   C3221892   5.059   2.206  10.396 -0.0022  0.5269  0.3738
  190POPC   H2X21893   5.158   2.230  10.354  0.7162 -2.5088  0.2011
  190POPC   H2Y21894   5.007   2.302  10.418 -2.5372 -0.6857 -0.0617
  190POPC   C2321895   5.398   2.607  10.484 -0.8105  0.8007 -0.0711
  190POPC   H3R21896   5.475   2.654  10.550 -1.2032 -0.0492  1.0058
  190POPC   H3S21897   5.369   2.685  10.411 -1.3526  1.2411  0.6023
  190POPC   C2421898   5.463   2.501  10.403  0.0214  0.2745 -0.0047
  190POPC   H4R21899   5.477   2.403  10.454  1.3209  0.6232  0.3428
  190POPC   H4S21900   5.562   2.540  10.370  0.5876  0.3292  1.6984
  190POPC   C2521901   5.374   2.469  10.280  0.4352 -0.0394 -0.1221
  190POPC   H5R21902   5.331   2.556  10.226  1.1457  0.1424 -0.4086
  190POPC   H5S21903   5.278   2.423  10.312  0.4595  0.7503  1.1027
  190POPC   C2621904   5.435   2.378  10.175 -0.5993 -0.4587 -0.7107
  190POPC   H6R21905   5.465   2.280  10.218 -1.0201 -0.6036 -0.7397
  190POPC   H6S21906   5.526   2.433  10.142  0.0735 -0.5786  0.8939
  190POPC   C2721907   5.346   2.340  10.055  0.5973  0.3680  0.2207
  190POPC   H7R21908   5.338   2.436   9.999 -1.2989 -0.8954 -1.7879
  190POPC   H7S21909   5.246   2.302  10.083  0.5619  2.2739  2.7641
  190POPC   C2821910   5.399   2.221   9.968 -0.4152  0.4075  0.3344
  190POPC   H8R21911   5.316   2.172   9.912  0.9382  0.1452 -1.5005
  190POPC   H8S21912   5.431   2.152  10.049  1.6258  0.8146 -0.0777
  190POPC   C2921913   5.514   2.254   9.873 -0.1496  0.3398 -1.1187
  190POPC   H9121914   5.608   2.265   9.930 -0.3380 -1.4665 -0.4185
  190POPC  C21021915   5.506   2.283   9.743  0.4792 -0.4314 -0.0719
  190POPC  H10121916   5.602   2.302   9.693  0.3033 -4.0940 -1.9886
  190POPC  C21121917   5.380   2.285   9.652 -0.6181  0.1285 -0.3065
  190POPC  H11R21918   5.357   2.383   9.604 -3.0187  0.4425  1.3913
  190POPC  H11S21919   5.291   2.255   9.711  0.7312  1.6940  2.6168
  190POPC  C21221920   5.415   2.188   9.537 -0.3225  0.2654  0.5760
  190POPC  H12R21921   5.319   2.159   9.489 -0.1344  0.9227 -0.2168
  190POPC  H12S21922   5.458   2.094   9.579 -1.7431 -0.9993 -0.7348
  190POPC  C21321923   5.487   2.245   9.419 -0.1544  0.7267  0.8205
  190POPC  H13R21924   5.593   2.275   9.436  0.5705 -0.7421 -0.9540
  190POPC  H13S21925   5.437   2.332   9.371 -1.3286  0.3901  1.4190
  190POPC  C21421926   5.499   2.140   9.294 -0.4331 -0.1628 -0.5717
  190POPC  H14R21927   5.396   2.103   9.271 -1.0860  0.8979  0.6420
  190POPC  H14S21928   5.569   2.057   9.317  0.0201  0.8467  1.8231
  190POPC  C21521929   5.537   2.217   9.168  0.2825  0.3048 -0.1785
  190POPC  H15R21930   5.639   2.260   9.167 -1.1331  3.8739  0.3343
  190POPC  H15S21931   5.471   2.306   9.161 -2.3922 -1.4265  1.8652
  190POPC  C21621932   5.523   2.149   9.023  0.2210 -0.2095  0.0351
  190POPC  H16R21933   5.421   2.108   9.007 -1.1042  1.7213  3.0291
  190POPC  H16S21934   5.592   2.063   9.032 -0.4760 -0.7516  0.2061
  190POPC  C21721935   5.546   2.247   8.910  0.4503 -0.3058  0.4099
  190POPC  H17R21936   5.645   2.296   8.918 -1.0549  2.5340  2.4462
  190POPC  H17S21937   5.466   2.325   8.913 -0.7664 -1.4692 -1.0275
  190POPC  C21821938   5.544   2.181   8.769  0.3183  0.2017  0.4008
  190POPC  H18R21939   5.446   2.131   8.756  0.2949  0.1809  0.6495
  190POPC  H18S21940   5.632   2.114   8.763  2.6155  3.1718 -0.2312
  190POPC  H18T21941   5.557   2.265   8.696  1.8053 -0.8426 -0.5492
  190POPC   C3321942   4.976   2.105  10.307  0.7801  0.4279 -0.0471
  190POPC   H3X21943   4.968   2.154  10.208  0.7614  0.2099 -0.1516
  190POPC   H3Y21944   4.872   2.091  10.344  0.4452  1.8772 -0.3727
  190POPC   C3421945   5.039   1.967  10.283 -0.2442  0.2116  0.0069
  190POPC   H4X21946   4.960   1.905  10.237  0.0448  0.5678 -1.0002
  190POPC   H4Y21947   5.057   1.935  10.388 -0.6369  0.4508  0.1466
  190POPC   C3521948   5.157   1.963  10.192 -0.3585 -0.6106  0.0321
  190POPC   H5X21949   5.229   1.884  10.223  0.7921  0.3284 -0.2295
  190POPC   H5Y21950   5.210   2.060  10.183  1.0522 -1.2525  1.2337
  190POPC   C3621951   5.117   1.913  10.050 -0.0980 -0.3370  0.0272
  190POPC   H6X21952   5.052   1.825  10.067  0.4205 -0.4792  1.3054
  190POPC   H6Y21953   5.219   1.891  10.012  0.0833 -3.1002  2.0003
  190POPC   C3721954   5.060   2.022   9.957  0.2172  0.2468 -0.6281
  190POPC   H7X21955   5.115   2.117   9.975  0.1228 -0.2502  2.6180
  190POPC   H7Y21956   4.955   2.045   9.985 -0.6686  0.2793 -3.8234
  190POPC   C3821957   5.073   1.977   9.810 -0.4523 -0.2065 -0.7163
  190POPC   H8X21958   5.009   1.890   9.788  1.7000 -2.4264  1.4961
  190POPC   H8Y21959   5.176   1.945   9.784 -0.8615  0.6627 -3.6304
  190POPC   C3921960   5.025   2.089   9.709  0.4657 -0.1121  0.3147
  190POPC   H9X21961   5.070   2.188   9.735  3.1696 -0.9790 -0.8425
  190POPC   H9Y21962   4.917   2.108   9.725  0.3958 -0.7264  0.5725
  190POPC  C31021963   5.043   2.061   9.558 -0.1477  0.4337  0.4092
  190POPC  H10X21964   4.995   1.966   9.526  0.3662  0.2324  0.2242
  190POPC  H10Y21965   5.152   2.044   9.545 -0.5481 -3.4738  1.4197
  190POPC  C31121966   5.003   2.184   9.470  0.1720 -0.0709  0.2132
  190POPC  H11X21967   5.067   2.275   9.470 -2.3255  1.7358  0.1223
  190POPC  H11Y21968   4.904   2.213   9.510 -1.2573 -3.2897 -0.7688
  190POPC  C31221969   4.969   2.153   9.325 -0.4006  0.0838 -0.7371
  190POPC  H12X21970   4.913   2.241   9.285  2.9419  2.0738 -1.1934
  190POPC  H12Y21971   4.911   2.058   9.318 -1.9329  1.0418 -1.4018
  190POPC  C31321972   5.093   2.141   9.225 -0.5627  0.6590  0.3239
  190POPC  H13X21973   5.167   2.069   9.268 -0.9631  0.4599  0.6822
  190POPC  H13Y21974   5.144   2.240   9.219 -0.1720  0.4437  0.0758
  190POPC  C31421975   5.045   2.094   9.085  0.1200  0.2968  1.0108
  190POPC  H14X21976   4.960   2.153   9.045  0.5577 -0.5330 -1.2614
  190POPC  H14Y21977   5.000   1.993   9.084  1.1632 -0.1996 -1.1978
  190POPC  C31521978   5.163   2.102   8.982  0.1186 -0.0390  0.0117
  190POPC  H15X21979   5.242   2.028   9.008  1.9264  1.4880 -0.9837
  190POPC  H15Y21980   5.223   2.195   8.997  0.2228 -0.1723  0.4143
  190POPC  C31621981   5.116   2.096   8.837  0.7833 -0.0240  0.6589
  190POPC  H16X21982   5.060   2.001   8.822 -2.1470  1.7522  0.1467
  190POPC  H16Y21983   5.199   2.080   8.765 -0.5784 -2.1439 -0.4963
  190POPC  H16Z21984   5.061   2.186   8.803 -2.2987 -2.5092 -1.1293
  191POPC     N21985   4.761   3.554   5.956  0.3452 -0.1037 -0.2480
  191POPC   C1221986   4.906   3.594   5.984 -0.8869 -0.3710 -0.2320
  191POPC  H12A21987   4.928   3.684   5.929 -0.6309  0.0275  0.5173
  191POPC  H12B21988   4.975   3.512   5.971  0.0267  0.4015 -0.2717
  191POPC   C1321989   4.713   3.443   6.051  0.1870  0.3631  0.5496
  191POPC  H13A21990   4.605   3.439   6.054  0.1901 -1.0823 -0.5940
  191POPC  H13B21991   4.759   3.348   6.026  0.4917  0.3736  1.0663
  191POPC  H13C21992   4.743   3.468   6.151  2.9723 -2.1476  0.4213
  191POPC   C1421993   4.671   3.670   5.989  0.0267  0.6404  0.5923
  191POPC  H14A21994   4.700   3.747   5.918  0.6961  0.0416  0.2128
  191POPC  H14B21995   4.570   3.637   5.972  0.9530 -1.2452 -1.5229
  191POPC  H14C21996   4.692   3.699   6.091  0.5325 -1.4019  1.0820
  191POPC   C1521997   4.737   3.511   5.819  0.4095 -0.1767  0.3932
  191POPC  H15A21998   4.755   3.589   5.746  0.7276  0.1571  0.8247
  191POPC  H15B21999   4.635   3.481   5.804  0.8526 -1.8465  0.6822
  191POPC  H15C22000   4.802   3.427   5.798 -0.4302 -0.5627 -0.6769
  191POPC   C1122001   4.937   3.622   6.134 -0.0904 -0.5508 -0.2849
  191POPC  H11A22002   5.046   3.639   6.149 -0.3362 -0.2208  1.1547
  191POPC  H11B22003   4.904   3.541   6.202 -2.1666  1.2619  0.9430
  191POPC     P22004   4.948   3.864   6.240 -0.1672 -0.1562  0.6742
  191POPC   O1322005   4.845   3.950   6.299  0.3057 -0.4131  0.1739
  191POPC   O1422006   5.035   3.928   6.140 -0.5598  0.1344 -0.1745
  191POPC   O1222007   4.870   3.741   6.172  0.2584  0.0101 -0.1462
  191POPC   O1122008   5.027   3.798   6.361  0.3529  0.9107  0.1338
  191POPC    C122009   4.955   3.725   6.461  0.5036  0.2289  0.1235
  191POPC    HA22010   5.017   3.641   6.500 -0.4437 -0.4081  0.2979
  191POPC    HB22011   4.866   3.666   6.429 -0.8272  0.8122  2.6172
  191POPC    C222012   4.910   3.811   6.592  0.2074 -0.7219  0.6061
  191POPC    HS22013   4.837   3.887   6.557  1.1499  0.6507  1.5694
  191POPC   O2122014   5.024   3.887   6.643  0.0037  0.3391  0.1002
  191POPC   C2122015   4.989   3.980   6.744  0.2417  0.2555 -0.2619
  191POPC   O2222016   4.871   4.011   6.771 -0.4310  0.0244 -0.1011
  191POPC   C2222017   5.108   4.022   6.824 -0.2317 -0.1501  0.1057
  191POPC   H2R22018   5.174   4.071   6.750 -2.0775  1.1667 -0.7193
  191POPC   H2S22019   5.166   3.939   6.869 -0.1245 -0.9283 -1.4354
  191POPC    C322020   4.857   3.716   6.706  0.1693 -0.5247 -0.1117
  191POPC    HX22021   4.776   3.659   6.656 -0.0249 -0.6050  0.2940
  191POPC    HY22022   4.808   3.769   6.790 -2.4694 -0.7885 -1.4560
  191POPC   O3122023   4.967   3.639   6.763  0.3298 -0.5111  0.2672
  191POPC   C3122024   4.949   3.507   6.796  0.0753  0.1475  0.1025
  191POPC   O3222025   4.844   3.443   6.785  0.1739  0.1255  0.1938
  191POPC   C3222026   5.080   3.443   6.844 -0.6702  0.0678 -0.6725
  191POPC   H2X22027   5.158   3.438   6.765  1.2091  0.6772  1.1256
  191POPC   H2Y22028   5.059   3.344   6.889 -3.7212 -0.3143 -2.7457
  191POPC   C2322029   5.068   4.125   6.933  0.3293 -0.0150  0.2635
  191POPC   H3R22030   4.986   4.194   6.905 -0.7200 -0.7548  1.4238
  191POPC   H3S22031   5.163   4.175   6.962  1.8057  0.0887 -4.3594
  191POPC   C2422032   5.026   4.053   7.072 -0.1550 -0.0552  0.6974
  191POPC   H4R22033   4.937   3.989   7.051  1.1575 -1.2758 -1.3614
  191POPC   H4S22034   5.003   4.142   7.134  0.5183  1.4992 -1.2057
  191POPC   C2522035   5.142   3.968   7.133  0.4923  0.6210  0.2480
  191POPC   H5R22036   5.233   4.032   7.140  1.1185 -0.1730 -0.5906
  191POPC   H5S22037   5.178   3.890   7.064  0.6919 -1.1371  2.2818
  191POPC   C2622038   5.111   3.907   7.269 -0.2359 -0.6288  1.4326
  191POPC   H6R22039   5.202   3.868   7.320  0.1506 -0.0454  1.1945
  191POPC   H6S22040   5.040   3.822   7.260 -1.5563  0.4703  1.3834
  191POPC   C2722041   5.031   3.986   7.373  0.2098 -0.6671 -0.8136
  191POPC   H7R22042   4.943   4.027   7.320  0.4703 -0.2023 -0.8932
  191POPC   H7S22043   5.097   4.071   7.399  0.1157 -0.8041 -0.1127
  191POPC   C2822044   5.001   3.906   7.505  0.2730  0.3780  0.6508
  191POPC   H8R22045   4.939   3.819   7.477 -0.2689  0.6915  0.8678
  191POPC   H8S22046   4.936   3.973   7.565 -0.1068 -2.2068  3.1996
  191POPC   C2922047   5.129   3.882   7.579 -0.1311  0.2032  0.4845
  191POPC   H9122048   5.213   3.836   7.526 -1.5291 -1.1125 -0.6063
  191POPC  C21022049   5.162   3.912   7.705 -0.0295 -0.1536  0.1111
  191POPC  H10122050   5.260   3.874   7.738  0.2814  0.0205 -0.6011
  191POPC  C21122051   5.080   3.995   7.804 -0.9120 -0.1460 -0.0298
  191POPC  H11R22052   4.976   4.021   7.771 -1.3326 -2.9958 -1.0917
  191POPC  H11S22053   5.131   4.091   7.825 -0.1605 -0.2481 -1.3013
  191POPC  C21222054   5.066   3.914   7.931  0.5293  0.9589 -0.5358
  191POPC  H12R22055   5.015   3.817   7.917  0.8855  0.7681 -0.5198
  191POPC  H12S22056   4.999   3.974   7.997 -0.0812 -0.2902 -0.0014
  191POPC  C21322057   5.202   3.899   8.005 -0.2446 -0.3582 -0.2246
  191POPC  H13R22058   5.256   3.996   8.009 -0.9469  0.0003  0.8322
  191POPC  H13S22059   5.262   3.828   7.945 -1.9966  0.0978 -2.6117
  191POPC  C21422060   5.204   3.839   8.150  0.3971  0.2463  0.1875
  191POPC  H14R22061   5.145   3.911   8.210 -0.4033 -1.8299  1.9473
  191POPC  H14S22062   5.312   3.846   8.178  1.1089  1.6103 -2.7130
  191POPC  C21522063   5.159   3.695   8.169  0.8187  0.0497 -0.8069
  191POPC  H15R22064   5.221   3.623   8.113  1.5000 -0.2490  0.3142
  191POPC  H15S22065   5.055   3.682   8.131  0.4563  0.4181  0.0418
  191POPC  C21622066   5.160   3.641   8.314 -0.1199  0.1722  0.0496
  191POPC  H16R22067   5.064   3.587   8.328 -1.1200  1.8529 -0.2984
  191POPC  H16S22068   5.156   3.726   8.385  0.8100 -2.7958  3.8060
  191POPC  C21722069   5.270   3.543   8.358 -0.7850  0.0376  0.6886
  191POPC  H17R22070   5.286   3.466   8.279 -0.0410  0.7552  0.1248
  191POPC  H17S22071   5.217   3.489   8.438  0.2265 -2.0613 -0.0281
  191POPC  C21822072   5.399   3.609   8.402 -0.4018 -0.4790  0.1850
  191POPC  H18R22073   5.469   3.634   8.319 -0.6540  3.6242  1.1311
  191POPC  H18S22074   5.447   3.541   8.475 -0.7217 -0.4124  0.4594
  191POPC  H18T22075   5.376   3.707   8.450  1.3852 -0.0923  0.2793
  191POPC   C3322076   5.127   3.526   6.961 -0.2847 -0.2019  0.4199
  191POPC   H3X22077   5.136   3.635   6.942  0.0461 -0.4007 -0.5908
  191POPC   H3Y22078   5.227   3.496   6.999  0.1305 -0.6222 -0.9617
  191POPC   C3422079   5.037   3.496   7.083 -0.1331 -0.0586 -0.7652
  191POPC   H4X22080   4.993   3.394   7.088  0.7822 -0.4833 -1.3229
  191POPC   H4Y22081   4.944   3.557   7.094  0.3675  0.4402  0.9352
  191POPC   C3522082   5.113   3.502   7.210 -0.1844  0.5697  0.6262
  191POPC   H5X22083   5.180   3.590   7.223 -0.0811  0.4220  1.1449
  191POPC   H5Y22084   5.170   3.406   7.212  0.2833  0.7924 -1.0679
  191POPC   C3622085   5.020   3.505   7.327 -0.0321  0.4959  0.4877
  191POPC   H6X22086   4.971   3.405   7.314  2.2543 -0.4772 -0.9126
  191POPC   H6Y22087   4.943   3.584   7.316  0.5686  1.0293  0.1201
  191POPC   C3722088   5.093   3.506   7.463  0.0875 -0.4800  0.5511
  191POPC   H7X22089   5.148   3.601   7.481 -1.2087  0.1890  1.0880
  191POPC   H7Y22090   5.176   3.432   7.461  1.2050  0.7945 -0.9944
  191POPC   C3822091   5.010   3.485   7.587  0.3440  0.6483 -0.5674
  191POPC   H8X22092   4.934   3.407   7.565  0.1892  0.9118 -0.9800
  191POPC   H8Y22093   4.961   3.574   7.632  1.3307 -0.0551  2.0290
  191POPC   C3922094   5.086   3.435   7.712  0.2616  0.0706 -0.0977
  191POPC   H9X22095   5.154   3.509   7.760  1.2381 -0.9267  0.0747
  191POPC   H9Y22096   5.152   3.348   7.693 -1.3850 -1.0129 -0.8783
  191POPC  C31022097   4.977   3.372   7.809 -1.2395 -0.1725  0.3724
  191POPC  H10X22098   4.911   3.308   7.747  0.0266  0.0709 -1.2907
  191POPC  H10Y22099   4.914   3.446   7.863 -1.2391 -0.0100  0.1557
  191POPC  C31122100   5.044   3.302   7.929  0.3560  0.7846  0.2193
  191POPC  H11X22101   5.136   3.348   7.972  0.4863  0.8753 -0.1574
  191POPC  H11Y22102   5.060   3.196   7.901  0.3523  0.7365  0.3955
  191POPC  C31222103   4.948   3.302   8.047  0.1738 -0.0672 -0.8134
  191POPC  H12X22104   4.860   3.240   8.019 -0.6022  0.7188 -0.1413
  191POPC  H12Y22105   4.907   3.400   8.078 -1.1034 -1.7003  3.0193
  191POPC  C31322106   5.018   3.242   8.173  0.4112 -0.1615  0.2312
  191POPC  H13X22107   5.091   3.315   8.215 -0.7419  0.1576  1.7319
  191POPC  H13Y22108   5.075   3.159   8.127 -0.0664 -2.3742  3.4351
  191POPC  C31422109   4.916   3.199   8.283 -0.3595  0.5724  0.5543
  191POPC  H14X22110   4.982   3.135   8.345  0.0243  0.0313 -0.4181
  191POPC  H14Y22111   4.827   3.150   8.239 -0.4301 -2.1798  3.5669
  191POPC  C31522112   4.855   3.301   8.375 -0.3588  0.3081  0.7169
  191POPC  H15X22113   4.761   3.257   8.416  0.0074 -0.4752  0.7083
  191POPC  H15Y22114   4.839   3.389   8.308  0.2307 -0.7454 -0.8341
  191POPC  C31622115   4.944   3.327   8.487 -0.4703  0.1380  0.4649
  191POPC  H16X22116   4.964   3.227   8.531  0.3767  0.4134  0.7086
  191POPC  H16Y22117   4.912   3.401   8.564 -0.8198 -0.3066  0.7526
  191POPC  H16Z22118   5.048   3.357   8.463 -0.8335  0.7752 -0.3486
  192POPC     N22119   4.072   0.501   6.145 -0.5894  0.1924  0.1845
  192POPC   C1222120   4.118   0.356   6.179 -0.1598  0.9316 -0.4823
  192POPC  H12A22121   4.225   0.361   6.195 -0.3842  0.6890  1.1800
  192POPC  H12B22122   4.083   0.293   6.098 -0.9615 -1.4992  1.7106
  192POPC   C1322123   4.073   0.591   6.265 -0.8074  0.0065  0.1569
  192POPC  H13A22124   4.039   0.688   6.233  1.3998  0.8717  0.3744
  192POPC  H13B22125   4.007   0.566   6.346 -1.9573  0.2247 -0.6929
  192POPC  H13C22126   4.171   0.604   6.309  0.0419 -1.8892 -1.0515
  192POPC   C1422127   4.170   0.560   6.048  0.4667 -1.0318 -0.0203
  192POPC  H14A22128   4.270   0.557   6.088  1.2353 -2.0504 -1.9379
  192POPC  H14B22129   4.167   0.508   5.953 -0.5843 -0.5104 -0.2838
  192POPC  H14C22130   4.147   0.665   6.036 -0.8261 -1.4905 -1.8279
  192POPC   C1522131   3.934   0.498   6.083  0.0131 -0.2817  0.4169
  192POPC  H15A22132   3.934   0.446   5.988 -1.0694  1.5522 -0.6184
  192POPC  H15B22133   3.905   0.598   6.057  3.4611  0.8181  0.6327
  192POPC  H15C22134   3.863   0.452   6.150 -1.1729  0.0918 -0.5775
  192POPC   C1122135   4.054   0.290   6.296 -0.2987  0.9484  0.4488
  192POPC  H11A22136   4.065   0.359   6.382 -0.5515  1.6256 -0.0589
  192POPC  H11B22137   4.105   0.195   6.325  1.2314  0.7964 -2.5459
  192POPC     P22138   3.855   0.166   6.183 -0.4762  0.2387  0.0629
  192POPC   O1322139   3.923   0.164   6.051 -0.0825 -0.1800 -0.0146
  192POPC   O1422140   3.704   0.167   6.173  0.1255  0.3985 -0.1587
  192POPC   O1222141   3.915   0.277   6.266 -0.0619 -0.1310  0.3893
  192POPC   O1122142   3.894   0.041   6.265 -0.7578 -0.0747  0.0275
  192POPC    C122143   3.803  -0.039   6.343  0.1888 -0.2642 -0.3473
  192POPC    HA22144   3.861  -0.127   6.380  2.0394  1.9080  2.1967
  192POPC    HB22145   3.725  -0.083   6.278 -0.0457 -0.3972  0.0187
  192POPC    C222146   3.742   0.037   6.460  0.2643  0.0428 -0.0511
  192POPC    HS22147   3.732   0.143   6.428  0.0902 -0.8310 -3.0353
  192POPC   O2122148   3.842   0.040   6.562  0.6308  0.5070 -0.6794
  192POPC   C2122149   3.809   0.123   6.657 -0.4954  0.5997  0.2975
  192POPC   O2222150   3.714   0.199   6.652  0.2457 -0.0142 -0.0007
  192POPC   C2222151   3.915   0.130   6.767 -0.2917  0.2134 -0.8410
  192POPC   H2R22152   3.877   0.193   6.850  0.3306  0.3420 -0.6497
  192POPC   H2S22153   3.991   0.204   6.736 -1.8366  1.2055 -2.3081
  192POPC    C322154   3.612  -0.038   6.519 -0.2834 -0.1760  0.4593
  192POPC    HX22155   3.537  -0.048   6.438  1.0674  0.6393 -0.9194
  192POPC    HY22156   3.574   0.016   6.609  0.7474  1.2466  0.0523
  192POPC   O3122157   3.637  -0.169   6.563  0.6108  0.4871  0.2405
  192POPC   C3122158   3.629  -0.274   6.482 -0.4597  0.0189 -0.0492
  192POPC   O3222159   3.586  -0.270   6.370  0.1869 -0.0168  0.3938
  192POPC   C3222160   3.671  -0.402   6.559  0.3849  0.2791  0.8097
  192POPC   H2X22161   3.739  -0.375   6.643  0.5497 -0.3545  0.8815
  192POPC   H2Y22162   3.734  -0.452   6.483  0.2228  2.9001 -1.1010
  192POPC   C2322163   3.972  -0.008   6.811  0.3619  0.6657  0.0171
  192POPC   H3R22164   4.036  -0.009   6.902 -2.2684 -4.1682  2.0178
  192POPC   H3S22165   4.036  -0.053   6.732  0.0350  0.1733  0.0307
  192POPC   C2422166   3.861  -0.108   6.855  0.3460  0.5358  1.0724
  192POPC   H4R22167   3.897  -0.206   6.893 -1.6150  0.0124  1.6291
  192POPC   H4S22168   3.804  -0.129   6.762  1.7985 -2.1354  0.7325
  192POPC   C2522169   3.757  -0.065   6.959 -0.1845 -0.1354  0.8332
  192POPC   H5R22170   3.685  -0.149   6.967 -0.9979  0.3693 -1.0764
  192POPC   H5S22171   3.706   0.021   6.913 -1.5067 -1.0167  0.6245
  192POPC   C2622172   3.821  -0.027   7.096 -0.0060  0.6894  0.4929
  192POPC   H6R22173   3.848   0.080   7.085 -3.1215  1.3921 -0.7324
  192POPC   H6S22174   3.910  -0.085   7.129 -0.8607 -0.2729  1.1500
  192POPC   C2722175   3.722  -0.033   7.217 -0.0107  0.4368  0.0239
  192POPC   H7R22176   3.707  -0.139   7.247 -1.2788  0.7416  0.4933
  192POPC   H7S22177   3.626   0.008   7.180  0.1290 -0.2742 -1.1283
  192POPC   C2822178   3.756   0.052   7.338 -0.1996 -1.0816 -0.7436
  192POPC   H8R22179   3.661   0.052   7.394 -0.1182 -2.0382 -0.5982
  192POPC   H8S22180   3.775   0.158   7.313  1.0749 -0.3285  3.0916
  192POPC   C2922181   3.880   0.008   7.421 -0.1652 -0.1227  0.2698
  192POPC   H9122182   3.975   0.004   7.365 -0.6800  3.1327 -0.9869
  192POPC  C21022183   3.891  -0.013   7.555 -0.1930  0.5317 -0.2687
  192POPC  H10122184   3.982  -0.054   7.601 -0.3925  0.1411 -0.2156
  192POPC  C21122185   3.784   0.023   7.655 -0.3055  0.0458  0.8486
  192POPC  H11R22186   3.751  -0.071   7.703  0.5020 -0.5905  0.1661
  192POPC  H11S22187   3.698   0.065   7.598  0.9769  1.2238 -0.2630
  192POPC  C21222188   3.836   0.133   7.757 -0.5531  0.2220 -0.1537
  192POPC  H12R22189   3.750   0.164   7.820 -0.6153 -0.5387  0.1512
  192POPC  H12S22190   3.886   0.219   7.710 -1.0956  1.1120  0.8763
  192POPC  C21322191   3.944   0.072   7.848  0.5326  0.0875  0.1472
  192POPC  H13R22192   4.045   0.062   7.802  0.3082  1.7294 -0.7453
  192POPC  H13S22193   3.906  -0.030   7.867  1.0785 -0.7398 -2.9387
  192POPC  C21422194   3.951   0.128   7.991  0.0352 -0.3264 -0.1310
  192POPC  H14R22195   4.015   0.059   8.050  1.6538  0.3858 -0.9964
  192POPC  H14S22196   3.854   0.128   8.045  0.3798  0.0613  0.4884
  192POPC  C21522197   4.002   0.271   8.000 -0.0635  0.1911 -0.7395
  192POPC  H15R22198   3.935   0.320   7.927 -0.6907 -2.9521 -2.3893
  192POPC  H15S22199   4.105   0.300   7.967  0.0287  0.6477 -0.0343
  192POPC  C21622200   3.981   0.339   8.131 -0.1269 -0.1938 -0.3534
  192POPC  H16R22201   3.871   0.333   8.143 -0.1644  1.5149  0.2194
  192POPC  H16S22202   4.004   0.447   8.134  0.5935 -0.3773  1.7089
  192POPC  C21722203   4.059   0.281   8.255 -0.7557  0.1969 -0.2152
  192POPC  H17R22204   4.170   0.290   8.248 -0.7385  2.4480  1.9399
  192POPC  H17S22205   4.024   0.176   8.256  0.8105 -0.3396 -0.4080
  192POPC  C21822206   4.028   0.343   8.387 -0.3939  0.1763  0.0614
  192POPC  H18R22207   3.922   0.315   8.402 -0.3345 -0.1413 -0.0906
  192POPC  H18S22208   4.029   0.454   8.395 -0.4187  0.1248  0.8427
  192POPC  H18T22209   4.088   0.297   8.469 -0.2004  0.9992  0.3791
  192POPC   C3322210   3.552  -0.489   6.602  0.2976 -0.0426  0.1247
  192POPC   H3X22211   3.588  -0.593   6.618  0.1102 -0.3109 -1.1354
  192POPC   H3Y22212   3.487  -0.500   6.513 -0.3151  4.6237 -0.1269
  192POPC   C3422213   3.460  -0.441   6.714  1.2570 -0.1446  0.0592
  192POPC   H4X22214   3.385  -0.523   6.715 -1.5137  2.3050 -0.5741
  192POPC   H4Y22215   3.418  -0.341   6.690 -2.8427 -2.2760 -2.3328
  192POPC   C3522216   3.540  -0.425   6.848 -0.5371 -0.2732  0.3198
  192POPC   H5X22217   3.625  -0.354   6.833  0.0980 -0.6626  1.8887
  192POPC   H5Y22218   3.590  -0.521   6.873 -1.9203 -0.7383  1.4080
  192POPC   C3622219   3.459  -0.390   6.971 -0.6003  0.5478 -0.4087
  192POPC   H6X22220   3.374  -0.461   6.976 -0.2561  0.2166  1.0967
  192POPC   H6Y22221   3.415  -0.292   6.945 -0.8843 -0.3932 -3.6324
  192POPC   C3722222   3.535  -0.375   7.108  0.0381 -0.1168  0.5416
  192POPC   H7X22223   3.594  -0.282   7.104 -1.7855  1.1290  1.9382
  192POPC   H7Y22224   3.602  -0.464   7.117 -0.4207 -0.5176  0.0288
  192POPC   C3822225   3.442  -0.367   7.229 -0.0958  0.0454 -0.4934
  192POPC   H8X22226   3.378  -0.458   7.235 -0.1347  0.1915  1.7032
  192POPC   H8Y22227   3.373  -0.282   7.212 -0.3867 -0.5943 -2.6889
  192POPC   C3922228   3.518  -0.346   7.365 -0.2572  0.0380 -0.0042
  192POPC   H9X22229   3.450  -0.381   7.446 -0.5427  0.8937  0.1274
  192POPC   H9Y22230   3.531  -0.237   7.382  1.5171 -0.0335 -0.8113
  192POPC  C31022231   3.656  -0.415   7.369  0.4740 -0.1299  0.1100
  192POPC  H10X22232   3.717  -0.359   7.295  0.4599 -0.2429  0.0137
  192POPC  H10Y22233   3.652  -0.521   7.335 -1.2725  0.1608 -0.6681
  192POPC  C31122234   3.717  -0.418   7.507  0.7313  0.4556 -0.4994
  192POPC  H11X22235   3.651  -0.460   7.586  1.6056 -1.9115 -0.9690
  192POPC  H11Y22236   3.730  -0.310   7.530 -0.2491  0.2926  0.9208
  192POPC  C31222237   3.846  -0.503   7.514 -0.2687 -0.5210 -0.2399
  192POPC  H12X22238   3.915  -0.458   7.439 -1.1465  0.2098 -0.6295
  192POPC  H12Y22239   3.829  -0.609   7.485 -0.0827 -0.5789 -0.1346
  192POPC  C31322240   3.930  -0.493   7.646 -0.1740  0.2707  0.0893
  192POPC  H13X22241   4.013  -0.567   7.637 -1.1549 -1.0137  1.2773
  192POPC  H13Y22242   3.867  -0.543   7.723  0.0053 -1.4647 -0.8584
  192POPC  C31422243   3.990  -0.348   7.667  0.4921  0.7636  0.0591
  192POPC  H14X22244   3.900  -0.290   7.698 -0.8248 -1.0062 -0.3815
  192POPC  H14Y22245   4.025  -0.307   7.570  1.0156 -0.4574 -0.2739
  192POPC  C31522246   4.109  -0.340   7.770  0.0725 -0.0381  0.4736
  192POPC  H15X22247   4.137  -0.234   7.789 -1.1591  0.6150 -1.1881
  192POPC  H15Y22248   4.187  -0.399   7.718  1.2115 -0.2294  2.3276
  192POPC  C31622249   4.067  -0.404   7.902  0.7318 -0.3623 -0.0956
  192POPC  H16X22250   4.017  -0.328   7.967  1.1333 -0.7678  0.6912
  192POPC  H16Y22251   4.157  -0.440   7.955  0.4399 -0.9331  0.0092
  192POPC  H16Z22252   4.008  -0.496   7.883  0.7421 -0.3043 -0.4123
  193SOD    SOD22253   5.354   5.072   5.417 -0.4802 -0.5204 -0.3187
  194SOD    SOD22254   4.988   2.806   6.178 -0.2019  0.0220  0.0642
  195SOD    SOD22255   5.195   3.613   4.512 -0.8940 -0.6577 -0.5599
  196SOD    SOD22256   6.704   2.148  13.040 -0.6585 -0.3351 -0.2540
  197SOD    SOD22257   2.287   3.993  10.870  0.5320 -0.0329  0.5579
  198SOD    SOD22258   0.446   5.887  12.243  0.8112 -0.2943 -0.0618
  199SOD    SOD22259   6.584   4.724  13.351 -0.0485  0.2972  0.9567
  200SOD    SOD22260   0.787   4.250  12.507  0.5674  0.0735 -0.1226
  201SOD    SOD22261   4.461   3.298  15.808 -0.3951  0.2646  0.1683
  202SOD    SOD22262   5.655   2.632  14.616 -0.4252  0.3928 -0.2689
  203SOD    SOD22263   1.188   3.199   6.113 -0.2524  0.3523  0.0901
  204SOD    SOD22264   6.785   3.916  13.743  0.3516  0.0611 -0.1919
  205SOD    SOD22265   6.721   1.910  11.174 -0.0111 -0.0967  0.6276
  206SOD    SOD22266   2.227   6.536   0.061 -0.2182  0.0166  0.0326
  207SOD    SOD22267   3.305   5.582   2.230  0.3651 -0.4246 -0.0270
  208SOD    SOD22268   2.152   6.673  14.289  0.1560 -0.2786 -0.3331
  209SOD    SOD22269   3.583   2.105   5.914 -0.4265 -0.2822  0.4493
  210SOD    SOD22270   2.278   2.479  14.925 -0.0081 -0.1413 -0.0822
  211SOD    SOD22271   3.583   6.575   0.274  0.0044  0.1037  0.2504
  212SOD    SOD22272   5.527   6.269  11.745 -0.2504  0.5970 -0.4318
  213SOD    SOD22273   2.335   3.724   0.683 -0.4596 -0.0230 -0.3063
  214SOD    SOD22274   4.224   3.970   4.694 -0.4731 -0.2175 -0.3112
  215SOD    SOD22275   3.206   2.285   1.879 -0.0251 -0.3753 -0.0708
  216SOD    SOD22276   5.275   6.153  10.891 -0.0414  0.2925  0.2553
  217SOD    SOD22277   5.278   4.056   6.326 -0.2223 -0.6054 -0.1113
  218SOD    SOD22278   3.274   5.045  13.352 -0.1567 -0.1051 -0.1923
  219SOD    SOD22279   1.331   5.144  15.168 -0.0785  0.2711  0.4070
  220SOD    SOD22280   1.981   5.725  10.808 -0.0775  0.6377 -0.6798
  221SOD    SOD22281   4.641   4.791  11.123  0.4378 -0.4641  0.4026
  222SOD    SOD22282   1.347   1.576   0.920 -0.0058  0.8045 -0.0820
  223SOD    SOD22283   4.169   2.891   5.800 -0.3603  0.1245  0.2802
  224SOD    SOD22284   2.412   0.985  13.539 -0.0307  0.2400  0.3997
  225SOD    SOD22285   4.863   6.653  10.559  0.0739 -0.4792  0.1612
  226SOD    SOD22286   3.828   2.474  12.090  0.0295  0.2716 -0.1155
  227SOD    SOD22287   5.888   0.285   3.633  0.0107  0.0908  0.4728
  228SOD    SOD22288   5.635   6.019   2.214 -0.0615 -0.2267  0.3824
  229SOD    SOD22289   0.979   3.192   3.844 -0.3935 -0.0189 -0.6682
  230SOD    SOD22290   1.629   1.410  15.756  0.3752 -0.0502 -0.4777
  231SOD    SOD22291   2.173   0.305   5.842  0.4264 -0.0585  0.4980
  232SOD    SOD22292   6.756   5.275   4.635  0.3271 -0.0720  0.2971
  233SOD    SOD22293   3.874   2.775   1.885 -0.2853  0.4758  0.1352
  234SOD    SOD22294   0.869   2.638   3.293 -0.0213 -0.0158 -0.1644
  235SOD    SOD22295   4.017   1.278   1.084 -0.0259 -0.0010 -0.1759
  236SOD    SOD22296   2.905   6.260  12.676 -0.1270  0.3396 -0.0904
  237SOD    SOD22297   3.762   5.919   3.652  0.4544 -0.4485 -0.5184
  238SOD    SOD22298   4.427   0.880  11.006 -0.9949  0.2814  0.8042
  239SOD    SOD22299   4.464   2.359   4.980 -0.4835 -0.0603  0.1466
  240SOD    SOD22300   5.757   5.358   1.139 -0.0035  0.2281  0.5535
  241SOD    SOD22301   4.215   2.660   2.862  0.5115 -0.1744  0.0609
  242SOD    SOD22302   5.908   1.034   6.475  0.3221  0.6857 -0.3105
  243SOD    SOD22303   1.420   5.050  12.986 -0.2204  0.5495  0.0182
  244SOD    SOD22304   1.400   3.583   4.849  0.3563 -0.1355 -0.1270
  245SOD    SOD22305   4.748   0.145   0.363  0.0271  0.2589 -0.3407
  246SOD    SOD22306   3.583   0.542   6.422 -0.6085  0.0762 -0.0729
  247SOD    SOD22307   3.600   0.745  14.537 -0.8578 -0.2365  0.3863
  248SOD    SOD22308   1.839   3.730   2.722  0.2694 -0.1588 -0.3602
  249SOD    SOD22309   3.763   5.494   5.499  0.1151 -0.0647 -0.1138
  250SOD    SOD22310   0.020   2.170   5.144  0.4364  0.3769  0.0812
  251SOD    SOD22311   5.462   0.727   6.337 -0.2115  0.2836 -0.0602
  252SOD    SOD22312   4.971   6.559  13.453  0.1170  0.3286  0.4784
  253SOD    SOD22313   5.427   2.973   0.062 -0.4725 -0.5291  0.7901
  254SOD    SOD22314   1.935   6.211   1.808 -0.0915 -0.1553 -0.2856
  255SOD    SOD22315   1.431   1.656   3.034  0.6962  0.6289 -0.6269
  256SOD    SOD22316   3.324   4.144  15.266 -0.0569 -0.1955 -0.1434
  257SOD    SOD22317   1.855   0.375   2.866 -0.3599 -0.4208  0.2734
  258SOD    SOD22318   4.629   2.893  11.585 -0.2095  0.1539  0.1875
  259SOD    SOD22319   3.112   2.279  11.136 -0.1859 -0.0842  0.1319
  260SOD    SOD22320   1.128   6.374  11.414  0.2056  0.6559 -0.4127
  261SOD    SOD22321   4.291   3.284   1.432  0.1998 -0.2452 -0.1481
  262SOD    SOD22322   5.229   1.389  11.839  0.0003  0.0709  0.2921
  263SOD    SOD22323   6.138   5.472  11.035 -0.5026  0.3072 -0.5335
  264SOD    SOD22324   1.826   2.683  13.746 -0.4760 -0.5696  0.3458
  265SOD    SOD22325   4.974   6.495  14.714 -0.0848 -0.2442  0.0703
  266SOD    SOD22326   1.470   1.357   1.726 -0.3485 -0.4361 -0.5037
  267SOD    SOD22327   0.668   0.461  16.714 -0.1590 -0.1619  0.4753
  268SOD    SOD22328   3.885   5.306   4.733 -0.4189 -0.1809 -0.1773
  269SOD    SOD22329   4.301   1.323   2.635 -0.3568  0.3777 -0.4421
  270CLA    CLA22330   2.988   5.900   2.156  0.0459  0.1594  0.1077
  271CLA    CLA22331   5.158   2.284  14.994 -0.1460 -0.1924  0.1599
  272CLA    CLA22332   2.394   6.400   0.989  0.2151 -0.4429  0.0904
  273CLA    CLA22333   2.049   0.374   3.615  0.3430 -0.2226 -0.3167
  274CLA    CLA22334   1.571   1.189   4.143 -0.2306 -0.0094 -0.0986
  275CLA    CLA22335   1.719   2.962   4.042 -0.0458 -0.2134 -0.4214
  276CLA    CLA22336   1.437   5.999  11.511 -0.1958  0.3595 -0.2764
  277CLA    CLA22337   1.674   2.069   2.968 -0.4263  0.0696  0.1687
  278CLA    CLA22338   4.470   0.422  13.746 -0.1066 -0.0889  0.0344
  279CLA    CLA22339   4.083   2.552  15.066  0.4328 -0.2817  0.3175
  280CLA    CLA22340   5.182   2.521  12.151  0.0577  0.1505  0.5860
  281CLA    CLA22341   5.059   2.943   4.547 -0.1978  0.1198 -0.0347
  282CLA    CLA22342   5.663   5.365   3.638  0.0275 -0.1486 -0.1452
  283CLA    CLA22343   5.315   6.160  15.329 -0.3682  0.0567 -0.3479
  284CLA    CLA22344   1.462   2.187   2.442 -0.0130  0.4236 -0.2791
  285CLA    CLA22345   1.963   0.182  11.858 -0.2366  0.1535 -0.2563
  286CLA    CLA22346   2.834   4.243  14.856  0.1562  0.9099 -0.0172
  287CLA    CLA22347   6.288   1.565  16.955 -0.0123 -0.4766 -0.2035
  288CLA    CLA22348   3.668   0.058  15.282 -0.0393 -0.0066 -0.1415
  289CLA    CLA22349   2.697   4.642  12.651 -0.3601  0.5396 -0.4445
  290CLA    CLA22350   4.073   5.956   4.635  0.0453 -0.1595  0.6184
  291CLA    CLA22351   2.607   5.127   0.195  0.3840  0.4815 -0.2408
  292CLA    CLA22352   2.020   4.677   0.990 -0.4632 -0.3810  0.1491
  293CLA    CLA22353   0.268   0.261   0.326  0.1357 -0.4520  0.3980
  294CLA    CLA22354   0.063   3.502  12.913  0.4133 -0.2384  0.0551
  295CLA    CLA22355   1.614   2.640  13.912 -0.2136  0.0548  0.1807
  296CLA    CLA22356   4.467   3.115   1.752 -0.1796  0.0339  0.4411
  297CLA    CLA22357   3.583   4.987   5.535 -0.2651 -0.1282 -0.3775
  298CLA    CLA22358   5.019   6.616   5.199 -0.0646 -0.0103  0.0259
  299CLA    CLA22359   2.990   1.451   3.484  0.7247 -0.0982  0.2811
  300CLA    CLA22360   5.637   0.818  13.867  0.2863  0.2780  0.1624
  301CLA    CLA22361   3.326   3.125   0.387  0.0902  0.2204  0.3670
  302CLA    CLA22362   2.887   5.185   2.723 -0.2831 -0.1708  0.1576
  303CLA    CLA22363   1.847   3.556   4.121 -0.4366 -0.0468  0.3417
  304CLA    CLA22364   0.515   2.330   3.841 -0.3600 -0.6137 -0.1378
  305CLA    CLA22365   5.300   5.109   2.729  0.3250 -0.2947  0.6938
  306CLA    CLA22366   4.992   1.877   0.762 -0.0341  0.0773 -0.0505
  307CLA    CLA22367   3.863   5.480  13.898  0.4118 -0.3821 -0.0858
  308CLA    CLA22368   5.070   3.225  12.630  0.1828 -0.1968  0.1252
  309CLA    CLA22369   1.913   3.413   1.358  0.0808 -0.4500 -0.3088
  310CLA    CLA22370   5.668   0.567  14.656 -0.1287  0.1501 -0.2317
  311CLA    CLA22371   6.615   4.659  15.879  0.0514 -0.1463 -0.2221
  312CLA    CLA22372   4.608   2.224   5.918 -0.0264  0.5131  0.1934
  313CLA    CLA22373   5.037   4.574   0.101 -0.3933  0.2094  0.0713
  314CLA    CLA22374   2.347   0.692  16.414 -0.2846  0.1821 -0.3965
  315CLA    CLA22375   2.633   2.106   2.224 -0.3268  0.1145 -0.1502
  316CLA    CLA22376   4.483   6.374   2.563  0.2672  0.3133  0.2024
  317CLA    CLA22377   1.505   1.347  16.463  0.1725  0.4140  0.0728
  318CLA    CLA22378   2.077   4.195  17.050 -0.2074  0.5745 -0.1025
  319CLA    CLA22379   1.193   2.956  16.183 -0.4522 -0.5650  0.1805
  320CLA    CLA22380   4.297   1.377  11.640  0.3902  0.2831 -0.1633
  321CLA    CLA22381   2.033   4.345  15.439  0.3992  0.0951  0.1301
  322CLA    CLA22382   4.507   6.234  11.753 -0.3845  0.2003 -0.1362
  323TIP3   OH222383   5.319   4.355   6.004  0.0164 -0.4617 -0.0032
  323TIP3    H122384   5.384   4.397   6.060 -1.2339  0.9849  0.4073
  323TIP3    H222385   5.349   4.373   5.915  0.0657  0.3661  0.1802
  324TIP3   OH222386   1.026   1.846   6.544  0.5443  0.0540 -0.0455
  324TIP3    H122387   0.945   1.821   6.588 -0.2849  0.9140 -1.0614
  324TIP3    H222388   1.091   1.784   6.577 -0.3761 -0.2457  1.2661
  325TIP3   OH222389   1.089   4.392  11.832 -0.5109  0.4711 -0.1669
  325TIP3    H122390   1.097   4.488  11.836 -1.8145  0.6412 -1.0201
  325TIP3    H222391   1.157   4.359  11.890  2.0603  1.8500 -2.2773
  326TIP3   OH222392   0.253   3.953  13.720 -0.1245  0.1020  0.5729
  326TIP3    H122393   0.322   3.917  13.775 -0.4787 -2.1580 -0.4114
  326TIP3    H222394   0.275   3.925  13.631 -2.4202 -0.9205  0.2862
  327TIP3   OH222395   5.704   4.886   1.843 -0.1577 -0.7514  0.1317
  327TIP3    H122396   5.795   4.908   1.862 -0.2014 -0.3660 -0.0927
  327TIP3    H222397   5.676   4.832   1.916  0.4087 -1.2918 -0.0492
  328TIP3   OH222398   4.037   6.627  11.785  0.0690  0.0672 -0.4129
  328TIP3    H122399   4.114   6.570  11.775 -0.1342 -0.4212  0.7894
  328TIP3    H222400   4.010   6.645  11.695  2.8639  2.0163 -0.9039
  329TIP3   OH222401   2.204   0.499   3.988 -0.4136  0.0996 -0.3040
  329TIP3    H122402   2.192   0.555   4.064 -0.6660 -1.4795  0.8329
  329TIP3    H222403   2.117   0.492   3.948 -0.5086 -0.0229 -0.0725
  330TIP3   OH222404   0.862   6.343   5.340 -0.1195 -0.0215  0.4237
  330TIP3    H122405   0.931   6.387   5.290 -0.2465 -2.9901 -2.4971
  330TIP3    H222406   0.785   6.349   5.284 -1.0938 -0.7163  1.6674
  331TIP3   OH222407   3.815   2.056   5.372 -0.1870  0.1637  0.4668
  331TIP3    H122408   3.764   2.098   5.303  0.5485  1.2768  0.5943
  331TIP3    H222409   3.818   2.120   5.442 -0.6091 -0.8221  1.4008
  332TIP3   OH222410   5.521   1.750   1.520 -0.3747  0.2022 -0.0459
  332TIP3    H122411   5.560   1.711   1.599  0.4231 -0.0984 -0.5843
  332TIP3    H222412   5.555   1.697   1.448 -0.4434  0.9931 -0.6679
  333TIP3   OH222413   6.065   0.120   0.116 -0.4781  0.3929 -0.6241
  333TIP3    H122414   6.016   0.139   0.196 -0.2358 -1.1879 -0.0761
  333TIP3    H222415   6.134   0.186   0.113  1.4806 -1.4133  2.1770
  334TIP3   OH222416   3.990   3.872  13.814  0.3199  0.6926 -0.6056
  334TIP3    H122417   3.935   3.820  13.756 -0.9353  1.5238 -0.1757
  334TIP3    H222418   4.012   3.950  13.762  0.2045  0.8696 -0.3872
  335TIP3   OH222419   3.379   2.173  14.279 -0.7874  0.1428 -0.0331
  335TIP3    H122420   3.440   2.230  14.231 -0.5984  0.5468  0.6796
  335TIP3    H222421   3.303   2.229  14.296 -0.4292  0.3156  1.0363
  336TIP3   OH222422   3.289   0.310   2.507 -0.1345 -0.2351 -0.3288
  336TIP3    H122423   3.306   0.338   2.417 -0.7067  1.4278  0.0579
  336TIP3    H222424   3.324   0.380   2.561 -2.4010  0.1866  0.6466
  337TIP3   OH222425   4.769   0.727   2.911 -0.9007  0.1032  0.0953
  337TIP3    H122426   4.704   0.673   2.865 -1.3757 -1.6362  2.6750
  337TIP3    H222427   4.718   0.799   2.949 -0.8189  0.4384 -0.4245
  338TIP3   OH222428   6.417   3.933   0.753  0.0490  0.1275 -0.6769
  338TIP3    H122429   6.496   3.944   0.807  0.2960  2.0018 -1.3765
  338TIP3    H222430   6.450   3.922   0.664 -0.4622 -0.0279 -0.8517
  339TIP3   OH222431   2.043   2.218  15.509  0.4287  0.7542 -0.3587
  339TIP3    H122432   1.975   2.171  15.558  0.7254  0.4354 -0.2521
  339TIP3    H222433   2.065   2.293  15.565  0.6331  0.4940 -0.0902
  340TIP3   OH222434   6.614   6.226   4.224 -0.4046 -0.1012 -0.1235
  340TIP3    H122435   6.565   6.150   4.194  0.3270 -0.1641 -1.1658
  340TIP3    H222436   6.655   6.197   4.306 -1.9193 -0.1076  0.6616
  341TIP3   OH222437   3.892   4.021  11.731  0.3903 -1.1239 -0.2286
  341TIP3    H122438   3.860   4.103  11.693  0.8125 -0.3071  1.1043
  341TIP3    H222439   3.976   4.006  11.688 -0.4517 -1.7314 -1.6593
  342TIP3   OH222440   1.418   4.907   0.913 -0.7139 -1.0813 -0.4023
  342TIP3    H122441   1.468   4.826   0.908  0.2089 -0.5851  0.5454
  342TIP3    H222442   1.446   4.958   0.838  1.9547  0.1485  1.3516
  343TIP3   OH222443   1.443   6.271   4.522 -0.2054 -0.0240  0.5049
  343TIP3    H122444   1.423   6.245   4.432  1.3893 -0.1588  0.1746
  343TIP3    H222445   1.401   6.204   4.576  0.0348 -0.7526 -0.1946
  344TIP3   OH222446   1.202   1.223   6.020  0.0632 -0.3358  0.1807
  344TIP3    H122447   1.279   1.200   6.072  0.1624  1.9184  1.0960
  344TIP3    H222448   1.238   1.247   5.934  0.6672  2.5776  1.1653
  345TIP3   OH222449   1.068   3.819   0.838 -0.4111  0.2236  0.2568
  345TIP3    H122450   1.097   3.768   0.914 -0.8040 -3.0082 -1.6301
  345TIP3    H222451   1.134   3.802   0.771 -0.6083  2.1892 -0.4541
  346TIP3   OH222452   6.008   6.226  12.659  0.1428  0.3774  0.5116
  346TIP3    H122453   6.065   6.297  12.629 -1.4789  1.9807  1.1244
  346TIP3    H222454   5.996   6.171  12.581  1.9401  0.3955  0.2011
  347TIP3   OH222455   1.401   3.726   5.462 -0.1570  0.3494  0.1033
  347TIP3    H122456   1.331   3.784   5.431  0.7457  2.0748  1.2007
  347TIP3    H222457   1.479   3.782   5.465  0.5090 -0.6283  2.2341
  348TIP3   OH222458   0.161   5.062   3.019 -0.1161  0.0963  0.1636
  348TIP3    H122459   0.150   4.968   3.029  1.1656 -0.1696 -0.8806
  348TIP3    H222460   0.158   5.077   2.924 -0.7816  1.1703  0.3360
  349TIP3   OH222461   0.659   5.322   1.262 -0.0759 -0.0917  0.0791
  349TIP3    H122462   0.714   5.244   1.259 -0.9056 -0.6641 -0.3676
  349TIP3    H222463   0.623   5.323   1.351  2.1609  1.3478  1.0088
  350TIP3   OH222464   3.307   3.570  12.046  0.1857  0.3803 -0.2407
  350TIP3    H122465   3.305   3.648  12.101 -1.0150  0.9591 -1.0899
  350TIP3    H222466   3.298   3.603  11.957  0.0808 -0.7078 -0.6405
  351TIP3   OH222467   2.014   5.141  16.568 -0.2358 -0.2126  0.6300
  351TIP3    H122468   2.088   5.201  16.555  0.1036 -0.9898 -1.2987
  351TIP3    H222469   1.940   5.197  16.587  0.1196  0.8236 -0.9692
  352TIP3   OH222470   2.969   3.874  13.390  0.1394 -0.3075 -0.1579
  352TIP3    H122471   2.976   3.823  13.309 -0.0699 -0.6240  0.0213
  352TIP3    H222472   2.967   3.808  13.460 -0.5544 -0.0658  0.0516
  353TIP3   OH222473   1.909   5.968   0.776  0.1258 -0.3151 -0.5513
  353TIP3    H122474   1.852   6.039   0.747  1.2438  0.7583 -0.1485
  353TIP3    H222475   1.976   5.962   0.709  0.2955 -0.6857 -0.3462
  354TIP3   OH222476   5.376   2.407  16.473  0.2414 -0.3553 -0.6439
  354TIP3    H122477   5.468   2.382  16.471  0.3074 -0.0698 -1.3413
  354TIP3    H222478   5.356   2.434  16.383 -0.9674 -1.9766 -0.8894
  355TIP3   OH222479   4.036   6.657   2.959  0.3309 -0.3861 -0.0595
  355TIP3    H122480   4.057   6.580   3.012  0.4796 -0.7378 -0.6240
  355TIP3    H222481   4.121   6.695   2.938  0.2789 -0.3331 -0.1726
  356TIP3   OH222482   3.780   6.147  15.879  0.2104  0.5431  0.1674
  356TIP3    H122483   3.743   6.231  15.851  0.1815  0.5199  0.1361
  356TIP3    H222484   3.803   6.102  15.798  0.3313  0.5687  0.1862
  357TIP3   OH222485   2.328   3.021  16.988 -0.2826 -0.1986 -0.3280
  357TIP3    H122486   2.385   3.020  17.064  0.9573 -0.2024 -1.2491
  357TIP3    H222487   2.376   2.972  16.921 -2.0179 -1.5464 -0.6477
  358TIP3   OH222488   6.536   6.617  13.919 -0.2882 -0.5634  0.4659
  358TIP3    H122489   6.589   6.697  13.917 -0.6639 -0.3477 -1.2841
  358TIP3    H222490   6.489   6.622  14.003 -0.6881  1.3175  0.1599
  359TIP3   OH222491   0.885   5.704   2.559 -0.1882 -0.4998 -0.3646
  359TIP3    H122492   0.904   5.611   2.551 -1.0994 -0.6800 -0.4322
  359TIP3    H222493   0.897   5.724   2.652 -0.6011 -0.8105 -0.2486
  360TIP3   OH222494   3.590   1.098  17.057  0.1706  0.0187 -0.0658
  360TIP3    H122495   3.653   1.039  17.098 -0.6015 -0.2989  0.6771
  360TIP3    H222496   3.542   1.044  16.995 -0.7377 -0.2098  0.8271
  361TIP3   OH222497   1.701   6.511  14.225  0.0338 -0.7292  0.1285
  361TIP3    H122498   1.647   6.432  14.229  1.0652 -1.3471  2.5675
  361TIP3    H222499   1.638   6.582  14.215 -0.9223 -1.8027 -1.8262
  362TIP3   OH222500   1.995   5.251   2.096  0.5493  0.4890 -0.2005
  362TIP3    H122501   1.982   5.335   2.140 -0.5662 -1.0364  2.5207
  362TIP3    H222502   2.059   5.206   2.151 -0.8546 -1.4551 -0.1203
  363TIP3   OH222503   4.541   0.463  15.319 -0.3843 -0.2155 -0.8281
  363TIP3    H122504   4.575   0.545  15.282  0.3057  0.2296  0.7653
  363TIP3    H222505   4.475   0.491  15.382 -0.8887 -0.9335 -1.0303
  364TIP3   OH222506   5.356   6.321   4.364  0.3255 -1.1244  0.0517
  364TIP3    H122507   5.313   6.358   4.441  0.5550  0.2326 -0.4526
  364TIP3    H222508   5.445   6.354   4.368  0.5283 -1.6110 -0.4323
  365TIP3   OH222509   0.247   5.526   3.232  0.5764  0.4792 -0.1271
  365TIP3    H122510   0.240   5.479   3.149  1.2101  0.3602 -0.1128
  365TIP3    H222511   0.157   5.531   3.264  0.5658 -1.2892  0.1795
  366TIP3   OH222512   3.224   2.829   2.471  0.2916 -0.0658  0.3233
  366TIP3    H122513   3.282   2.880   2.528 -4.1267  3.9068  1.6258
  366TIP3    H222514   3.165   2.784   2.532 -1.2664  0.2078 -0.9493
  367TIP3   OH222515   0.854   2.977  11.724 -0.3955 -0.5517  0.3193
  367TIP3    H122516   0.849   3.071  11.709 -1.4765 -0.7116 -0.3384
  367TIP3    H222517   0.808   2.963  11.807  0.9526 -0.3425  1.1223
  368TIP3   OH222518   1.957   2.721   0.383  0.3149  0.3722 -0.1051
  368TIP3    H122519   2.052   2.719   0.389  0.2291 -0.1063  1.3250
  368TIP3    H222520   1.927   2.704   0.473 -1.1087  0.5109 -0.5438
  369TIP3   OH222521   5.753   6.752   1.698  0.0306  0.1056 -0.7623
  369TIP3    H122522   5.750   6.736   1.603 -0.2169  1.2793 -0.9585
  369TIP3    H222523   5.815   6.688   1.731  1.1619  0.5865 -1.9062
  370TIP3   OH222524   4.728   0.025   2.912  0.7584 -0.1323  0.2633
  370TIP3    H122525   4.782  -0.038   2.958  3.3433 -1.3634 -4.1515
  370TIP3    H222526   4.774   0.109   2.922 -0.5517  0.3356  2.7381
  371TIP3   OH222527   5.867   5.582  17.099  0.1631 -0.0150 -0.0293
  371TIP3    H122528   5.774   5.593  17.120 -0.0373 -3.7440  1.3858
  371TIP3    H222529   5.876   5.621  17.012 -3.2180 -1.4025 -1.1103
  372TIP3   OH222530   3.687   2.420   0.745 -0.2058  0.6386 -0.4057
  372TIP3    H122531   3.758   2.401   0.684 -0.8035 -0.6235 -0.7354
  372TIP3    H222532   3.728   2.470   0.815  0.9006  0.3817 -0.8612
  373TIP3   OH222533   2.803   2.442   3.097 -0.2633 -0.9370 -0.1909
  373TIP3    H122534   2.800   2.409   3.008 -0.0787  0.1174 -0.5940
  373TIP3    H222535   2.871   2.389   3.140 -1.8375 -2.9009 -0.0611
  374TIP3   OH222536   0.422   4.885  13.410 -0.1706 -0.8832  0.0134
  374TIP3    H122537   0.461   4.970  13.389  0.2502 -0.7897  1.1053
  374TIP3    H222538   0.431   4.878  13.505 -0.7946 -1.8644  0.0064
  375TIP3   OH222539   0.468   5.860  13.876  0.1820  0.2162  0.6195
  375TIP3    H122540   0.502   5.942  13.912  0.0875  0.1984  0.7495
  375TIP3    H222541   0.544   5.802  13.872  0.3207  0.4240  0.1997
  376TIP3   OH222542   0.210   0.115  14.911  0.0248  0.2701  0.1919
  376TIP3    H122543   0.192   0.021  14.910  2.0234 -0.1232 -0.6399
  376TIP3    H222544   0.287   0.124  14.968  1.1482  1.1406 -1.4275
  377TIP3   OH222545   2.204   2.423  12.001  0.1472 -0.0169  0.1836
  377TIP3    H122546   2.148   2.411  12.077 -1.2299 -0.4709 -0.8809
  377TIP3    H222547   2.226   2.516  12.002 -1.8623  0.4894 -0.2145
  378TIP3   OH222548   0.430   5.633  10.782 -0.0169 -0.1362  0.8762
  378TIP3    H122549   0.482   5.682  10.846  0.1732 -1.0173  1.4132
  378TIP3    H222550   0.494   5.582  10.733  0.0010  1.8138 -1.1704
  379TIP3   OH222551   0.661   3.618   0.350 -0.4987 -0.2241 -0.2865
  379TIP3    H122552   0.705   3.663   0.423 -0.7755  0.0234 -0.2712
  379TIP3    H222553   0.619   3.542   0.390 -0.9484  0.1073 -0.1299
  380TIP3   OH222554   2.048   1.273   0.455 -0.1493 -0.5282 -0.2597
  380TIP3    H122555   2.049   1.177   0.451 -1.0956 -0.6366  1.3696
  380TIP3    H222556   2.137   1.299   0.433  0.5192 -1.8780  0.7553
  381TIP3   OH222557   6.374   5.553   5.955  0.2940 -0.2362  0.0097
  381TIP3    H122558   6.288   5.547   5.998  0.8852 -2.8335  0.8818
  381TIP3    H222559   6.409   5.465   5.958  3.6087  1.0322  0.8383
  382TIP3   OH222560   1.925   2.352  10.564  0.2643  0.1016 -0.2933
  382TIP3    H122561   1.940   2.445  10.581  1.1207 -0.2812  1.1593
  382TIP3    H222562   2.011   2.319  10.539  0.2401 -0.5686  0.5125
  383TIP3   OH222563   4.896   0.053  13.735 -0.3530 -0.4900 -0.3219
  383TIP3    H122564   4.822   0.113  13.749 -1.7375 -2.4556  1.0062
  383TIP3    H222565   4.950   0.097  13.670 -2.4679  1.2147 -0.9934
  384TIP3   OH222566   5.619   0.382  14.911  0.4772 -0.3942  0.2919
  384TIP3    H122567   5.704   0.376  14.954  0.3309  0.6681  0.7468
  384TIP3    H222568   5.629   0.454  14.848 -1.0572  2.0114  2.6898
  385TIP3   OH222569   3.312   0.051   2.838  0.1774 -0.2744  0.3563
  385TIP3    H122570   3.236   0.034   2.894 -0.1611  0.4089  0.1094
  385TIP3    H222571   3.382  -0.000   2.878 -0.1176  0.0287  1.2842
  386TIP3   OH222572   4.775   0.251  10.989  0.3621  0.0260 -0.1443
  386TIP3    H122573   4.732   0.224  10.908  2.3036  1.6806 -1.7755
  386TIP3    H222574   4.796   0.343  10.975  2.1997 -0.1049  1.5936
  387TIP3   OH222575   3.181   2.131  14.939 -0.5050 -0.1258 -0.0387
  387TIP3    H122576   3.089   2.145  14.961 -0.3691  0.3840  0.2338
  387TIP3    H222577   3.202   2.202  14.878 -0.5809 -0.8850 -0.9503
  388TIP3   OH222578   3.198   4.398   2.554  0.3200 -0.3100  0.1771
  388TIP3    H122579   3.234   4.320   2.512 -2.0266 -1.4621  0.1629
  388TIP3    H222580   3.251   4.410   2.633  0.6343 -2.0259  0.2534
  389TIP3   OH222581   5.178   3.557  13.748  0.0845 -0.2311  0.0780
  389TIP3    H122582   5.206   3.519  13.665 -0.9798  0.3599 -0.5543
  389TIP3    H222583   5.084   3.539  13.753  0.0708  0.0395  0.9878
  390TIP3   OH222584   5.138   5.572  12.126 -0.2365  0.1568 -0.2137
  390TIP3    H122585   5.142   5.541  12.217  0.8612 -0.4923 -0.4757
  390TIP3    H222586   5.098   5.500  12.078  1.0965 -0.3509 -0.5925
  391TIP3   OH222587   3.797   3.020  12.217  0.1740 -0.3468 -0.4215
  391TIP3    H122588   3.846   3.037  12.137 -0.5013  1.3382 -0.5088
  391TIP3    H222589   3.804   3.102  12.267  0.0586 -1.1619  0.9496
  392TIP3   OH222590   3.399   0.997   4.080  0.1394 -1.0248  0.4570
  392TIP3    H122591   3.401   0.932   4.009  2.6704 -1.0155  0.4822
  392TIP3    H222592   3.438   0.951   4.155 -1.4466 -0.6493  1.5392
  393TIP3   OH222593   5.290   2.312   4.049 -0.2685  0.7659  0.0823
  393TIP3    H122594   5.384   2.296   4.051 -0.4572 -0.5908 -1.0196
  393TIP3    H222595   5.260   2.294   4.138  0.1129 -1.5026 -0.2218
  394TIP3   OH222596   1.058   6.476   5.176  0.4641 -0.0198  0.5255
  394TIP3    H122597   1.128   6.412   5.183  1.4050  0.9367 -0.0514
  394TIP3    H222598   1.036   6.478   5.083  0.0568  0.0855  0.6242
  395TIP3   OH222599   4.477   5.316  11.758 -0.6295 -0.3793 -0.2320
  395TIP3    H122600   4.461   5.340  11.667 -0.8595 -1.3658 -0.4590
  395TIP3    H222601   4.500   5.398  11.801  1.6487 -0.2240 -1.6382
  396TIP3   OH222602   2.875   3.329   5.579 -0.2218  0.1457 -0.3551
  396TIP3    H122603   2.796   3.335   5.525 -0.8926  0.2618  0.6223
  396TIP3    H222604   2.843   3.335   5.669  0.8667 -0.2088  0.0647
  397TIP3   OH222605   3.914   3.501  12.918 -0.7530 -0.0872  0.2412
  397TIP3    H122606   3.856   3.476  12.846  1.4768  0.1966 -1.6918
  397TIP3    H222607   3.907   3.597  12.922 -2.2824 -0.2199  1.6717
  398TIP3   OH222608   5.122   3.610  15.996 -0.0528  0.6978  0.8948
  398TIP3    H122609   5.060   3.631  15.926  1.0891  0.1530 -0.2871
  398TIP3    H222610   5.089   3.659  16.072 -1.0960  1.5805 -0.1068
  399TIP3   OH222611   3.684   5.889  12.410  0.5171 -0.2741 -0.2725
  399TIP3    H122612   3.623   5.897  12.337  1.4391 -0.2126 -1.0357
  399TIP3    H222613   3.636   5.839  12.476 -1.0792  1.4585 -0.0803
  400TIP3   OH222614   2.696   0.423  12.990 -0.4334 -0.8600  0.5808
  400TIP3    H122615   2.688   0.508  13.033  0.0860 -0.8537  0.6761
  400TIP3    H222616   2.759   0.438  12.919 -0.6851 -1.0570  0.3166
  401TIP3   OH222617   0.021   3.469  15.059 -0.1488 -0.4386 -0.1386
  401TIP3    H122618   0.078   3.444  15.132 -1.2299 -0.2965  0.7631
  401TIP3    H222619  -0.059   3.418  15.073 -0.4977 -0.1329 -1.0253
  402TIP3   OH222620   1.777   3.618   0.237  0.0079 -0.1339 -0.3491
  402TIP3    H122621   1.785   3.608   0.142 -1.4805  1.2538 -0.6431
  402TIP3    H222622   1.709   3.556   0.262 -0.2200  0.1265 -0.3222
  403TIP3   OH222623   1.720   1.955  14.026 -0.1135 -0.1147 -0.3978
  403TIP3    H122624   1.645   1.993  13.981 -0.0573 -0.5706 -0.8912
  403TIP3    H222625   1.682   1.890  14.084 -0.0139 -1.4878 -1.8170
  404TIP3   OH222626   2.818   0.656   1.181  0.0571  0.0345 -1.1486
  404TIP3    H122627   2.737   0.648   1.231  0.8761  0.2450  0.2257
  404TIP3    H222628   2.876   0.591   1.219  0.5832 -0.0181 -2.0423
  405TIP3   OH222629   6.201   5.890  12.042 -0.8852  0.7367 -0.4762
  405TIP3    H122630   6.172   5.800  12.030 -0.5483  0.7729 -1.6858
  405TIP3    H222631   6.248   5.911  11.961  0.8318  1.3086  0.6247
  406TIP3   OH222632   6.185   2.970  16.207  0.6062 -0.2606 -0.7510
  406TIP3    H122633   6.180   3.024  16.128  0.5917 -0.1483 -0.6726
  406TIP3    H222634   6.175   3.032  16.279  1.0363 -0.3081 -0.6454
  407TIP3   OH222635   3.017   1.219  13.546 -0.2763 -0.1100 -0.0865
  407TIP3    H122636   3.085   1.197  13.610  0.6508 -1.5696 -1.5350
  407TIP3    H222637   2.939   1.175  13.578 -0.2955  0.6721  0.9991
  408TIP3   OH222638   3.089   1.948   6.255 -0.1969 -0.0340  0.4001
  408TIP3    H122639   3.017   2.009   6.239  0.3479  0.6486  0.4917
  408TIP3    H222640   3.048   1.871   6.293 -0.7741  0.6802  1.2447
  409TIP3   OH222641   4.098   4.144   4.999 -0.0674 -0.0855  0.4695
  409TIP3    H122642   4.187   4.165   5.029 -0.2039  0.4080  0.5285
  409TIP3    H222643   4.041   4.191   5.059 -0.3858 -0.9256  0.8333
  410TIP3   OH222644   5.353   5.704  15.214  0.4089  0.2848 -0.1182
  410TIP3    H122645   5.408   5.751  15.276  0.8092 -0.2083 -0.0926
  410TIP3    H222646   5.401   5.706  15.132  1.0659 -1.2269  0.2087
  411TIP3   OH222647   5.736   3.998  11.743  0.0684 -0.2400 -0.2827
  411TIP3    H122648   5.765   3.907  11.746  2.2119  0.3649 -1.7617
  411TIP3    H222649   5.788   4.042  11.811 -1.0325 -0.1252  0.4985
  412TIP3   OH222650   3.066   3.372   4.801 -0.2147  0.2061 -0.5985
  412TIP3    H122651   3.102   3.284   4.818  1.2212  0.3280 -2.7637
  412TIP3    H222652   2.984   3.374   4.850 -0.8597 -2.7802 -1.4430
  413TIP3   OH222653   1.597   6.121   1.379  0.1980  0.3829 -0.0406
  413TIP3    H122654   1.538   6.075   1.319  0.4440 -0.0914  0.0868
  413TIP3    H222655   1.547   6.128   1.460  0.7815 -1.1026  0.4533
  414TIP3   OH222656   4.577   2.673   6.083  0.2706 -0.3845 -0.1218
  414TIP3    H122657   4.484   2.695   6.092  0.2661 -0.7016  0.6806
  414TIP3    H222658   4.585   2.640   5.994 -0.5114 -0.9349  0.0000
  415TIP3   OH222659   2.692   6.059  14.613 -0.4755 -0.3719  0.2572
  415TIP3    H122660   2.691   5.978  14.664  0.4597 -0.8268 -0.4174
  415TIP3    H222661   2.605   6.096  14.624 -0.2723 -0.4397  2.2072
  416TIP3   OH222662   2.424   4.411  13.593 -0.6160 -0.3847  0.5719
  416TIP3    H122663   2.487   4.409  13.666 -1.4347 -1.2255  1.2733
  416TIP3    H222664   2.464   4.470  13.529  0.9187 -0.9621  0.9694
  417TIP3   OH222665   4.482   1.888  16.653 -0.4013 -0.3440 -0.1421
  417TIP3    H122666   4.410   1.951  16.651 -0.0693  0.0078 -1.3751
  417TIP3    H222667   4.447   1.809  16.612 -0.2544 -0.3519 -0.2535
  418TIP3   OH222668   3.717   6.696   3.701 -0.3634  0.0391 -0.0238
  418TIP3    H122669   3.681   6.714   3.788 -1.5261 -0.7148 -0.3374
  418TIP3    H222670   3.701   6.603   3.688 -0.9650  0.3242 -1.3833
  419TIP3   OH222671   2.512   1.360   0.756  0.0038  0.1935 -0.5635
  419TIP3    H122672   2.570   1.426   0.794  0.1769  0.0128 -0.5111
  419TIP3    H222673   2.427   1.403   0.750  0.1870  0.5209 -0.8181
  420TIP3   OH222674   6.448   0.083  10.947 -0.7065  0.1010  0.9284
  420TIP3    H122675   6.533   0.110  10.911  0.5002 -2.3734  1.7375
  420TIP3    H222676   6.395   0.061  10.870  1.0850 -3.0063  0.4952
  421TIP3   OH222677   1.029   3.661   3.431  0.1277 -0.4306 -0.7302
  421TIP3    H122678   1.094   3.698   3.372 -0.5911  0.3476 -1.0465
  421TIP3    H222679   0.996   3.584   3.385 -0.4776  0.2109 -1.3941
  422TIP3   OH222680   0.974   0.227  13.322  0.3633 -0.1441  0.3406
  422TIP3    H122681   0.925   0.191  13.396 -0.8688  0.3896 -0.1853
  422TIP3    H222682   0.936   0.315  13.310 -1.0633 -1.0839 -2.3664
  423TIP3   OH222683   0.849   0.916  11.704 -0.1389  0.2866 -0.1099
  423TIP3    H122684   0.931   0.962  11.685 -2.5666  3.5243 -3.5627
  423TIP3    H222685   0.818   0.956  11.785  1.2410 -0.3101  0.7230
  424TIP3   OH222686   5.386   3.252   4.315  0.3448  0.0355  0.0328
  424TIP3    H122687   5.362   3.198   4.391  1.4758  1.8782  1.7482
  424TIP3    H222688   5.481   3.239   4.306  0.4665  1.0166 -0.1223
  425TIP3   OH222689   1.768   4.480  16.314  0.1899 -0.4979  0.3943
  425TIP3    H122690   1.817   4.459  16.234 -0.2852  0.6180 -0.1969
  425TIP3    H222691   1.676   4.477  16.287  0.0586  0.8210  0.6528
  426TIP3   OH222692   3.318   1.389  14.579  0.4891  0.7031  0.2303
  426TIP3    H122693   3.348   1.394  14.489  1.1679 -0.1786  0.3949
  426TIP3    H222694   3.226   1.414  14.575  0.6171  1.0598 -0.6408
  427TIP3   OH222695   3.894   2.235  13.811  0.0037 -0.1551  0.1682
  427TIP3    H122696   3.844   2.316  13.803 -1.5714 -1.1492 -0.1636
  427TIP3    H222697   3.882   2.207  13.901  1.3596  0.4884  0.5604
  428TIP3   OH222698   2.575   4.279  16.722 -0.4278  0.1580 -0.0348
  428TIP3    H122699   2.600   4.203  16.773 -1.7527 -0.0660  0.2950
  428TIP3    H222700   2.480   4.272  16.713 -0.3747  0.8980 -1.3872
  429TIP3   OH222701   5.898   1.131  12.777  0.0936  0.9745 -0.1396
  429TIP3    H122702   5.951   1.206  12.805  0.3990  0.9413 -0.6284
  429TIP3    H222703   5.811   1.166  12.763  0.1687  1.1822 -0.0878
  430TIP3   OH222704   0.614   3.019   4.055 -0.1055  0.7038 -0.3252
  430TIP3    H122705   0.551   2.958   4.093  1.3331  1.0676  2.8189
  430TIP3    H222706   0.700   2.983   4.079  0.8172  2.1575 -1.3530
  431TIP3   OH222707   0.757   2.175   4.553  0.4567 -0.2397  0.1749
  431TIP3    H122708   0.756   2.096   4.499 -0.0228 -0.8631  1.0817
  431TIP3    H222709   0.758   2.247   4.490 -0.0521 -0.9532 -0.6654
  432TIP3   OH222710   1.457   2.797  12.891 -0.0857 -0.0880  0.4085
  432TIP3    H122711   1.442   2.862  12.823 -1.6182 -2.9024 -2.0848
  432TIP3    H222712   1.397   2.822  12.962  0.8480  2.3458  0.3847
  433TIP3   OH222713   0.417   4.054  17.124 -0.3926 -0.7409  1.1876
  433TIP3    H122714   0.463   4.060  17.040 -0.6398  1.7305  1.1859
  433TIP3    H222715   0.327   4.031  17.100 -0.7982  1.3052  0.6236
  434TIP3   OH222716   6.223   4.524  12.009  0.5772 -0.2669  0.1151
  434TIP3    H122717   6.180   4.567  11.935  1.7813 -0.7740 -0.9093
  434TIP3    H222718   6.179   4.559  12.086  0.4580  1.6039 -0.7585
  435TIP3   OH222719   1.697   4.913  15.803 -0.2116  0.2207 -0.2801
  435TIP3    H122720   1.731   4.835  15.759  0.7789  0.8932 -0.7114
  435TIP3    H222721   1.749   4.920  15.883  0.5167  1.0953 -0.8103
  436TIP3   OH222722   1.957   5.032  15.643  0.3139 -0.0977  0.4292
  436TIP3    H122723   1.928   4.942  15.654 -1.2928  0.3652  0.1428
  436TIP3    H222724   1.973   5.063  15.732  1.2436 -0.7825  0.5018
  437TIP3   OH222725   2.875   1.895  16.317  0.3380 -0.5822 -0.3397
  437TIP3    H122726   2.903   1.850  16.237  0.1595 -0.1248 -0.6575
  437TIP3    H222727   2.939   1.966  16.328 -1.5987  1.4747 -1.9656
  438TIP3   OH222728   3.064   5.418   5.564  0.3265  0.1094 -0.4784
  438TIP3    H122729   3.067   5.422   5.659 -0.5759  3.2758 -0.5155
  438TIP3    H222730   3.005   5.345   5.544  0.0886 -0.2208  1.3940
  439TIP3   OH222731   4.494   4.163   5.467  0.2905 -0.4530 -0.0093
  439TIP3    H122732   4.455   4.103   5.404  0.2415 -1.9220  1.3774
  439TIP3    H222733   4.587   4.142   5.467  0.5366  0.6221 -0.7336
  440TIP3   OH222734   3.049   4.460  12.934 -0.0214 -0.8149 -0.1701
  440TIP3    H122735   3.041   4.371  12.900 -0.7457 -0.3803 -1.1659
  440TIP3    H222736   2.963   4.499  12.920  0.0730 -0.1872  0.9453
  441TIP3   OH222737   6.281   2.163   4.129 -0.1566  0.1243  1.0946
  441TIP3    H122738   6.223   2.108   4.076  0.1643  0.7072  0.1280
  441TIP3    H222739   6.241   2.250   4.124 -1.1732 -0.1679  3.3521
  442TIP3   OH222740   1.780   5.933   1.993 -0.6233 -0.1897 -0.3969
  442TIP3    H122741   1.842   5.860   2.004  1.0179  1.3745  1.1890
  442TIP3    H222742   1.770   5.942   1.899 -0.1245 -1.8861 -0.6321
  443TIP3   OH222743   1.943   6.366   0.410 -0.3145 -0.0312  0.2291
  443TIP3    H122744   1.987   6.447   0.385 -2.0352  0.8794  0.0448
  443TIP3    H222745   1.875   6.394   0.473 -0.7397 -1.3569  0.3800
  444TIP3   OH222746   6.185   2.206   3.670 -0.2063  0.7042 -0.5354
  444TIP3    H122747   6.193   2.229   3.577 -1.7691  1.8534 -0.4047
  444TIP3    H222748   6.196   2.290   3.716  1.4256  0.0167  0.3907
  445TIP3   OH222749   5.227   2.333   0.217 -0.3694  0.0198  0.5159
  445TIP3    H122750   5.210   2.336   0.311 -0.6300  1.7142  0.4447
  445TIP3    H222751   5.184   2.254   0.186 -2.8236  0.9707  1.3669
  446TIP3   OH222752   1.328   2.613   2.696 -0.0183 -0.3881 -0.2640
  446TIP3    H122753   1.386   2.557   2.747 -1.2595 -0.7529  0.7969
  446TIP3    H222754   1.338   2.583   2.606 -0.3950 -2.0781  0.2390
  447TIP3   OH222755   4.750   3.113   1.911  0.3491 -0.4821  0.0031
  447TIP3    H122756   4.781   3.195   1.874 -0.7716 -0.3878 -0.7348
  447TIP3    H222757   4.660   3.104   1.879 -0.2354 -0.9839  1.7303
  448TIP3   OH222758   0.756   1.381  16.891 -0.3886  0.1159 -0.9536
  448TIP3    H122759   0.764   1.438  16.968  0.2965 -0.5539 -0.5248
  448TIP3    H222760   0.708   1.434  16.827 -1.7419  0.3532  0.2397
  449TIP3   OH222761   5.673   1.776  13.417  0.1493 -0.4300 -0.2064
  449TIP3    H122762   5.690   1.868  13.399 -1.0947 -0.1825 -0.1814
  449TIP3    H222763   5.678   1.734  13.331 -0.4221 -0.1379 -0.3893
  450TIP3   OH222764   6.578   0.901  14.502 -0.4519  0.4865 -0.1648
  450TIP3    H122765   6.635   0.847  14.557 -0.4410  0.6423 -0.0226
  450TIP3    H222766   6.492   0.857  14.507 -0.0757 -0.4002 -1.3096
  451TIP3   OH222767   3.977   0.885   6.367 -0.3249  0.1526  0.0277
  451TIP3    H122768   3.981   0.970   6.322 -0.1697 -0.6206 -1.4539
  451TIP3    H222769   3.888   0.880   6.401 -1.3794 -0.4867 -2.7211
  452TIP3   OH222770   2.976   3.652  11.762 -0.1328  0.3501 -0.0164
  452TIP3    H122771   2.903   3.589  11.760  1.5668 -1.6755 -0.8206
  452TIP3    H222772   3.038   3.613  11.823  0.1261  2.2384  0.9305
  453TIP3   OH222773   5.348   4.600   0.028 -0.0871 -0.2411 -0.1309
  453TIP3    H122774   5.398   4.653   0.090 -0.6422  0.8333 -0.5897
  453TIP3    H222775   5.259   4.597   0.065 -0.0276 -0.9671 -0.0395
  454TIP3   OH222776   0.196   4.466  14.839 -0.4655  0.1541  0.3935
  454TIP3    H122777   0.218   4.510  14.921  0.0882  0.8727 -0.1255
  454TIP3    H222778   0.236   4.379  14.847 -0.7409  0.0824  1.0358
  455TIP3   OH222779   5.016   5.871  12.160  0.8583  0.2014  0.1017
  455TIP3    H122780   4.962   5.944  12.191 -0.9449 -1.3369  0.6708
  455TIP3    H222781   5.015   5.880  12.065 -2.0313 -0.8974 -0.0124
  456TIP3   OH222782   4.110   1.450  12.219  0.1087 -0.3670  0.8640
  456TIP3    H122783   4.128   1.509  12.146  1.4132  0.4335  1.8053
  456TIP3    H222784   4.015   1.436  12.216  0.1927 -0.6745 -1.2161
  457TIP3   OH222785   3.916   5.662  14.188 -0.2531  0.4425 -0.0076
  457TIP3    H122786   3.982   5.725  14.160 -0.6743  1.1526  0.5931
  457TIP3    H222787   3.922   5.591  14.123  2.3132 -0.3526  1.0499
  458TIP3   OH222788   4.523   0.902  11.383 -0.1572 -0.6043 -0.1569
  458TIP3    H122789   4.475   0.971  11.428 -0.4357 -0.0700 -1.2682
  458TIP3    H222790   4.494   0.821  11.426 -2.2855 -0.3193 -0.9917
  459TIP3   OH222791   1.685   3.134   1.344 -0.3355 -1.0525 -0.3491
  459TIP3    H122792   1.628   3.197   1.387  0.5546  0.2457 -1.0298
  459TIP3    H222793   1.729   3.184   1.275  0.5983 -2.3483 -0.7276
  460TIP3   OH222794   0.970   1.755   0.211 -0.7145  0.3493  0.0855
  460TIP3    H122795   0.995   1.836   0.167 -1.9791  0.4534 -0.4789
  460TIP3    H222796   0.997   1.767   0.301  0.1313  0.9430 -0.2451
  461TIP3   OH222797   0.362   5.491   5.338  0.3723  0.2720 -0.2644
  461TIP3    H122798   0.385   5.544   5.415 -0.2843  0.6499 -0.3188
  461TIP3    H222799   0.288   5.538   5.299 -1.0822 -1.4115  0.4306
  462TIP3   OH222800   4.835   3.104  13.608  0.1435 -0.2598  0.2770
  462TIP3    H122801   4.826   3.113  13.513 -0.9565 -1.3908  0.2519
  462TIP3    H222802   4.869   3.015  13.621  0.6473  0.0238  0.9261
  463TIP3   OH222803   4.659   3.006   3.686  0.3725 -0.0334 -0.1003
  463TIP3    H122804   4.714   3.044   3.755  1.1273 -2.1545  0.4924
  463TIP3    H222805   4.596   3.075   3.666  1.6495  1.5031  1.0089
  464TIP3   OH222806   6.511   1.544  11.942  0.4367  0.2205 -0.4272
  464TIP3    H122807   6.499   1.449  11.943  5.1278 -0.5023 -0.5434
  464TIP3    H222808   6.522   1.566  11.850  1.6166  0.4926 -0.2327
  465TIP3   OH222809   0.938   1.700  13.171  0.3957 -0.5792  0.4732
  465TIP3    H122810   0.855   1.665  13.138 -0.3400 -0.0853  1.7474
  465TIP3    H222811   0.968   1.633  13.232  0.5572 -0.4146  0.5722
  466TIP3   OH222812   2.124   1.997   5.081 -0.7850  0.0997 -0.3667
  466TIP3    H122813   2.160   1.931   5.140 -2.1835 -0.4165 -0.0595
  466TIP3    H222814   2.199   2.051   5.055  0.0457 -0.4298  0.9068
  467TIP3   OH222815   3.703   0.447  13.504 -0.3154  0.3481 -0.3307
  467TIP3    H122816   3.786   0.485  13.475 -1.1569  0.9536 -1.9972
  467TIP3    H222817   3.644   0.457  13.429 -1.1551 -2.4432 -0.1182
  468TIP3   OH222818   1.664   5.578   3.976 -0.0228 -0.0980 -0.5384
  468TIP3    H122819   1.625   5.651   3.928 -0.9122  0.2890  0.7400
  468TIP3    H222820   1.741   5.615   4.019 -0.3443  0.0388 -0.0756
  469TIP3   OH222821   4.766   3.605  15.101  0.2416  0.2095 -0.3382
  469TIP3    H122822   4.855   3.580  15.076 -0.1570  0.2880 -1.9228
  469TIP3    H222823   4.757   3.695  15.070 -0.4471  0.1348 -0.3639
  470TIP3   OH222824   2.868   5.001  11.585 -0.2634  0.3569 -0.3799
  470TIP3    H122825   2.793   4.994  11.526  0.6017 -1.5168 -1.2837
  470TIP3    H222826   2.832   4.987  11.672 -0.7434 -2.0034 -0.9415
  471TIP3   OH222827   3.640   1.585   2.909 -0.1427 -0.4949 -0.1349
  471TIP3    H122828   3.674   1.545   2.829 -0.7822  2.8613 -2.1619
  471TIP3    H222829   3.709   1.643   2.939 -0.1741 -1.2315  1.4100
  472TIP3   OH222830   4.900   3.583  13.374 -0.1388  0.3580  0.7982
  472TIP3    H122831   4.853   3.576  13.290  0.9204  0.0663  0.2222
  472TIP3    H222832   4.935   3.495  13.389  1.9280  1.0526  0.2044
  473TIP3   OH222833   2.819   6.121  15.839 -0.2267  0.0787 -0.6821
  473TIP3    H122834   2.820   6.176  15.761 -0.7563 -0.2084 -0.8947
  473TIP3    H222835   2.911   6.113  15.864 -0.2098  1.8729 -0.0645
  474TIP3   OH222836   4.121   1.847   3.917 -0.6760 -0.0857  0.4740
  474TIP3    H122837   4.116   1.759   3.956  1.2212 -0.7559 -0.7348
  474TIP3    H222838   4.062   1.842   3.841  1.5818 -1.2537 -1.2675
  475TIP3   OH222839   2.297   3.545   5.848 -0.0827  0.1850 -0.0965
  475TIP3    H122840   2.220   3.540   5.905  0.6671  0.3171  0.9447
  475TIP3    H222841   2.281   3.621   5.792 -0.1791  0.9075  0.9084
  476TIP3   OH222842   0.901   2.142   5.914  0.1827 -0.2162  0.1959
  476TIP3    H122843   0.955   2.161   5.991  0.7931 -1.3125  0.0583
  476TIP3    H222844   0.834   2.081   5.946 -0.0336 -0.0649  0.0339
  477TIP3   OH222845   3.613   2.636   4.205  0.5662  0.2589 -0.0365
  477TIP3    H122846   3.596   2.718   4.159  0.0236  0.5868  0.7449
  477TIP3    H222847   3.569   2.646   4.290  1.3864 -0.4168  0.4749
  478TIP3   OH222848   0.790   5.310  10.556 -0.3651 -0.1378 -0.2566
  478TIP3    H122849   0.840   5.280  10.632 -1.6688 -0.3914  0.5386
  478TIP3    H222850   0.817   5.401  10.543 -0.9728  0.2834  1.2667
  479TIP3   OH222851   4.416   0.153   5.067 -0.4898  0.0996  0.0544
  479TIP3    H122852   4.492   0.189   5.021  0.0516  1.7002  2.1141
  479TIP3    H222853   4.453   0.086   5.125 -0.4216  1.8163  2.0529
  480TIP3   OH222854   2.452   3.911   0.245  0.0686 -0.6895 -0.2259
  480TIP3    H122855   2.395   3.985   0.226  1.0324  0.5020  1.3120
  480TIP3    H222856   2.401   3.834   0.223 -0.9292  0.4277 -1.9413
  481TIP3   OH222857   5.935   2.746   4.495 -0.0921  0.1636 -0.0004
  481TIP3    H122858   5.862   2.684   4.496 -0.1559  0.2225 -0.8119
  481TIP3    H222859   5.914   2.809   4.565 -1.8832  1.3933 -1.5743
  482TIP3   OH222860   5.480   4.278  14.984  0.3740  0.8492 -0.2505
  482TIP3    H122861   5.572   4.281  14.959  0.0178 -0.4150 -1.8540
  482TIP3    H222862   5.452   4.369  14.986  1.4129  1.1868 -0.7903
  483TIP3   OH222863   4.494   1.288  12.761  0.6066 -0.2141 -0.5158
  483TIP3    H122864   4.463   1.198  12.774 -0.1072  0.1701  0.4955
  483TIP3    H222865   4.497   1.299  12.666  1.1539 -1.4676 -0.6464
  484TIP3   OH222866   1.016   6.050  14.146  0.0342 -0.0417 -0.5436
  484TIP3    H122867   1.012   5.954  14.145 -0.4688 -0.0158 -1.4393
  484TIP3    H222868   1.108   6.070  14.163 -0.0344 -0.6834  0.5774
  485TIP3   OH222869   5.743   0.181  12.017 -0.4017  0.6730 -0.0663
  485TIP3    H122870   5.831   0.188  12.053 -0.9151  0.1968  1.3281
  485TIP3    H222871   5.726   0.267  11.979  0.1002  1.2602  1.0040
  486TIP3   OH222872   0.922   2.364  11.578  0.3365  1.0229 -0.2044
  486TIP3    H122873   0.853   2.317  11.531  0.9014  0.5976 -0.6137
  486TIP3    H222874   0.995   2.303  11.581  1.6080  2.3819 -2.0324
  487TIP3   OH222875   3.844   4.352   0.313  0.0595 -0.1464 -0.1238
  487TIP3    H122876   3.907   4.337   0.383 -1.0088 -0.4358  0.7891
  487TIP3    H222877   3.891   4.329   0.233  2.1365  2.6429  0.2176
  488TIP3   OH222878   3.258   0.061  10.813  0.5138 -0.2731 -0.1754
  488TIP3    H122879   3.214   0.114  10.880 -1.0329  1.8611 -2.7312
  488TIP3    H222880   3.187   0.017  10.767  1.3967 -0.3353 -1.5109
  489TIP3   OH222881   2.274   0.988  16.348  0.3463  0.1526 -0.5041
  489TIP3    H122882   2.288   0.901  16.385 -0.0911  0.4356  0.3553
  489TIP3    H222883   2.199   0.978  16.290 -1.4357  0.5151  1.6711
  490TIP3   OH222884   5.426   6.766  13.046 -0.4368 -0.0860  0.1352
  490TIP3    H122885   5.386   6.710  13.112  0.5430  1.2819  1.9191
  490TIP3    H222886   5.519   6.769  13.069 -0.3214  1.5779 -0.4416
  491TIP3   OH222887   5.282   1.714  12.889 -0.2904  0.0901  0.0890
  491TIP3    H122888   5.326   1.642  12.843 -1.9751  0.0242 -1.5073
  491TIP3    H222889   5.244   1.672  12.967  2.5581  0.1933  1.5803
  492TIP3   OH222890   2.040   2.444  12.251  0.0883  0.3448  0.2071
  492TIP3    H122891   1.959   2.484  12.282  0.4706  0.8163  0.5779
  492TIP3    H222892   2.106   2.468  12.315  0.8382  1.1811 -0.8697
  493TIP3   OH222893   4.398   3.317  12.834  0.2916 -0.2816 -1.1736
  493TIP3    H122894   4.413   3.274  12.918 -1.9085 -1.9345 -1.5901
  493TIP3    H222895   4.326   3.379  12.851  0.6084  0.2032 -1.5734
  494TIP3   OH222896   1.153   1.241   6.399 -0.2387 -0.0176 -0.4282
  494TIP3    H122897   1.225   1.249   6.460 -1.3553  0.8097  0.8035
  494TIP3    H222898   1.074   1.252   6.453 -1.2748 -0.6620 -1.7765
  495TIP3   OH222899   3.881   1.920  15.099  0.1672  0.3685 -0.0993
  495TIP3    H122900   3.933   1.957  15.028  0.6996  0.4868  0.3427
  495TIP3    H222901   3.931   1.843  15.126 -0.1594  0.1870 -0.0157
  496TIP3   OH222902   6.520   5.662   3.775  0.5737 -0.1444 -0.4346
  496TIP3    H122903   6.475   5.658   3.691 -1.3028 -0.3187  0.5686
  496TIP3    H222904   6.474   5.730   3.824  2.7516  1.2014 -0.1525
  497TIP3   OH222905   1.587   4.043  14.157 -0.7806 -0.0398 -0.6780
  497TIP3    H122906   1.659   4.105  14.149 -0.1408 -0.6181  0.3954
  497TIP3    H222907   1.516   4.093  14.197 -0.2968  0.0312  0.1024
  498TIP3   OH222908   1.482   1.810   4.672  0.3785  0.0442  0.4215
  498TIP3    H122909   1.543   1.807   4.746  0.1627 -0.1899  0.5915
  498TIP3    H222910   1.520   1.751   4.607  0.0198 -0.5872  0.7733
  499TIP3   OH222911   4.886   6.101  12.223 -0.2876 -0.3888 -0.7779
  499TIP3    H122912   4.907   6.182  12.176  2.0987 -0.8208 -0.4815
  499TIP3    H222913   4.870   6.129  12.313 -0.9286 -0.0753 -0.9821
  500TIP3   OH222914   5.877   6.352   5.719  0.6659  0.1158 -0.0320
  500TIP3    H122915   5.836   6.360   5.805 -1.4102 -0.1783 -0.9610
  500TIP3    H222916   5.868   6.438   5.679  1.0748  0.0882 -0.1880
  501TIP3   OH222917   3.244   4.914  15.996  0.4007 -0.1001  0.2438
  501TIP3    H122918   3.148   4.911  15.992  0.4097 -0.9241  0.6577
  501TIP3    H222919   3.266   4.887  16.085  1.1198 -2.4784 -0.6101
  502TIP3   OH222920   6.454   6.389   4.357  0.3225  0.3514  0.2375
  502TIP3    H122921   6.509   6.340   4.296 -0.4254 -0.7549  0.4380
  502TIP3    H222922   6.489   6.369   4.444  0.0545  0.2275  0.3169
  503TIP3   OH222923   2.902   3.158   5.844  0.3733  0.4249 -0.2435
  503TIP3    H122924   2.944   3.185   5.761 -0.5198  0.3701 -0.7158
  503TIP3    H222925   2.937   3.218   5.909  2.1465 -0.3933 -0.4033
  504TIP3   OH222926   1.713   6.472  11.883  0.0739  0.2878 -0.1892
  504TIP3    H122927   1.752   6.531  11.948  0.3573  0.1404 -0.2269
  504TIP3    H222928   1.689   6.530  11.810  1.5145  0.1760 -0.7582
  505TIP3   OH222929   0.578   4.061  14.376  0.4596 -0.6035 -0.5502
  505TIP3    H122930   0.585   4.050  14.471  2.2444  1.4423 -0.3850
  505TIP3    H222931   0.491   4.029  14.354 -0.5749  0.2909  2.0248
  506TIP3   OH222932   2.499   0.323  13.209  0.4515  0.3262  0.0962
  506TIP3    H122933   2.555   0.318  13.287  0.2260  1.2367  0.3232
  506TIP3    H222934   2.547   0.379  13.148 -0.0217  0.7765  0.1313
  507TIP3   OH222935   3.116   0.329  13.169  0.2922 -0.2720 -0.3289
  507TIP3    H122936   3.154   0.417  13.169 -1.8063  0.6633 -0.6022
  507TIP3    H222937   3.056   0.329  13.094 -0.1328 -1.7530 -0.0020
  508TIP3   OH222938   4.221   6.602   3.698  0.2272  0.3856  0.4194
  508TIP3    H122939   4.263   6.517   3.712  2.7000  1.6803  1.0521
  508TIP3    H222940   4.283   6.652   3.646 -0.9884  1.9942  0.4669
  509TIP3   OH222941   0.947   1.379  14.894  0.1085  0.1845 -0.1330
  509TIP3    H122942   0.995   1.377  14.977  0.7867  2.8266 -0.4255
  509TIP3    H222943   0.857   1.357  14.917  0.1338  1.6638  1.4481
  510TIP3   OH222944   3.970   5.183   2.624  0.0698 -0.7322 -0.5549
  510TIP3    H122945   3.907   5.255   2.619  0.0740 -0.7184 -0.3886
  510TIP3    H222946   4.036   5.205   2.558 -0.4354 -1.0745 -1.1764
  511TIP3   OH222947   2.581   2.296  14.068  0.0439 -0.3609  0.4128
  511TIP3    H122948   2.520   2.361  14.105 -0.7362 -0.0511 -1.3299
  511TIP3    H222949   2.594   2.325  13.977 -0.7016 -2.9060 -0.5511
  512TIP3   OH222950   0.942   6.047  11.116  0.0559  0.0794 -0.1517
  512TIP3    H122951   0.895   6.003  11.186  0.2907  0.6327  0.3590
  512TIP3    H222952   0.925   5.994  11.038  0.3548 -0.9178  0.4613
  513TIP3   OH222953   5.804   5.544  15.776  0.0135 -0.2998 -0.1841
  513TIP3    H122954   5.857   5.489  15.834 -0.8970 -0.6042  0.3645
  513TIP3    H222955   5.869   5.594  15.726  0.8236 -0.1810  0.9398
  514TIP3   OH222956   1.109   1.281   6.783  0.1349 -0.0654 -0.3493
  514TIP3    H122957   1.175   1.222   6.818  0.1480 -1.1272 -2.1197
  514TIP3    H222958   1.044   1.223   6.743 -0.3543  1.0692 -1.2269
  515TIP3   OH222959   0.100   0.692   1.613  0.1320  0.5119  0.3146
  515TIP3    H122960   0.047   0.620   1.580 -0.8082  1.9625 -1.5231
  515TIP3    H222961   0.038   0.764   1.623  1.1464  1.2277  1.5508
  516TIP3   OH222962   4.213   1.156  16.219 -0.1295 -0.9411  0.3085
  516TIP3    H122963   4.309   1.159  16.213 -0.0166  0.9657  2.5971
  516TIP3    H222964   4.186   1.115  16.137  2.4706  1.6517 -1.9875
  517TIP3   OH222965   2.383   6.522   4.258  0.2508 -0.0413 -0.2624
  517TIP3    H122966   2.309   6.560   4.305 -0.2551  1.6926 -2.3650
  517TIP3    H222967   2.343   6.455   4.202  0.6221 -0.8994  0.4919
  518TIP3   OH222968   3.474   3.639  14.333 -0.8979 -0.1893 -0.0167
  518TIP3    H122969   3.518   3.573  14.280 -1.5995 -1.5340  1.0507
  518TIP3    H222970   3.545   3.689  14.373 -0.3526 -0.8226 -0.1787
  519TIP3   OH222971   2.386   4.956  16.872  0.0090  0.2183 -0.1037
  519TIP3    H122972   2.388   4.988  16.962 -2.1315 -0.6997  0.3043
  519TIP3    H222973   2.297   4.977  16.842 -0.2194 -2.0159 -1.0605
  520TIP3   OH222974   3.767   1.020   4.483  0.1894  0.5488  0.3751
  520TIP3    H122975   3.672   1.021   4.493  0.2103  2.2597  0.6400
  520TIP3    H222976   3.794   0.934   4.514 -1.2291  0.2224  0.7377
  521TIP3   OH222977   6.163   6.008   5.368  0.3651 -0.1848 -0.1163
  521TIP3    H122978   6.168   6.080   5.431  1.7124 -0.4996  0.1692
  521TIP3    H222979   6.069   5.994   5.355  0.0848  1.2606  0.2220
  522TIP3   OH222980   6.568   0.941  13.091 -0.1244  0.4151 -0.1116
  522TIP3    H122981   6.537   1.015  13.038 -1.1348  1.7627  2.2561
  522TIP3    H222982   6.488   0.895  13.116  0.5237 -1.7134 -1.8374
  523TIP3   OH222983   4.870   3.960  13.299  0.7047 -0.7347  0.2535
  523TIP3    H122984   4.822   4.011  13.364 -0.0401 -1.3535  0.1931
  523TIP3    H222985   4.805   3.900  13.263  1.1565 -0.5340 -0.9213
  524TIP3   OH222986   3.547   6.567  15.159  0.0935  0.3097 -0.1998
  524TIP3    H122987   3.451   6.566  15.163  0.1296  0.6109  1.0613
  524TIP3    H222988   3.572   6.645  15.209  1.0096 -0.0404 -0.1006
  525TIP3   OH222989   2.310   5.424   5.227 -0.2202 -0.1678 -0.2542
  525TIP3    H122990   2.249   5.439   5.155  0.8349 -0.9608 -1.3360
  525TIP3    H222991   2.388   5.474   5.204  0.1401 -0.4453  0.3316
  526TIP3   OH222992   5.813   3.526  14.703  0.3933 -0.6618 -0.7832
  526TIP3    H122993   5.798   3.441  14.745 -1.7151 -0.9423 -2.0114
  526TIP3    H222994   5.793   3.590  14.771 -1.3099 -1.1309 -0.8096
  527TIP3   OH222995   1.977   2.922   3.043  0.5774 -1.0558 -0.1268
  527TIP3    H122996   1.958   3.016   3.053  0.2059 -1.1487  0.0410
  527TIP3    H222997   1.994   2.911   2.950  0.6380 -0.8161 -0.1450
  528TIP3   OH222998   4.327   2.865   1.408 -0.1100  0.2811  0.1358
  528TIP3    H122999   4.415   2.827   1.415 -0.3353 -0.2417  0.1061
  528TIP3    H223000   4.287   2.822   1.333 -0.5564  0.1928  0.4200
  529TIP3   OH223001   5.174   6.699   3.871  0.1143  0.4590  0.5936
  529TIP3    H123002   5.114   6.701   3.796 -0.8586  1.6223  1.3750
  529TIP3    H223003   5.253   6.743   3.839  0.2281 -0.2688 -0.1608
  530TIP3   OH223004   0.128   4.843   1.217  0.2477  0.2508  0.1887
  530TIP3    H123005   0.165   4.927   1.189  0.6144  0.8530  2.4229
  530TIP3    H223006   0.040   4.842   1.179  0.9693  0.7192 -1.5582
  531TIP3   OH223007   2.838   2.306   2.857 -0.0481  0.5074 -0.3227
  531TIP3    H123008   2.763   2.261   2.896  1.4511 -2.1342 -0.4210
  531TIP3    H223009   2.831   2.286   2.764  1.6835 -1.1228 -0.1164
  532TIP3   OH223010   1.533   0.572   3.633 -0.6769  0.8294  0.5911
  532TIP3    H123011   1.565   0.605   3.718  0.1093 -1.1476  1.0807
  532TIP3    H223012   1.607   0.582   3.574  0.4901 -2.4823  1.3963
  533TIP3   OH223013   4.841   6.550  17.055  0.0196 -0.2474 -0.3559
  533TIP3    H123014   4.906   6.552  17.125 -0.5099  0.9347  0.1196
  533TIP3    H223015   4.772   6.493  17.088  0.0315 -0.1378 -0.1354
  534TIP3   OH223016   0.376   3.324  14.932 -0.2676  0.0310 -0.2018
  534TIP3    H123017   0.386   3.241  14.980 -0.7583  0.5854  0.8762
  534TIP3    H223018   0.337   3.299  14.849 -4.5286 -0.3658  1.8137
  535TIP3   OH223019   1.125   3.550  11.935 -0.0872  0.4625 -0.2513
  535TIP3    H123020   1.097   3.474  11.883  1.1381  0.2843 -0.6567
  535TIP3    H223021   1.068   3.621  11.906  1.0470  0.5366 -2.3641
  536TIP3   OH223022   2.965   5.476   6.216  0.2620  0.3384 -0.2308
  536TIP3    H123023   2.930   5.552   6.262 -1.4996  0.3029 -1.4304
  536TIP3    H223024   2.887   5.428   6.187  1.3409 -1.1343 -0.7606
  537TIP3   OH223025   2.240   2.077   3.322  0.3960 -0.1945  0.3902
  537TIP3    H123026   2.169   2.099   3.383  1.2276 -1.7802  1.9445
  537TIP3    H223027   2.320   2.103   3.368  1.0195 -1.3124 -0.0576
  538TIP3   OH223028   1.961   3.108   1.676 -0.1710 -0.4943  0.2118
  538TIP3    H123029   1.983   3.158   1.597  0.6561 -0.9641  0.1338
  538TIP3    H223030   1.895   3.045   1.647 -0.4974 -0.0965  0.0876
  539TIP3   OH223031   2.906   5.024  14.024 -0.2375 -0.8531  0.6519
  539TIP3    H123032   2.922   5.089  14.092  0.8613  0.0558 -0.4522
  539TIP3    H223033   2.966   4.952  14.044  1.6356  0.3469 -0.5735
  540TIP3   OH223034   0.615   0.477  16.049 -0.6855  0.3973  0.2226
  540TIP3    H123035   0.567   0.408  16.004  0.2236 -0.3391  0.3620
  540TIP3    H223036   0.663   0.521  15.979 -0.0552 -0.1108  0.3243
  541TIP3   OH223037   4.116   3.549   3.776  0.0571  0.5489  0.4718
  541TIP3    H123038   4.102   3.561   3.870 -0.1643  2.3546  0.2200
  541TIP3    H223039   4.033   3.576   3.736  0.0015 -0.6332 -0.2154
  542TIP3   OH223040   2.176   2.121   4.420  1.1591 -0.1042  0.1451
  542TIP3    H123041   2.089   2.141   4.387  0.4306 -0.9669  1.5093
  542TIP3    H223042   2.230   2.112   4.342  0.1896  1.1228 -0.6807
  543TIP3   OH223043   3.529   3.094   5.493 -0.3442  0.0635 -0.4377
  543TIP3    H123044   3.472   3.154   5.540 -0.7644  0.2647 -1.1981
  543TIP3    H223045   3.559   3.032   5.560 -1.3321  0.0430 -0.0005
  544TIP3   OH223046   5.296   4.047  14.892 -0.0207  0.9215 -0.3208
  544TIP3    H123047   5.324   4.013  14.807  0.4031 -0.5541  0.3910
  544TIP3    H223048   5.357   4.119  14.910 -0.3842  1.5313 -1.4485
  545TIP3   OH223049   0.549   2.000   2.585  0.2597 -0.0592  0.2090
  545TIP3    H123050   0.616   1.994   2.517 -0.0059  1.1420 -0.1596
  545TIP3    H223051   0.599   2.008   2.666  0.5692  0.7416 -0.0532
  546TIP3   OH223052   5.749   3.430  15.410  0.3231  0.2281  0.1690
  546TIP3    H123053   5.760   3.514  15.365 -0.2638 -0.1645 -0.7340
  546TIP3    H223054   5.661   3.435  15.448  1.2772  1.0290  2.3062
  547TIP3   OH223055   6.690   0.473   1.859  0.2247  0.7135 -0.0467
  547TIP3    H123056   6.692   0.549   1.917  1.5678  0.8142 -0.2074
  547TIP3    H223057   6.782   0.455   1.840 -0.1641  0.2570 -1.5833
  548TIP3   OH223058   5.274   1.122  15.126  0.1008 -0.0601  0.3589
  548TIP3    H123059   5.216   1.181  15.079  1.4610  0.0033 -1.2849
  548TIP3    H223060   5.341   1.098  15.062 -0.3461 -3.3006  1.0030
  549TIP3   OH223061   0.283   3.221  11.202 -0.3661  0.5027  0.4011
  549TIP3    H123062   0.217   3.224  11.133 -0.2184  0.4078  0.2538
  549TIP3    H223063   0.366   3.227  11.155 -0.2595  0.1984  0.5527
  550TIP3   OH223064   3.443   6.086   0.864 -0.2557 -0.0411  0.5046
  550TIP3    H123065   3.354   6.064   0.839 -0.9162  1.3300  1.5658
  550TIP3    H223066   3.442   6.087   0.960  0.5646  1.2151  0.5216
  551TIP3   OH223067   2.952   1.299  16.338 -0.1564 -0.7692  0.5795
  551TIP3    H123068   2.963   1.255  16.422  0.4740 -2.5888 -0.4087
  551TIP3    H223069   2.879   1.360  16.351 -0.0893 -1.0717  2.4163
  552TIP3   OH223070   6.637   4.200   0.243  0.1497 -1.1407 -0.0034
  552TIP3    H123071   6.726   4.208   0.210  0.0458 -1.1940 -0.2953
  552TIP3    H223072   6.647   4.192   0.338  0.4372 -0.8261 -0.0058
  553TIP3   OH223073   6.637   0.074   0.074 -0.0249 -0.0636  0.3541
  553TIP3    H123074   6.704   0.140   0.095  1.1934 -0.8387 -0.9976
  553TIP3    H223075   6.686   0.001   0.038 -1.5816 -0.8357 -0.2402
  554TIP3   OH223076   5.279   5.400   4.887  0.5239 -0.1797  0.1535
  554TIP3    H123077   5.350   5.357   4.839  0.5387 -1.0755  0.9660
  554TIP3    H223078   5.248   5.468   4.827  0.6567 -1.1639 -1.0682
  555TIP3   OH223079   1.566   5.871  10.898  0.0858  0.6492  0.2815
  555TIP3    H123080   1.550   5.910  10.812 -1.7170  1.0489  0.7823
  555TIP3    H223081   1.515   5.790  10.897  2.3938 -0.8401 -0.0929
  556TIP3   OH223082   1.001   3.962   5.009 -0.2881  0.6199 -0.1854
  556TIP3    H123083   0.989   3.972   4.914 -1.1419 -0.3791 -0.1999
  556TIP3    H223084   1.013   4.051   5.041  0.8540  0.8987 -1.3399
  557TIP3   OH223085   4.016   0.977   5.012  0.7345  0.1847  0.2433
  557TIP3    H123086   3.987   0.977   5.104 -1.5127 -1.3850 -0.4198
  557TIP3    H223087   4.106   0.946   5.016  0.4951 -0.3775  1.8930
  558TIP3   OH223088   3.605   2.548  16.229  0.3696 -0.0289 -0.4558
  558TIP3    H123089   3.610   2.553  16.133 -1.5724  1.4759 -0.5033
  558TIP3    H223090   3.690   2.579  16.259  0.9706 -0.4473 -1.6987
  559TIP3   OH223091   1.724   1.897  16.237  0.2315 -0.0817 -0.7252
  559TIP3    H123092   1.647   1.954  16.231  0.6562  0.3836 -1.8538
  559TIP3    H223093   1.761   1.897  16.149  2.1023  0.5218  0.0355
  560TIP3   OH223094   3.521   2.726   3.693  0.3313  0.6110 -0.3546
  560TIP3    H123095   3.518   2.644   3.742  1.6483 -0.2294 -1.6436
  560TIP3    H223096   3.517   2.794   3.760  0.0001 -0.5056  0.7798
  561TIP3   OH223097   3.845   1.476  14.415  0.5123  0.3736  0.0155
  561TIP3    H123098   3.795   1.554  14.440 -0.1900 -0.2386  0.5170
  561TIP3    H223099   3.791   1.403  14.443  0.7837 -0.3066 -1.2271
  562TIP3   OH223100   0.530   4.724   3.740 -0.2758  0.1034  0.3195
  562TIP3    H123101   0.437   4.729   3.720 -0.0238  1.8041 -0.5682
  562TIP3    H223102   0.563   4.653   3.686 -0.5062  1.5084 -1.7404
  563TIP3   OH223103   4.662   3.229   3.417  0.1078 -0.2391  0.2744
  563TIP3    H123104   4.642   3.138   3.393  1.7683 -0.4494 -0.4135
  563TIP3    H223105   4.749   3.225   3.455  0.4877  1.1686 -0.4137
  564TIP3   OH223106   3.404   0.757   1.164 -0.2941  0.9260 -0.2223
  564TIP3    H123107   3.316   0.772   1.196 -0.4369 -1.6703  0.7833
  564TIP3    H223108   3.409   0.805   1.081 -2.3404  1.7878  0.1376
  565TIP3   OH223109   5.759   4.141   0.266  0.6230 -0.1580  0.5869
  565TIP3    H123110   5.674   4.179   0.286  1.5336  0.6781  3.1339
  565TIP3    H223111   5.814   4.216   0.243  1.2848 -0.4084  1.3183
  566TIP3   OH223112   3.990   0.841  10.731 -0.2953 -0.1775  0.4280
  566TIP3    H123113   3.921   0.802  10.785 -1.4735  0.5245 -0.5414
  566TIP3    H223114   4.038   0.766  10.695  0.1947 -0.6520  2.0341
  567TIP3   OH223115   5.979   3.970   0.299 -0.3331  0.5032 -0.2794
  567TIP3    H123116   5.948   3.880   0.294  0.0980  0.0973  3.0260
  567TIP3    H223117   5.899   4.021   0.315 -0.2883  0.3949  0.3136
  568TIP3   OH223118   4.422   5.245  14.977 -0.5042 -0.7570  0.2935
  568TIP3    H123119   4.490   5.205  14.923 -0.5696  1.7585 -1.6910
  568TIP3    H223120   4.457   5.330  15.003 -2.3549  0.0303  0.3230
  569TIP3   OH223121   3.704   4.968   3.270 -0.0996 -0.2726 -0.1859
  569TIP3    H123122   3.621   5.007   3.299 -0.6031 -0.0484 -1.8850
  569TIP3    H223123   3.711   4.888   3.321 -1.2693 -0.1991  0.1166
  570TIP3   OH223124   0.577   4.054   0.391  0.4120  0.4899 -0.0619
  570TIP3    H123125   0.664   4.039   0.428  1.2227 -1.0530 -2.4603
  570TIP3    H223126   0.586   4.138   0.345  0.9128 -0.1064 -1.0656
  571TIP3   OH223127   4.266   3.405  13.860 -0.4389 -0.2831 -0.4590
  571TIP3    H123128   4.207   3.335  13.833 -1.1842  0.3547 -0.4708
  571TIP3    H223129   4.325   3.417  13.786 -0.7885 -0.3702 -0.7483
  572TIP3   OH223130   5.988   0.785  14.771  0.6804  0.1782 -0.3512
  572TIP3    H123131   5.940   0.799  14.689  1.6775 -1.2345 -1.1931
  572TIP3    H223132   6.021   0.696  14.765  0.1482 -0.2067  1.9276
  573TIP3   OH223133   5.385   4.265   2.265  0.0331  0.1104 -0.1688
  573TIP3    H123134   5.410   4.210   2.190  1.8732  0.2708  0.2974
  573TIP3    H223135   5.401   4.210   2.341  0.6252  0.8230  0.2308
  574TIP3   OH223136   0.169   1.782   4.244 -0.2357 -0.2245  0.3231
  574TIP3    H123137   0.187   1.691   4.223 -2.1641 -0.4484 -0.4515
  574TIP3    H223138   0.074   1.790   4.237  0.0225  2.1848 -1.0699
  575TIP3   OH223139   3.972   3.735   3.902  0.0306 -0.6220  0.6169
  575TIP3    H123140   3.890   3.689   3.887 -0.1840 -0.4164  1.1596
  575TIP3    H223141   3.975   3.749   3.997  1.1571 -1.4926  0.7131
  576TIP3   OH223142   2.050   5.399   4.344  0.2131  0.3764 -0.2753
  576TIP3    H123143   2.142   5.425   4.358  0.4764 -0.7406  0.1080
  576TIP3    H223144   2.000   5.461   4.398  0.8456  0.0161  0.7579
  577TIP3   OH223145   1.333   3.472   1.705 -0.5780  0.2977 -0.0383
  577TIP3    H123146   1.288   3.486   1.622 -1.6739  0.3417  0.5549
  577TIP3    H223147   1.293   3.534   1.765  0.0312  0.0862  0.5967
  578TIP3   OH223148   1.830   1.985  10.640 -0.3976 -0.0434 -0.3221
  578TIP3    H123149   1.820   1.892  10.659  1.2185  0.1703  1.7731
  578TIP3    H223150   1.924   2.000  10.641 -0.6460  1.6473 -0.4845
  579TIP3   OH223151   3.815   2.572   1.737 -0.3131 -0.5699  0.0325
  579TIP3    H123152   3.845   2.537   1.653 -1.2419 -2.0287  0.3020
  579TIP3    H223153   3.736   2.522   1.757 -1.3646  1.3076  0.6867
  580TIP3   OH223154   3.291   5.228   1.522 -0.3048  0.1745 -0.0832
  580TIP3    H123155   3.209   5.274   1.504  1.6287  3.0736 -1.9776
  580TIP3    H223156   3.283   5.146   1.474 -2.2651  0.2268  0.1066
  581TIP3   OH223157   3.963   0.467  17.213  0.6275  0.2388  0.0161
  581TIP3    H123158   3.961   0.404  17.285 -2.2641 -1.9573 -1.8493
  581TIP3    H223159   4.013   0.423  17.145 -3.0342 -1.0260 -2.0223
  582TIP3   OH223160   5.981   0.974   1.111  0.1542 -0.1414  0.1943
  582TIP3    H123161   5.942   0.992   1.197 -0.0280  1.8025 -0.2626
  582TIP3    H223162   6.074   0.965   1.129 -0.2136 -2.6735  0.9907
  583TIP3   OH223163   0.981   3.733   0.208 -0.1633  0.6823  0.0827
  583TIP3    H123164   0.932   3.799   0.257  0.0080  0.3485  0.7187
  583TIP3    H223165   1.035   3.783   0.146 -0.2578  1.1219  0.3543
  584TIP3   OH223166   4.444   4.950   4.772 -0.4269  0.3526 -0.6122
  584TIP3    H123167   4.526   4.989   4.800 -0.2831 -0.8449  0.7294
  584TIP3    H223168   4.451   4.943   4.677  1.7728 -1.3471 -0.3629
  585TIP3   OH223169   2.309   4.972   4.027  0.1294 -0.0700  0.9851
  585TIP3    H123170   2.215   4.981   4.008 -0.6518 -1.8137  3.6711
  585TIP3    H223171   2.329   5.050   4.079 -0.1097 -0.2391  1.3372
  586TIP3   OH223172   2.592   5.904   5.051  0.5092 -0.4484 -0.4526
  586TIP3    H123173   2.643   5.895   4.971  0.5913 -0.9076 -0.3456
  586TIP3    H223174   2.570   5.815   5.076 -1.0831 -0.2237 -0.9826
  587TIP3   OH223175   3.080   4.237  15.984 -0.4738  0.3048 -0.4692
  587TIP3    H123176   3.139   4.262  15.913  1.1422  0.7134  0.9929
  587TIP3    H223177   3.127   4.169  16.032 -1.4062  0.2631  0.4034
  588TIP3   OH223178   0.083   3.663  14.242 -0.7300  0.0551 -0.3377
  588TIP3    H123179   0.026   3.638  14.315 -1.6958  2.1300 -0.3485
  588TIP3    H223180   0.081   3.759  14.242  0.4232  0.0998 -2.1990
  589TIP3   OH223181   4.333   1.994  13.295  0.0170 -0.1872  0.6154
  589TIP3    H123182   4.257   1.974  13.349 -1.3010 -1.6502 -1.7264
  589TIP3    H223183   4.398   1.928  13.319 -0.7113 -1.0896  0.0960
  590TIP3   OH223184   3.626   1.568  12.265 -0.1999 -0.1565 -0.2795
  590TIP3    H123185   3.671   1.540  12.344 -1.0712 -0.5344  0.0801
  590TIP3    H223186   3.549   1.616  12.296  0.2018  0.9171 -0.8937
  591TIP3   OH223187   0.869   5.079   4.540 -0.1557 -0.8563  0.1382
  591TIP3    H123188   0.808   5.152   4.545  0.4287 -0.2533 -1.3901
  591TIP3    H223189   0.934   5.097   4.608 -0.3768 -0.2979  0.2010
  592TIP3   OH223190   6.560   4.715  16.903 -0.3218 -0.1603 -0.3036
  592TIP3    H123191   6.578   4.655  16.830  0.1882 -0.4701  0.0684
  592TIP3    H223192   6.646   4.753  16.924 -0.9219  1.9826 -1.6447
  593TIP3   OH223193   4.371   3.962  12.218  0.4758  0.2026  0.0629
  593TIP3    H123194   4.305   3.957  12.287 -0.0800 -0.2014 -0.4940
  593TIP3    H223195   4.326   3.931  12.140  1.7692 -1.5340 -0.0105
  594TIP3   OH223196   6.172   1.732  15.215  0.0360 -0.3136  0.4609
  594TIP3    H123197   6.106   1.673  15.179 -0.0964 -0.3362  0.7461
  594TIP3    H223198   6.220   1.763  15.138 -0.8647  0.3790  0.1757
  595TIP3   OH223199   3.232   2.233  13.966 -0.2549  0.3492 -0.3132
  595TIP3    H123200   3.227   2.327  13.950  1.8084  0.8518  1.6525
  595TIP3    H223201   3.272   2.226  14.053  0.7014 -2.3702 -0.9292
  596TIP3   OH223202   0.062   2.835  13.243 -0.5140  0.1320  0.0480
  596TIP3    H123203   0.006   2.864  13.171 -1.9579 -1.9674  0.2744
  596TIP3    H223204   0.070   2.911  13.300 -0.8017  1.2974 -1.4301
  597TIP3   OH223205   1.054   3.127  16.440 -0.1595  0.4882 -0.6868
  597TIP3    H123206   1.120   3.115  16.372 -0.1267  0.5229 -0.6601
  597TIP3    H223207   1.105   3.147  16.519 -0.2227  0.9875 -0.7671
  598TIP3   OH223208   5.628   2.846  16.253  0.2018  0.4626  0.3066
  598TIP3    H123209   5.619   2.854  16.348 -1.3053 -1.5363  0.3565
  598TIP3    H223210   5.707   2.897  16.233  1.3739 -0.2605  2.8054
  599TIP3   OH223211   5.987   2.234  14.260 -0.1277  0.0925  0.2694
  599TIP3    H123212   5.931   2.189  14.323 -0.7952 -0.7558 -0.9136
  599TIP3    H223213   5.951   2.323  14.255 -2.3226 -0.8481 -1.5698
  600TIP3   OH223214   1.931   6.492  11.072 -0.5737  0.8364  0.0770
  600TIP3    H123215   1.878   6.571  11.089  1.4359  1.9510  1.3115
  600TIP3    H223216   1.992   6.519  11.003 -0.1319  0.2435  0.2349
  601TIP3   OH223217   5.238   2.059   3.136 -0.0639 -0.1106  0.1268
  601TIP3    H123218   5.313   2.032   3.188  1.0095  1.1870 -0.7084
  601TIP3    H223219   5.269   2.057   3.045 -1.4867 -1.0207 -0.3674
  602TIP3   OH223220   3.341   0.650   6.038  0.0208 -0.1595 -0.3649
  602TIP3    H123221   3.330   0.710   6.112  0.8891 -0.1219 -0.2614
  602TIP3    H223222   3.336   0.562   6.076 -1.1763 -0.1674 -0.5056
  603TIP3   OH223223   3.089   4.251  16.309  0.1808  0.1944 -0.2866
  603TIP3    H123224   3.116   4.326  16.256  1.9999 -0.4069 -0.2681
  603TIP3    H223225   3.110   4.174  16.255 -0.2156 -0.3470  0.3179
  604TIP3   OH223226   2.666   1.962  11.512 -0.3281 -0.2707 -0.5946
  604TIP3    H123227   2.729   2.012  11.459 -0.2272 -0.2875 -0.4898
  604TIP3    H223228   2.710   1.878  11.527 -0.7356 -0.6128 -1.2682
  605TIP3   OH223229   5.813   4.933  12.767  0.1875  0.5542 -0.1775
  605TIP3    H123230   5.891   4.914  12.714  0.8439  1.7179  0.3743
  605TIP3    H223231   5.821   5.025  12.791 -1.3271  0.6764 -0.0431
  606TIP3   OH223232   5.613   5.108  14.320 -0.0748 -0.0137  0.1481
  606TIP3    H123233   5.678   5.178  14.319 -0.1583  0.0581 -0.5300
  606TIP3    H223234   5.662   5.029  14.296 -0.7240  0.4795 -2.9979
  607TIP3   OH223235   4.643   2.009  13.835  0.3098  0.1563  0.4297
  607TIP3    H123236   4.621   2.100  13.855  0.5654  0.9556 -2.7133
  607TIP3    H223237   4.559   1.967  13.815  0.3785  0.1656  0.1186
  608TIP3   OH223238   6.516   4.486  14.300 -0.4917 -0.3012  0.5855
  608TIP3    H123239   6.440   4.427  14.298 -1.6239  1.1377  0.2749
  608TIP3    H223240   6.479   4.573  14.284  1.0885  0.5687  1.5559
  609TIP3   OH223241   5.053   3.996  13.674 -0.0385  0.3515 -0.3055
  609TIP3    H123242   4.999   4.046  13.613 -0.1860  0.5515 -0.0150
  609TIP3    H223243   5.006   3.913  13.686  1.0814 -0.5764 -2.1368
  610TIP3   OH223244   5.289   3.877  11.985 -0.0254 -0.1340 -0.2833
  610TIP3    H123245   5.358   3.809  11.986  1.0128  0.9191  1.6439
  610TIP3    H223246   5.324   3.945  11.928  0.6798  0.5088  0.8854
  611TIP3   OH223247   1.518   0.971  16.077  0.3979 -0.0703  0.1479
  611TIP3    H123248   1.548   1.062  16.069  0.6133 -0.2254 -0.8904
  611TIP3    H223249   1.460   0.971  16.153  0.7612  0.8381  0.4357
  612TIP3   OH223250   1.803   6.580  12.492 -0.7785 -0.2336  0.1504
  612TIP3    H123251   1.719   6.534  12.493 -0.6268 -0.6122 -1.9142
  612TIP3    H223252   1.861   6.527  12.547 -0.6158 -2.5049 -2.1515
  613TIP3   OH223253   2.197   4.805  16.140 -0.3850  0.7211 -0.1034
  613TIP3    H123254   2.115   4.769  16.107 -0.9626  1.1155  0.8976
  613TIP3    H223255   2.176   4.894  16.165 -0.2332  0.0983  2.3540
  614TIP3   OH223256   2.661   0.623   3.520  0.0193  1.0353  0.0678
  614TIP3    H123257   2.601   0.698   3.519 -1.8261 -0.4030  0.7058
  614TIP3    H223258   2.634   0.572   3.596  1.5459 -0.0622 -0.1094
  615TIP3   OH223259   2.793   5.413  11.428  0.3241  0.0936  0.2573
  615TIP3    H123260   2.747   5.354  11.369 -0.8299  0.3465  0.8879
  615TIP3    H223261   2.858   5.358  11.472 -0.4595 -0.6134  0.5336
  616TIP3   OH223262   0.175   2.194   0.481 -0.3453 -0.7089  0.5578
  616TIP3    H123263   0.238   2.227   0.417 -0.6250  1.3249  1.3108
  616TIP3    H223264   0.209   2.108   0.506  0.2232 -1.1707 -1.6739
  617TIP3   OH223265   2.511   4.721   3.291  0.2511 -0.3472  0.1459
  617TIP3    H123266   2.578   4.776   3.331  1.5155 -1.9568  0.2414
  617TIP3    H223267   2.523   4.733   3.196  0.3737 -0.3048  0.1675
  618TIP3   OH223268   3.220   0.219   3.175  0.3736  0.3577  0.0345
  618TIP3    H123269   3.230   0.306   3.214  1.2204  0.0566  0.5090
  618TIP3    H223270   3.186   0.164   3.245  1.5725 -0.1045  0.2734
  619TIP3   OH223271   0.139   6.464   1.368 -0.1504  0.2125  0.0176
  619TIP3    H123272   0.191   6.384   1.361 -2.1083 -1.0847 -0.0611
  619TIP3    H223273   0.119   6.487   1.278 -0.9144 -0.1013  0.1060
  620TIP3   OH223274   2.922   2.109  14.463  0.1680  0.5676  0.4034
  620TIP3    H123275   2.921   2.068  14.377 -0.1188  1.9904 -0.2823
  620TIP3    H223276   2.835   2.091  14.500  0.7317 -1.1430  0.9423
  621TIP3   OH223277   2.548   2.893   1.011  0.1646 -0.3389  0.2135
  621TIP3    H123278   2.453   2.883   1.009  0.0782  0.0924  1.7875
  621TIP3    H223279   2.579   2.839   0.938 -1.3466  0.3537 -0.9658
  622TIP3   OH223280   4.480   5.143  16.453  0.0012 -0.0112  0.1343
  622TIP3    H123281   4.396   5.140  16.497 -0.8810  0.4266 -1.4616
  622TIP3    H223282   4.527   5.216  16.493 -0.6394  0.1494  0.5836
  623TIP3   OH223283   5.458   4.248  12.692 -0.1842 -0.4155 -0.3727
  623TIP3    H123284   5.475   4.179  12.755 -1.1489  0.3239  0.7388
  623TIP3    H223285   5.434   4.324  12.746 -1.0702  0.2165 -1.6176
  624TIP3   OH223286   4.596   5.447   1.279  0.3136 -0.1986 -0.3344
  624TIP3    H123287   4.685   5.413   1.269  0.2336 -0.5117 -0.0079
  624TIP3    H223288   4.539   5.374   1.256  0.1356 -0.6595  1.4585
  625TIP3   OH223289   0.259   4.614   2.176 -0.0779  0.0992 -0.2626
  625TIP3    H123290   0.340   4.575   2.142 -0.1028  0.5365 -0.8307
  625TIP3    H223291   0.264   4.706   2.149 -1.8660 -0.3714 -2.3620
  626TIP3   OH223292   5.768   3.354   3.714  0.0320 -0.3699 -0.3906
  626TIP3    H123293   5.785   3.386   3.802  0.7463 -1.3188 -0.1712
  626TIP3    H223294   5.683   3.391   3.691 -0.0343  0.1040  0.5894
  627TIP3   OH223295   3.184   6.236   2.528  0.2937  0.3490  0.7255
  627TIP3    H123296   3.234   6.304   2.573  0.9124  0.1915  0.2852
  627TIP3    H223297   3.250   6.179   2.489 -0.2169  1.0228 -1.1987
  628TIP3   OH223298   6.598   3.766   4.562  0.5388 -0.7833 -0.4042
  628TIP3    H123299   6.632   3.687   4.519  0.7067 -0.5604 -0.6820
  628TIP3    H223300   6.658   3.781   4.635  1.4262 -0.0163 -1.2791
  629TIP3   OH223301   5.796   2.351  16.958  0.0642  0.0108  0.1347
  629TIP3    H123302   5.816   2.400  17.038 -1.8135 -1.0451  1.2950
  629TIP3    H223303   5.797   2.417  16.889 -0.4999  1.3419  1.3662
  630TIP3   OH223304   3.970   4.031  16.251 -0.2844  0.4170  0.1003
  630TIP3    H123305   3.984   4.050  16.158 -1.6440  0.6010 -0.0735
  630TIP3    H223306   4.055   3.999  16.282 -0.3381 -1.5761 -1.6806
  631TIP3   OH223307   0.554   0.210   0.209 -0.2359 -0.5893 -0.3436
  631TIP3    H123308   0.535   0.133   0.156  0.0727  0.6387 -2.2765
  631TIP3    H223309   0.468   0.241   0.237 -0.5530  0.0175 -1.9578
  632TIP3   OH223310   3.181   5.011   1.412 -0.1038  0.3285  0.1058
  632TIP3    H123311   3.183   4.926   1.369 -1.6935  0.9951 -1.3328
  632TIP3    H223312   3.111   5.005   1.477  0.2415  0.3292  0.4840
  633TIP3   OH223313   6.176   1.378  14.279  0.0453  0.0622  0.1551
  633TIP3    H123314   6.215   1.448  14.332  2.0353 -1.2591  0.5114
  633TIP3    H223315   6.082   1.385  14.295  0.4719  0.7459  2.5824
  634TIP3   OH223316   3.394   4.650  10.765  0.6070 -0.2324 -0.6104
  634TIP3    H123317   3.487   4.655  10.745  0.2981  2.6044 -1.6272
  634TIP3    H223318   3.370   4.740  10.787 -2.3968 -0.4218 -2.7780
  635TIP3   OH223319   1.685   5.729   2.494 -0.2886 -0.0051 -0.0301
  635TIP3    H123320   1.646   5.788   2.429  2.7305  2.2193  0.0934
  635TIP3    H223321   1.776   5.720   2.466 -0.2866 -3.3716  0.8853
  636TIP3   OH223322   2.991   1.876  14.992  0.0612  0.2976 -0.1852
  636TIP3    H123323   3.086   1.879  15.002  0.1853  0.4559 -1.3782
  636TIP3    H223324   2.975   1.811  14.924 -0.6835  0.2448  0.0338
  637TIP3   OH223325   3.629   4.749  11.701  0.3917  0.4455 -0.1972
  637TIP3    H123326   3.620   4.844  11.704 -2.8798  0.1947  0.2749
  637TIP3    H223327   3.599   4.724  11.614  0.2980 -0.2191  0.0176
  638TIP3   OH223328   1.776   5.714  13.948 -0.4490 -0.0327 -0.1774
  638TIP3    H123329   1.740   5.758  13.871  1.5819  0.3059 -0.9673
  638TIP3    H223330   1.857   5.672  13.917 -1.0556 -2.2894  1.1139
  639TIP3   OH223331   6.299   3.009   0.352 -0.1082  0.5159  0.0560
  639TIP3    H123332   6.326   2.960   0.274  3.0189  1.0166  0.7233
  639TIP3    H223333   6.303   2.945   0.422 -0.6576  0.6112  0.1745
  640TIP3   OH223334   6.278   1.443  15.014  0.6939 -0.5258  0.1373
  640TIP3    H123335   6.263   1.359  14.971  1.7055 -0.1365 -1.0017
  640TIP3    H223336   6.195   1.490  15.007  1.5843  0.5823 -3.7574
  641TIP3   OH223337   0.240   5.568  12.601 -0.2456  0.0360  0.2632
  641TIP3    H123338   0.233   5.663  12.597  1.4108  0.1715  0.2969
  641TIP3    H223339   0.253   5.541  12.510 -1.2385 -0.2152  0.1875
  642TIP3   OH223340   6.661   2.834   1.597  0.1041 -0.0884  0.1650
  642TIP3    H123341   6.598   2.801   1.534 -2.1484  0.7017  1.9242
  642TIP3    H223342   6.625   2.918   1.625  2.5795  0.9631  0.3206
  643TIP3   OH223343   3.701   5.396  15.050 -0.0435 -0.1069  0.0192
  643TIP3    H123344   3.666   5.307  15.052  0.6777 -0.4631 -2.1619
  643TIP3    H223345   3.771   5.393  14.985 -0.2064  2.1359 -0.3008
  644TIP3   OH223346   4.207   4.079   6.199  0.1465  0.0487  0.5045
  644TIP3    H123347   4.296   4.046   6.195 -0.3056 -1.4847  2.3295
  644TIP3    H223348   4.218   4.173   6.218  1.3752  0.1282 -0.5519
  645TIP3   OH223349   2.121   2.643   1.189  0.4813 -0.1002  0.8605
  645TIP3    H123350   2.216   2.629   1.190  0.3275 -1.1609  0.9355
  645TIP3    H223351   2.088   2.592   1.263 -0.1284  0.4255  0.9575
  646TIP3   OH223352   1.641   0.035   3.085  0.0828 -0.5626  0.7515
  646TIP3    H123353   1.674  -0.054   3.073 -0.3387 -0.5013 -1.0062
  646TIP3    H223354   1.552   0.023   3.117  0.2744 -0.7751  1.1991
  647TIP3   OH223355   5.320   2.919   1.049 -0.1886  0.1318 -0.0514
  647TIP3    H123356   5.339   2.838   1.001  2.3126  1.1541 -0.8801
  647TIP3    H223357   5.403   2.966   1.050 -1.4663  2.4527  0.8952
  648TIP3   OH223358   6.295   4.267  11.843 -0.0103  0.1030  0.1692
  648TIP3    H123359   6.388   4.266  11.868 -0.5702 -0.0997  2.3215
  648TIP3    H223360   6.248   4.283  11.925 -1.8098  1.8432 -1.1529
  649TIP3   OH223361   1.196   6.741   2.515 -0.2011  0.6048 -0.0216
  649TIP3    H123362   1.248   6.663   2.497  2.3106  2.1741  0.1164
  649TIP3    H223363   1.117   6.708   2.558 -0.0574 -1.9858 -1.6659
  650TIP3   OH223364   4.386   3.726  12.558  0.5334  0.3830  0.2657
  650TIP3    H123365   4.340   3.810  12.563 -0.4950 -0.2098  0.7538
  650TIP3    H223366   4.351   3.684  12.479 -0.9759 -0.7708  1.5187
  651TIP3   OH223367   2.806   2.380  12.093 -0.5105 -0.2625 -0.1368
  651TIP3    H123368   2.797   2.446  12.161  0.7731  0.3181 -0.5100
  651TIP3    H223369   2.861   2.312  12.133  0.1414  0.0212 -0.5456
  652TIP3   OH223370   3.083   2.930   0.384 -0.1381 -0.2296 -0.2992
  652TIP3    H123371   3.094   2.852   0.330  0.6154 -1.4411  1.5397
  652TIP3    H223372   3.163   2.980   0.372  1.5014 -2.0970  2.1202
  653TIP3   OH223373   3.019   6.041  16.565  0.3029  0.4905  0.6353
  653TIP3    H123374   3.111   6.015  16.570  0.6147  0.8339 -2.4104
  653TIP3    H223375   2.983   5.988  16.494 -1.8564  0.4117  1.7416
  654TIP3   OH223376   0.973   2.666  14.906 -0.8154  0.1583 -0.3334
  654TIP3    H123377   1.050   2.696  14.857 -0.8629  0.9081  0.0324
  654TIP3    H223378   1.006   2.648  14.994 -0.8511 -0.5647 -0.4705
  655TIP3   OH223379   4.845   1.510   0.573  0.4329  0.3371  0.5350
  655TIP3    H123380   4.843   1.506   0.477 -0.6131 -1.8327  0.6199
  655TIP3    H223381   4.761   1.547   0.597  0.9238  1.4262  0.6165
  656TIP3   OH223382   2.714   4.852  17.056 -0.1598 -0.0620 -0.0746
  656TIP3    H123383   2.641   4.800  17.090 -0.3163 -0.6461 -1.2591
  656TIP3    H223384   2.754   4.892  17.133  1.1181 -3.4143  1.0645
  657TIP3   OH223385   1.673   2.247   0.005  0.3818  0.5425  0.1177
  657TIP3    H123386   1.628   2.169   0.036 -0.0565  0.1822 -1.3999
  657TIP3    H223387   1.620   2.320   0.038 -0.4314  0.1495 -0.3019
  658TIP3   OH223388   2.025   5.745   1.997  0.3057 -0.0086  0.0958
  658TIP3    H123389   2.091   5.814   2.002 -0.5912  0.9560 -0.9358
  658TIP3    H223390   2.036   5.708   1.909 -1.2076  0.8818 -0.4859
  659TIP3   OH223391   4.184   1.733   3.283 -0.8492 -0.2262  0.3834
  659TIP3    H123392   4.200   1.646   3.319 -2.2178 -0.4010  0.5640
  659TIP3    H223393   4.108   1.722   3.226  0.0658  0.4805 -0.9806
  660TIP3   OH223394   0.911   2.849  16.210  0.1567 -0.3020 -0.7726
  660TIP3    H123395   0.895   2.842  16.115  0.6920 -3.7666 -0.6735
  660TIP3    H223396   1.004   2.868  16.217  0.4253 -1.5328 -0.9273
  661TIP3   OH223397   5.376   4.515  10.514 -0.3378 -0.1607  0.5360
  661TIP3    H123398   5.348   4.605  10.498 -0.2532  0.0353  1.4271
  661TIP3    H223399   5.330   4.463  10.448 -3.7110 -0.0059  2.6550
  662TIP3   OH223400   0.360   1.714   6.110 -0.0383 -0.0399  0.2338
  662TIP3    H123401   0.452   1.736   6.123  0.0766  0.4391 -1.2911
  662TIP3    H223402   0.311   1.779   6.161  0.4137  0.9654 -0.6095
  663TIP3   OH223403   3.491   0.565   2.152 -0.4060  0.8300 -0.6349
  663TIP3    H123404   3.424   0.534   2.092 -1.2042  1.8933 -0.3118
  663TIP3    H223405   3.513   0.489   2.205  0.9579 -0.3549 -2.8459
  664TIP3   OH223406   2.367   5.028  17.121 -0.1873 -0.0565 -0.7376
  664TIP3    H123407   2.294   5.064  17.173 -0.4244 -0.1519 -1.0025
  664TIP3    H223408   2.440   5.086  17.140  0.4609 -1.6029  1.7892
  665TIP3   OH223409   2.755   0.718   0.300  0.4289  0.1339  0.0319
  665TIP3    H123410   2.664   0.692   0.317  0.7780 -0.2180  1.4204
  665TIP3    H223411   2.806   0.639   0.318  0.9365  0.0208 -1.7480
  666TIP3   OH223412   1.431   3.038  16.009  0.0408 -0.3612  0.1328
  666TIP3    H123413   1.496   2.967  16.012  2.5524  1.8685  1.2164
  666TIP3    H223414   1.360   3.008  16.065  1.5188 -1.6221  1.3930
  667TIP3   OH223415   2.418   3.643   4.414 -0.6571  0.5022 -0.7303
  667TIP3    H123416   2.429   3.722   4.360 -0.1050 -0.0964 -1.5004
  667TIP3    H223417   2.393   3.575   4.351  0.4784 -0.3206 -0.3078
  668TIP3   OH223418   3.565   2.322  16.484 -0.3402 -0.2969  0.3227
  668TIP3    H123419   3.584   2.342  16.392  0.5956  1.1921  0.8374
  668TIP3    H223420   3.594   2.231  16.494  0.4270 -0.1688 -0.6140
  669TIP3   OH223421   0.019   6.692  10.851  0.4017 -0.0697 -0.3925
  669TIP3    H123422   0.112   6.688  10.871  0.6989  0.7857 -1.5705
  669TIP3    H223423   0.010   6.763  10.788 -1.0528 -0.1318 -0.2908
  670TIP3   OH223424   3.994   4.044   4.752 -0.3173  0.2615 -0.3726
  670TIP3    H123425   4.031   4.083   4.831 -0.7807  1.6680 -0.8369
  670TIP3    H223426   3.940   4.113   4.714 -1.0463 -0.7909 -1.2935
  671TIP3   OH223427   0.361   2.823   1.645  0.3632 -0.4630 -0.1031
  671TIP3    H123428   0.335   2.891   1.582  1.6053  2.5037  2.4275
  671TIP3    H223429   0.279   2.780   1.668 -1.0695  2.6463  0.9108
  672TIP3   OH223430   4.944   1.808  15.812 -0.9528  0.4280 -0.6948
  672TIP3    H123431   5.026   1.851  15.836  0.2531 -1.3454 -1.5224
  672TIP3    H223432   4.931   1.742  15.881  0.6116 -2.2085 -2.8349
  673TIP3   OH223433   1.207   0.827  15.094 -0.6505 -0.6754  0.0410
  673TIP3    H123434   1.286   0.800  15.140 -1.1114 -2.2076 -0.0215
  673TIP3    H223435   1.231   0.907  15.048  0.3891 -0.2304  1.3270
  674TIP3   OH223436   2.708   1.017  12.051 -0.2351  0.3402 -0.1351
  674TIP3    H123437   2.802   1.029  12.066 -0.4514  2.0788 -0.0631
  674TIP3    H223438   2.667   1.090  12.097 -1.5373  0.3465 -1.2730
  675TIP3   OH223439   3.236   1.745  14.459 -0.2592  0.2145 -0.2545
  675TIP3    H123440   3.221   1.838  14.474  0.5094  0.3885 -0.5046
  675TIP3    H223441   3.278   1.714  14.540 -0.7954  0.0211 -0.0536
  676TIP3   OH223442   0.604   0.365   3.383  0.5062  0.0219 -0.4839
  676TIP3    H123443   0.670   0.394   3.446  0.2310  1.9484 -1.0500
  676TIP3    H223444   0.595   0.271   3.399  1.3766  0.2436  1.4610
  677TIP3   OH223445   1.979   2.751  16.850 -0.0236  0.4528  0.3607
  677TIP3    H123446   1.930   2.820  16.804 -0.1860 -0.0844 -0.2772
  677TIP3    H223447   1.917   2.679  16.858 -0.1173  0.6686  1.7715
  678TIP3   OH223448   0.431   6.692  12.338  0.2298 -0.2448  0.3224
  678TIP3    H123449   0.446   6.711  12.245  0.4113  2.2900  0.8376
  678TIP3    H223450   0.410   6.777  12.377  1.5243 -1.0452  2.8626
  679TIP3   OH223451   2.185   5.096  11.079 -0.1599 -0.1225  0.1427
  679TIP3    H123452   2.253   5.146  11.034  1.6641 -0.4792  2.3656
  679TIP3    H223453   2.214   5.005  11.073  0.1327 -0.1719  1.9998
  680TIP3   OH223454   2.253   5.223   4.699  0.0456 -0.0233 -0.4605
  680TIP3    H123455   2.263   5.294   4.635  1.2640 -0.7820 -1.1338
  680TIP3    H223456   2.295   5.256   4.778 -4.0981  2.1196  0.9572
  681TIP3   OH223457   1.043   0.263   3.596 -0.5336  0.0181 -0.3806
  681TIP3    H123458   1.052   0.210   3.675  0.8171  0.0391 -0.5227
  681TIP3    H223459   1.102   0.337   3.609 -1.9054  1.1634 -0.4761
  682TIP3   OH223460   1.301   2.066   1.341  0.6248  0.5248  0.3828
  682TIP3    H123461   1.394   2.046   1.343 -0.2103 -4.0492 -1.1968
  682TIP3    H223462   1.274   2.060   1.433  1.6164  0.7592  0.7018
  683TIP3   OH223463   0.108   4.015  13.160  0.0917  0.3438 -0.2785
  683TIP3    H123464   0.090   3.944  13.222  2.0491  1.5054  1.6846
  683TIP3    H223465   0.022   4.052  13.141 -0.6529 -0.6813  0.9336
  684TIP3   OH223466   3.904   0.583  13.341 -0.1266  0.2464  0.2186
  684TIP3    H123467   3.999   0.582  13.327 -0.5389 -1.3077 -2.8960
  684TIP3    H223468   3.870   0.632  13.266 -1.9026 -0.6011  0.4502
  685TIP3   OH223469   4.375   4.768   3.732  0.3848 -1.0715 -0.0472
  685TIP3    H123470   4.461   4.771   3.690  0.0044 -1.7508 -0.8996
  685TIP3    H223471   4.340   4.681   3.709 -0.0518 -1.2560  1.2385
  686TIP3   OH223472   1.795   2.252  16.337  0.7722  0.0720  0.3396
  686TIP3    H123473   1.713   2.210  16.365  0.6563 -1.3136 -1.9026
  686TIP3    H223474   1.768   2.337  16.302  0.2367 -0.4785 -0.6156
  687TIP3   OH223475   6.418   0.052   2.586 -0.0389  0.2212  0.6719
  687TIP3    H123476   6.455   0.087   2.667  1.3070  1.9701 -0.6632
  687TIP3    H223477   6.362   0.122   2.553 -0.1662 -0.2896 -0.1993
  688TIP3   OH223478   6.246   4.949   1.019 -0.6292  0.4833  0.0915
  688TIP3    H123479   6.303   4.915   1.089 -0.2442  0.3120 -0.3027
  688TIP3    H223480   6.304   4.958   0.943 -1.4444 -1.1171 -0.7497
  689TIP3   OH223481   3.508   1.553  14.848 -0.1147  0.3658 -0.5716
  689TIP3    H123482   3.510   1.493  14.922  1.3812  0.2904 -0.6529
  689TIP3    H223483   3.573   1.619  14.869  0.5932  0.1356 -1.9736
  690TIP3   OH223484   5.211   6.743  15.432  0.3277 -0.8110 -0.3836
  690TIP3    H123485   5.219   6.749  15.527 -2.1458 -2.5586  0.0036
  690TIP3    H223486   5.159   6.819  15.407 -1.9649 -2.1581  0.1445
  691TIP3   OH223487   5.589   6.269   4.964 -0.1622 -0.7567  0.4336
  691TIP3    H123488   5.632   6.195   4.921 -1.0371 -0.1768 -1.4977
  691TIP3    H223489   5.497   6.258   4.943 -0.4073  0.4095  0.8758
  692TIP3   OH223490   4.406   1.908   3.947 -0.6664  0.2824 -0.5147
  692TIP3    H123491   4.452   1.826   3.929 -0.1933 -0.4648  3.5667
  692TIP3    H223492   4.314   1.886   3.935 -0.6415 -1.2857  1.6592
  693TIP3   OH223493   1.482   3.783   3.338  0.3923 -0.1963 -0.0660
  693TIP3    H123494   1.524   3.706   3.376  0.4489  0.0578  0.3886
  693TIP3    H223495   1.551   3.823   3.285  0.2423 -0.6832 -0.6369
  694TIP3   OH223496   3.877   2.695  12.164  0.6916  0.3628 -0.4662
  694TIP3    H123497   3.802   2.741  12.202  0.4859  0.7695 -1.3244
  694TIP3    H223498   3.953   2.747  12.191  0.6925 -0.2075  0.6337
  695TIP3   OH223499   6.386   4.007  10.569  0.4164 -0.0458 -0.2305
  695TIP3    H123500   6.462   3.964  10.608 -0.6732 -0.6858  1.2414
  695TIP3    H223501   6.381   4.091  10.615 -1.0676 -0.9392  1.2929
  696TIP3   OH223502   6.548   6.723  17.058 -0.0369  0.1617 -0.2346
  696TIP3    H123503   6.636   6.751  17.032  0.0554 -1.1416 -1.3602
  696TIP3    H223504   6.491   6.795  17.030  0.5642  0.6225 -0.2842
  697TIP3   OH223505   5.076   6.055  11.015 -0.0816  0.1325 -0.0960
  697TIP3    H123506   5.015   6.119  10.977 -0.5633 -0.2250  0.0659
  697TIP3    H223507   5.068   6.068  11.110 -0.5499 -0.5043 -0.0460
  698TIP3   OH223508   0.609   2.462  12.884 -0.4798 -0.3643 -0.3183
  698TIP3    H123509   0.653   2.379  12.867 -0.9485 -0.7695  0.4324
  698TIP3    H223510   0.526   2.454  12.836 -0.3910 -0.1994 -0.5021
  699TIP3   OH223511   0.379   4.406  12.913  0.0666 -0.5021  0.1211
  699TIP3    H123512   0.301   4.352  12.901  0.9153 -1.6118 -0.4853
  699TIP3    H223513   0.413   4.418  12.825 -0.0183  0.8987  0.2746
  700TIP3   OH223514   2.257   5.476  12.567  0.6699 -0.0678 -0.1633
  700TIP3    H123515   2.165   5.501  12.570  0.1442 -1.9585  0.0925
  700TIP3    H223516   2.303   5.547  12.614 -0.9245 -0.3225  1.8575
  701TIP3   OH223517   3.393   3.098   3.582  0.4257 -0.0588 -0.7564
  701TIP3    H123518   3.339   3.132   3.654  0.5062  1.6389 -1.4600
  701TIP3    H223519   3.363   3.008   3.570 -0.2638 -0.0490  0.7546
  702TIP3   OH223520   2.825   2.385   5.715 -0.1011  0.0264  0.1414
  702TIP3    H123521   2.852   2.344   5.798  0.3063 -0.5323 -0.2681
  702TIP3    H223522   2.762   2.324   5.678 -2.6301  1.7065  1.4903
  703TIP3   OH223523   3.076   3.883  14.905 -0.0463  0.7090 -0.3311
  703TIP3    H123524   3.037   3.929  14.830  0.8117 -0.4570 -1.5149
  703TIP3    H223525   3.053   3.791  14.891 -1.0159  0.6342  1.5641
  704TIP3   OH223526   3.011   2.010   2.148 -0.0521  0.6361 -0.2116
  704TIP3    H123527   2.958   2.084   2.178 -1.7096 -0.4261 -0.3979
  704TIP3    H223528   3.068   1.989   2.222  0.2506  1.9284 -0.0674
  705TIP3   OH223529   5.568   4.440   1.269 -0.0053  0.3919  0.3337
  705TIP3    H123530   5.539   4.366   1.322  0.3562  0.2451  0.3286
  705TIP3    H223531   5.518   4.515   1.302 -0.4433  0.1241  0.2681
  706TIP3   OH223532   0.086   5.573  16.840  0.0587  0.8501 -0.6350
  706TIP3    H123533   0.012   5.557  16.782 -0.5857  2.5053 -0.2925
  706TIP3    H223534   0.076   5.510  16.911 -2.2057  2.3927  0.4810
  707TIP3   OH223535   5.778   3.481  11.697 -0.5360  0.1699 -0.3541
  707TIP3    H123536   5.847   3.450  11.755 -0.0807  0.1165 -0.9161
  707TIP3    H223537   5.777   3.418  11.625  0.5331  1.5469 -1.6136
  708TIP3   OH223538   0.937   5.255   0.553  0.4248  0.4059  0.9623
  708TIP3    H123539   1.029   5.275   0.574  0.7984 -0.2543 -0.0090
  708TIP3    H223540   0.935   5.161   0.539 -0.4255  0.4024  1.0810
  709TIP3   OH223541   3.852   6.062   3.313 -0.4709  0.2804  0.8954
  709TIP3    H123542   3.925   6.054   3.252 -1.9130  0.8215 -0.9507
  709TIP3    H223543   3.892   6.055   3.400  1.6455 -0.2771 -0.0988
  710TIP3   OH223544   5.832   6.419   1.058 -0.4949  0.5812  0.4142
  710TIP3    H123545   5.908   6.437   1.114  0.4197  0.0469 -0.6581
  710TIP3    H223546   5.777   6.361   1.111  0.3584  0.0904  0.7728
  711TIP3   OH223547   5.524   1.691  14.940  0.4489 -0.0287  0.2015
  711TIP3    H123548   5.453   1.755  14.934 -0.5214 -1.1384 -0.6503
  711TIP3    H223549   5.573   1.716  15.018 -1.3696  0.2981  1.2832
  712TIP3   OH223550   3.658   0.419  14.080  0.0520  0.1830  0.2979
  712TIP3    H123551   3.631   0.509  14.096 -0.0479  0.2445 -0.2275
  712TIP3    H223552   3.706   0.422  13.998  1.8153  0.1035  1.3102
  713TIP3   OH223553   4.584   0.273   5.315 -0.3248  0.0654  0.4201
  713TIP3    H123554   4.654   0.300   5.374 -1.0586  1.1875  0.7968
  713TIP3    H223555   4.536   0.205   5.362  0.0415 -0.1614  0.4672
  714TIP3   OH223556   2.482   0.013  10.185 -0.3008 -0.5281 -0.0628
  714TIP3    H123557   2.504  -0.061  10.129  0.3108  1.2204 -2.2224
  714TIP3    H223558   2.566   0.053  10.207 -0.6136 -0.5507  1.1861
  715TIP3   OH223559   5.803   5.582   4.476 -1.0387 -0.1346 -0.0921
  715TIP3    H123560   5.789   5.660   4.529 -2.4543 -0.5730  0.2039
  715TIP3    H223561   5.745   5.516   4.514  0.1082 -1.3204 -0.3660
  716TIP3   OH223562   1.117   4.109   1.668  0.2029 -0.4795  0.2443
  716TIP3    H123563   1.200   4.063   1.653  1.2117  1.5144 -0.4175
  716TIP3    H223564   1.142   4.192   1.708 -1.4039  0.5834 -0.8855
  717TIP3   OH223565   0.313   3.601  14.328 -0.3698  0.3664  0.0179
  717TIP3    H123566   0.364   3.523  14.304 -0.5024 -1.1860  4.3572
  717TIP3    H223567   0.222   3.576  14.312 -0.2164  0.7400 -1.4588
  718TIP3   OH223568   4.508   4.986   2.882 -0.2333  0.0883 -0.1287
  718TIP3    H123569   4.429   5.039   2.875  0.3313  0.6834 -2.0661
  718TIP3    H223570   4.488   4.905   2.836  0.8102  0.8757 -2.0105
  719TIP3   OH223571   3.392   0.244  13.452  0.6644  0.0164 -0.0888
  719TIP3    H123572   3.340   0.214  13.527  2.3075 -0.9494  0.7042
  719TIP3    H223573   3.464   0.181  13.447  1.5726  1.1324 -1.3613
  720TIP3   OH223574   2.848   4.334  16.718  0.5374  0.7292 -0.0256
  720TIP3    H123575   2.892   4.414  16.689 -1.0132  1.1462 -1.2765
  720TIP3    H223576   2.757   4.345  16.690 -0.0455 -0.7719  1.2122
  721TIP3   OH223577   4.567   4.842   0.720  0.4680  0.6081  0.2583
  721TIP3    H123578   4.600   4.798   0.642 -1.0422 -0.1139  0.0061
  721TIP3    H223579   4.602   4.792   0.793  0.2215  0.0529 -0.0017
  722TIP3   OH223580   0.086   1.117  16.760  0.0428 -0.1095  0.2058
  722TIP3    H123581   0.076   1.111  16.855  0.9364  0.3202  0.3400
  722TIP3    H223582   0.004   1.155  16.729 -0.2311 -0.1970  0.8145
  723TIP3   OH223583   5.910   6.262   5.191  0.2434 -0.0907  0.2727
  723TIP3    H123584   5.888   6.195   5.255  0.3205 -0.7080 -0.3432
  723TIP3    H223585   5.944   6.335   5.243 -0.4991 -0.2490  1.0049
  724TIP3   OH223586   5.970   6.217   1.974 -0.2492  0.2671  0.5180
  724TIP3    H123587   5.877   6.228   1.992 -0.4469 -0.8251  0.2086
  724TIP3    H223588   5.973   6.177   1.887  0.5125  0.4526  0.4529
  725TIP3   OH223589   2.003   5.332   3.290 -0.0630  0.2007 -0.1789
  725TIP3    H123590   2.040   5.244   3.298  2.8682  1.3645 -0.6464
  725TIP3    H223591   1.976   5.338   3.199  1.5724  0.4684 -0.6587
  726TIP3   OH223592   3.388   5.978   6.445  0.3695  0.0996  0.1155
  726TIP3    H123593   3.329   6.044   6.483  2.2403  1.1900  1.2023
  726TIP3    H223594   3.433   6.024   6.374  2.1471  0.2422  1.2873
  727TIP3   OH223595   2.287   3.710   0.155  0.0494 -0.3202  0.2237
  727TIP3    H123596   2.266   3.617   0.162 -0.7393 -0.0305  1.9627
  727TIP3    H223597   2.203   3.754   0.154  0.4292  0.4199  0.2495
  728TIP3   OH223598   3.798   1.287   2.721 -0.1949 -0.1568 -0.7308
  728TIP3    H123599   3.735   1.239   2.774 -1.8946  2.0973 -0.6434
  728TIP3    H223600   3.794   1.246   2.634  0.4457 -1.9456  0.0716
  729TIP3   OH223601   3.912   6.227  14.816  0.4285 -0.0044 -0.1485
  729TIP3    H123602   3.887   6.134  14.823 -0.0376  0.0640 -0.7666
  729TIP3    H223603   3.834   6.269  14.779  1.4445  0.2190 -2.1333
  730TIP3   OH223604   5.235   0.138   0.563 -0.4872  0.1129 -0.1537
  730TIP3    H123605   5.242   0.098   0.477  0.9670  0.2797 -0.1236
  730TIP3    H223606   5.257   0.068   0.624  0.0250  0.4051 -0.0004
  731TIP3   OH223607   3.723   4.602   1.799 -0.3442  0.3191 -0.7954
  731TIP3    H123608   3.686   4.515   1.813 -0.6371  0.6084  0.2495
  731TIP3    H223609   3.679   4.658   1.863  0.8078  0.9609 -0.5406
  732TIP3   OH223610   3.238   4.933   5.218  0.1690  0.3035 -0.6785
  732TIP3    H123611   3.275   4.974   5.141  0.6363 -1.3575 -1.3613
  732TIP3    H223612   3.311   4.887   5.259 -0.4572 -0.3216 -0.2499
  733TIP3   OH223613   1.702   0.045  16.257  0.0340 -0.1727  0.5228
  733TIP3    H123614   1.673  -0.034  16.211  1.1111  0.6034 -1.5522
  733TIP3    H223615   1.624   0.101  16.259  0.4305  0.5747 -2.1501
  734TIP3   OH223616   5.412   5.410   4.412 -0.1190 -0.7814  0.2350
  734TIP3    H123617   5.425   5.328   4.459  1.6069 -0.9091 -0.4148
  734TIP3    H223618   5.438   5.391   4.322 -0.8998  0.1491 -0.1993
  735TIP3   OH223619   0.222   3.057   1.499 -0.2194  0.6237  0.4278
  735TIP3    H123620   0.150   3.109   1.534 -0.7160 -0.2993  0.7806
  735TIP3    H223621   0.181   2.999   1.434  0.5460  1.6621 -1.0185
  736TIP3   OH223622   4.486   5.759  14.948 -0.4892 -1.0250  0.2842
  736TIP3    H123623   4.468   5.771  15.041 -0.5416  0.1095  0.1364
  736TIP3    H223624   4.408   5.715  14.913 -2.0325  1.7107  0.1080
  737TIP3   OH223625   4.538   0.176   3.487  0.0551 -0.5212  0.7394
  737TIP3    H123626   4.570   0.157   3.399 -1.3695  0.1425  0.0517
  737TIP3    H223627   4.538   0.272   3.493  1.1104 -0.5841  1.8345
  738TIP3   OH223628   1.682   2.026   2.184 -0.3788 -0.2847  0.2192
  738TIP3    H123629   1.655   2.040   2.275  0.0256 -0.0852  0.3078
  738TIP3    H223630   1.749   2.092   2.169  0.1039 -0.8271  0.0074
  739TIP3   OH223631   0.262   2.726   4.495 -0.0053 -0.0553  0.2512
  739TIP3    H123632   0.226   2.643   4.527 -1.3342  0.5146  0.2658
  739TIP3    H223633   0.343   2.701   4.450 -0.6166 -1.4162 -0.1176
  740TIP3   OH223634   4.897   3.252   5.880 -0.7344  0.1704  0.0135
  740TIP3    H123635   4.949   3.274   5.803 -0.0961 -0.5647  0.2296
  740TIP3    H223636   4.961   3.220   5.943 -1.5884 -1.9829 -0.1870
  741TIP3   OH223637   1.619   6.701   3.543  0.4422  0.7790  0.2421
  741TIP3    H123638   1.633   6.761   3.469 -1.1583  0.1183 -0.6309
  741TIP3    H223639   1.579   6.623   3.503  2.3356 -0.8299  1.3752
  742TIP3   OH223640   5.980   2.847   5.301 -0.2662  0.0075  0.2566
  742TIP3    H123641   5.982   2.776   5.365 -0.1323 -0.4785 -0.2903
  742TIP3    H223642   5.974   2.804   5.216  2.0895  0.5750 -0.2255
  743TIP3   OH223643   5.365   3.659  15.629 -0.6320 -0.6366 -0.0601
  743TIP3    H123644   5.295   3.692  15.573 -0.7407 -0.1362  0.3663
  743TIP3    H223645   5.343   3.691  15.717  0.5984  0.2967 -0.0686
  744TIP3   OH223646   1.531   2.930   1.961  0.4837  0.1147 -0.5135
  744TIP3    H123647   1.526   2.991   2.035 -0.7684  1.5015 -1.7044
  744TIP3    H223648   1.554   2.846   2.001 -2.3463  0.3111  1.7594
  745TIP3   OH223649   0.838   5.344  14.790 -0.0125  0.0321  0.4729
  745TIP3    H123650   0.766   5.350  14.853 -0.4668 -2.8978  0.3007
  745TIP3    H223651   0.903   5.289  14.834  1.2987  1.0731 -0.1524
  746TIP3   OH223652   1.493   6.655  14.130 -0.5586  0.1939  0.5289
  746TIP3    H123653   1.407   6.652  14.089  0.5006  0.3246 -1.8131
  746TIP3    H223654   1.552   6.680  14.059  1.1922  1.6952  2.4583
  747TIP3   OH223655   2.389   4.841  14.762 -0.7583 -0.5140  0.3924
  747TIP3    H123656   2.334   4.889  14.701  1.7520  1.2659 -0.5486
  747TIP3    H223657   2.391   4.752  14.728 -0.5578  0.1270 -1.2931
  748TIP3   OH223658   3.028   2.709   3.434  0.8458 -0.5201 -0.4608
  748TIP3    H123659   3.057   2.646   3.500 -1.4338 -0.8225  0.2903
  748TIP3    H223660   2.939   2.681   3.411 -0.0283  2.0978 -0.4773
  749TIP3   OH223661   3.714   1.548  15.985 -0.0159 -0.2122 -0.4557
  749TIP3    H123662   3.800   1.520  16.016 -0.1258  0.7357  0.7715
  749TIP3    H223663   3.703   1.636  16.022 -1.5097 -0.3292 -0.5903
  750TIP3   OH223664   1.764   4.742   2.184  1.0310  0.0454  0.3451
  750TIP3    H123665   1.697   4.716   2.248 -0.4841  3.2506  0.1207
  750TIP3    H223666   1.819   4.804   2.230  0.1892  2.0594 -1.2747
  751TIP3   OH223667   4.753   4.328  15.110  0.3542 -0.4038  0.0535
  751TIP3    H123668   4.693   4.270  15.158  2.8362 -2.1101  1.1793
  751TIP3    H223669   4.798   4.377  15.178  2.4156 -1.3545 -0.5914
  752TIP3   OH223670   4.894   0.065  15.667 -0.1812  0.2599 -0.4849
  752TIP3    H123671   4.949   0.081  15.590 -1.0136 -0.9320 -1.3536
  752TIP3    H223672   4.889  -0.031  15.673 -0.8085  0.3496  0.5517
  753TIP3   OH223673   3.369   1.684   4.592 -0.0858  0.2094 -0.0647
  753TIP3    H123674   3.288   1.729   4.567 -0.3205 -0.0319  0.2531
  753TIP3    H223675   3.356   1.593   4.563  0.2844  0.2874 -0.4812
  754TIP3   OH223676   2.432   0.212  15.350  0.0022  0.3973 -0.6081
  754TIP3    H123677   2.377   0.258  15.287  0.4756  0.8647 -0.6904
  754TIP3    H223678   2.500   0.276  15.373  0.2654 -0.0277 -0.1979
  755TIP3   OH223679   3.619   3.845  11.856 -0.4095 -0.3976 -0.5967
  755TIP3    H123680   3.629   3.795  11.775  0.1921 -0.2586 -0.6158
  755TIP3    H223681   3.605   3.935  11.827 -0.6490 -0.4189 -0.5506
  756TIP3   OH223682   1.740   1.821  15.962 -0.9120 -0.3685  0.0269
  756TIP3    H123683   1.755   1.804  15.869 -0.7845  0.5300 -0.1209
  756TIP3    H223684   1.798   1.760  16.008  1.7561  1.7149 -0.5125
  757TIP3   OH223685   5.597   3.357  12.878 -0.0560 -0.0275 -0.0046
  757TIP3    H123686   5.613   3.450  12.894  1.7939 -0.5286  1.1348
  757TIP3    H223687   5.518   3.356  12.824 -0.2378  2.1907  0.1674
  758TIP3   OH223688   2.561   5.956   0.239 -0.1306  0.7135  0.2868
  758TIP3    H123689   2.505   5.952   0.317 -0.9862 -0.6514 -0.3869
  758TIP3    H223690   2.534   5.882   0.186  0.6149  1.4996 -1.2203
  759TIP3   OH223691   6.331   4.452  16.796  0.4317  0.6752  0.1329
  759TIP3    H123692   6.337   4.361  16.767  0.2962  0.7422 -0.1143
  759TIP3    H223693   6.419   4.474  16.827  0.2733  0.2316  0.8825
  760TIP3   OH223694   2.906   1.715   3.872  0.4443 -0.6094 -0.4751
  760TIP3    H123695   2.825   1.746   3.913  0.9824  0.6063 -0.3158
  760TIP3    H223696   2.959   1.683   3.945  0.1705 -1.2988 -0.5682
  761TIP3   OH223697   5.413   6.413   4.112 -0.2388  0.3212 -0.1247
  761TIP3    H123698   5.436   6.321   4.097  1.4299  0.9036 -1.1846
  761TIP3    H223699   5.349   6.410   4.184  1.2986 -1.4994  1.1978
  762TIP3   OH223700   2.635   3.337   5.461  0.0387 -0.6315  0.1348
  762TIP3    H123701   2.613   3.366   5.372  0.4076 -2.4622 -0.5535
  762TIP3    H223702   2.560   3.367   5.514  0.0753  0.9635 -0.6583
  763TIP3   OH223703   4.486   0.202  15.267  0.4151 -0.0964  0.6441
  763TIP3    H123704   4.510   0.293  15.251 -1.0119  0.4039  1.2593
  763TIP3    H223705   4.563   0.151  15.241  0.5081  1.1462 -1.5448
  764TIP3   OH223706   4.319   5.018   3.776  0.1834  0.3225 -0.5482
  764TIP3    H123707   4.283   5.027   3.687 -1.7161 -0.4432  0.1127
  764TIP3    H223708   4.329   4.924   3.789 -3.3633  0.1297  1.4574
  765TIP3   OH223709   6.190   4.202   3.675  0.9803 -0.5214  0.4592
  765TIP3    H123710   6.216   4.287   3.712  2.2936 -1.2081  1.1390
  765TIP3    H223711   6.108   4.180   3.720 -0.4271  1.2675 -1.1009
  766TIP3   OH223712   1.393   6.197   4.263 -0.1281 -0.0050  0.3589
  766TIP3    H123713   1.432   6.123   4.217 -0.9003 -0.6587  0.7497
  766TIP3    H223714   1.372   6.260   4.194 -1.8084 -1.2189 -0.2507
  767TIP3   OH223715   6.282   2.363  12.464  0.0579 -0.1023 -0.0540
  767TIP3    H123716   6.288   2.456  12.446 -0.3583 -0.2058 -0.7239
  767TIP3    H223717   6.347   2.323  12.406  0.2333 -0.2372  0.2291
  768TIP3   OH223718   1.359   3.262  10.385 -0.0859  0.0526  0.2810
  768TIP3    H123719   1.282   3.206  10.373 -0.7810  1.0469  0.0012
  768TIP3    H223720   1.382   3.252  10.477  2.5630 -4.1880 -0.7361
  769TIP3   OH223721   4.789   0.064   6.198 -0.1608  0.4216  0.2398
  769TIP3    H123722   4.730   0.013   6.142  1.0271 -0.6518 -0.0629
  769TIP3    H223723   4.861   0.004   6.217  0.4471  1.4596  1.2549
  770TIP3   OH223724   0.009   5.574  15.433 -0.3608 -0.3102 -0.3197
  770TIP3    H123725  -0.063   5.598  15.491 -1.5417 -0.7553 -1.5697
  770TIP3    H223726   0.027   5.482  15.454  0.8314  0.2040  0.9967
  771TIP3   OH223727   0.837   0.680  11.239  0.1972 -0.4592 -0.1143
  771TIP3    H123728   0.915   0.703  11.288 -0.3293  0.0721  0.4899
  771TIP3    H223729   0.869   0.662  11.150  1.5018 -4.0918  1.0289
  772TIP3   OH223730   6.136   2.783   5.668 -0.4505  0.2142 -0.2610
  772TIP3    H123731   6.072   2.733   5.617 -1.1877  0.8526  0.0236
  772TIP3    H223732   6.176   2.719   5.726 -0.1456 -0.3746 -1.1113
  773TIP3   OH223733   4.988   0.432   0.789 -0.3570 -0.2078 -0.0591
  773TIP3    H123734   4.975   0.343   0.754 -0.1600 -1.1658  2.2295
  773TIP3    H223735   5.083   0.443   0.788 -0.4186  0.2927 -1.0625
  774TIP3   OH223736   3.963   6.615  10.834 -0.4399  0.1473  0.0749
  774TIP3    H123737   3.996   6.668  10.762  0.2693 -0.3669  0.0104
  774TIP3    H223738   4.009   6.648  10.911 -0.7467  0.2987  0.1898
  775TIP3   OH223739   6.429   4.806   5.143  0.0365  0.3433  0.4617
  775TIP3    H123740   6.442   4.722   5.098 -2.2815  0.9365 -1.4065
  775TIP3    H223741   6.334   4.811   5.157 -0.1553  3.7049 -1.5901
  776TIP3   OH223742   4.729   0.144   6.456  0.0103 -0.2739 -0.2395
  776TIP3    H123743   4.782   0.121   6.379  3.5046  0.0847  1.9494
  776TIP3    H223744   4.738   0.069   6.515  1.9654  1.6867  2.0776
  777TIP3   OH223745   0.770   2.308  16.255  0.5002 -0.1775 -0.3583
  777TIP3    H123746   0.814   2.250  16.317  1.2550  0.0296 -0.6981
  777TIP3    H223747   0.838   2.368  16.225 -0.6092  2.0032  1.2908
  778TIP3   OH223748   2.591   5.062  12.997  0.3820 -0.9834 -0.6606
  778TIP3    H123749   2.577   4.975  12.960 -0.3320 -1.0422 -0.2572
  778TIP3    H223750   2.535   5.065  13.074  0.6595 -0.2852 -0.4766
  779TIP3   OH223751   1.412   5.231  11.380 -0.1385  0.1755  0.2979
  779TIP3    H123752   1.461   5.296  11.330 -0.5224  0.9489  0.9106
  779TIP3    H223753   1.475   5.160  11.396  0.6488  0.9466  0.6704
  780TIP3   OH223754   4.595   2.593   1.664  0.5316  0.2474  0.0239
  780TIP3    H123755   4.649   2.531   1.614 -0.0872 -1.5530  1.5262
  780TIP3    H223756   4.609   2.569   1.755  1.0199  2.9912  0.7052
  781TIP3   OH223757   2.596   1.296   1.118 -0.0232 -0.0732 -0.2143
  781TIP3    H123758   2.597   1.331   1.207  0.3337  2.2346 -1.0902
  781TIP3    H223759   2.678   1.248   1.110 -0.0226 -0.2355  0.6568
  782TIP3   OH223760   2.349   1.839  11.564 -0.1646 -0.4782 -0.3942
  782TIP3    H123761   2.296   1.801  11.494 -1.3117 -1.3056  0.8854
  782TIP3    H223762   2.324   1.790  11.643  0.6525  0.8197  0.7092
  783TIP3   OH223763   1.648   1.441   5.345 -0.3085  0.4056 -0.1887
  783TIP3    H123764   1.679   1.509   5.286 -1.5955  0.6524 -0.5974
  783TIP3    H223765   1.653   1.361   5.294  0.3773  0.3175  0.0061
  784TIP3   OH223766   2.323   1.180   3.432  0.2340  0.5483 -0.5198
  784TIP3    H123767   2.273   1.260   3.447 -0.5874 -0.1340  0.5484
  784TIP3    H223768   2.256   1.112   3.424  0.9670 -0.3511  0.7448
  785TIP3   OH223769   2.825   3.800   2.780  0.3727 -0.0080 -0.6736
  785TIP3    H123770   2.815   3.791   2.874 -1.5055 -1.2633 -0.9629
  785TIP3    H223771   2.878   3.725   2.753  1.6031  0.7899 -0.5401
  786TIP3   OH223772   4.745   5.451  13.828 -0.5024 -0.2374 -0.4280
  786TIP3    H123773   4.796   5.488  13.900  0.2883  0.3106 -1.2629
  786TIP3    H223774   4.671   5.511  13.818  0.7731  1.1330 -1.7763
  787TIP3   OH223775   1.959   6.042  10.730  0.3514 -0.8427  0.1002
  787TIP3    H123776   1.916   6.002  10.806  0.7691  1.9743  1.9070
  787TIP3    H223777   1.954   5.976  10.662  0.0483 -3.5243  2.6118
  788TIP3   OH223778   4.094   3.250   3.713  0.3509 -0.7870 -0.6309
  788TIP3    H123779   4.081   3.342   3.734  1.5479 -0.6349 -0.4738
  788TIP3    H223780   4.015   3.224   3.666  0.5286  0.6513 -1.7658
  789TIP3   OH223781   3.241   5.886   3.566  0.4724  0.3993  0.6341
  789TIP3    H123782   3.228   5.951   3.497 -0.3529 -1.3183 -0.8752
  789TIP3    H223783   3.318   5.837   3.539 -0.0043 -0.4480  0.7781
  790TIP3   OH223784   6.464   6.488   3.307 -0.3276  0.1754 -0.9200
  790TIP3    H123785   6.492   6.529   3.389  0.1409  1.4127 -1.6773
  790TIP3    H223786   6.380   6.448   3.328  0.6530 -1.0977  0.6334
  791TIP3   OH223787   3.364   2.872  16.592 -0.2584 -0.1923  0.2585
  791TIP3    H123788   3.415   2.806  16.545  0.5214 -0.0281  0.8644
  791TIP3    H223789   3.347   2.939  16.526 -0.1090 -0.4758 -0.0739
  792TIP3   OH223790   5.325   3.655   2.512 -0.2115  0.0839 -0.0029
  792TIP3    H123791   5.262   3.719   2.478  0.2757  0.0532 -1.0002
  792TIP3    H223792   5.387   3.706   2.563  0.3663  0.4580 -1.0690
  793TIP3   OH223793   3.822   3.861   0.409 -0.1733 -0.2368  0.6789
  793TIP3    H123794   3.904   3.885   0.453 -0.6765  0.1881  1.3813
  793TIP3    H223795   3.824   3.765   0.407  0.1094 -0.2426  1.1356
  794TIP3   OH223796   3.675   3.406  14.411 -0.3985  0.0389  0.1821
  794TIP3    H123797   3.654   3.312  14.411 -0.0105 -0.0470 -0.0726
  794TIP3    H223798   3.745   3.415  14.347 -0.4358  0.5065  0.2076
  795TIP3   OH223799   4.001   1.052  10.546  0.2482 -0.1175 -0.0601
  795TIP3    H123800   3.967   1.004  10.621  0.3335 -1.0631 -0.6191
  795TIP3    H223801   3.986   1.144  10.568  0.8636 -0.3565  1.3895
  796TIP3   OH223802   1.629   4.950   3.083 -0.2849  0.1474 -0.4897
  796TIP3    H123803   1.622   4.930   3.176  1.1657 -0.9049 -0.5842
  796TIP3    H223804   1.635   5.046   3.080  0.5887  0.1383  0.5753
  797TIP3   OH223805   2.857   5.592   1.693  0.3796 -0.2164 -0.9194
  797TIP3    H123806   2.887   5.683   1.690  0.2002 -0.0116  2.1703
  797TIP3    H223807   2.938   5.541   1.701  0.4832 -0.3645 -2.6958
  798TIP3   OH223808   0.345   5.108   4.475  0.4449 -0.0560 -0.3613
  798TIP3    H123809   0.307   5.093   4.561 -1.1512  1.2599 -0.8237
  798TIP3    H223810   0.278   5.079   4.413  1.2720 -0.2766 -1.1646
  799TIP3   OH223811   4.176   4.716  11.216  0.1210 -0.5015 -0.6752
  799TIP3    H123812   4.207   4.626  11.226 -2.0170 -1.2667 -0.6865
  799TIP3    H223813   4.132   4.717  11.131  1.6683  1.0328 -1.4860
  800TIP3   OH223814   0.930   5.014   0.428  0.1702  0.0869 -0.6116
  800TIP3    H123815   0.904   5.014   0.336  1.3767 -0.7015 -0.9723
  800TIP3    H223816   0.966   4.927   0.442 -1.3065 -0.2723  0.9950
  801TIP3   OH223817   0.188   3.998  16.983  0.4855 -0.5595  0.4322
  801TIP3    H123818   0.157   3.923  16.932 -2.1971  0.3499  0.6210
  801TIP3    H223819   0.224   4.058  16.918  1.4213 -1.4393  0.1311
  802TIP3   OH223820   4.715   0.596  13.107 -0.2838 -0.3196 -0.7492
  802TIP3    H123821   4.637   0.649  13.093 -0.6930 -0.8884 -0.6656
  802TIP3    H223822   4.787   0.651  13.078 -0.3158  1.7979  2.8995
  803TIP3   OH223823   1.347   6.005   3.822  1.1326  0.4292  0.1243
  803TIP3    H123824   1.362   6.028   3.730  0.7172  0.8834  0.1718
  803TIP3    H223825   1.252   6.004   3.832  1.1299 -1.3855  0.1051
  804TIP3   OH223826   5.599   0.131  15.105  0.4521 -0.0906  0.1624
  804TIP3    H123827   5.596   0.214  15.152  1.2089 -0.2598  0.5118
  804TIP3    H223828   5.540   0.074  15.154 -0.7797  0.5110 -0.6092
  805TIP3   OH223829   3.144   6.338  12.606  0.2522 -0.3556 -0.0205
  805TIP3    H123830   3.216   6.376  12.555  0.7302 -0.5990  0.4724
  805TIP3    H223831   3.179   6.255  12.639 -2.0715 -3.2362 -4.3499
  806TIP3   OH223832   5.974   0.149   1.397 -0.4432  0.7452 -0.2546
  806TIP3    H123833   5.961   0.090   1.323 -1.8481  1.4109 -0.5507
  806TIP3    H223834   6.026   0.221   1.361 -0.3619  0.6283 -0.3718
  807TIP3   OH223835   5.823   6.231   5.488  0.1393 -0.0584  0.0842
  807TIP3    H123836   5.822   6.302   5.553  1.7062 -0.0846  0.1542
  807TIP3    H223837   5.807   6.152   5.539 -0.5471  0.1257  0.1584
  808TIP3   OH223838   1.285   5.920   0.746 -0.0628  0.0862 -0.7025
  808TIP3    H123839   1.352   5.857   0.774 -1.3187 -0.2827  1.6004
  808TIP3    H223840   1.305   5.999   0.796  1.9357  1.8353 -4.1082
  809TIP3   OH223841   0.944   2.500   3.111 -0.4937 -0.4712 -0.4119
  809TIP3    H123842   0.912   2.411   3.122 -1.8084  0.0022 -0.2930
  809TIP3    H223843   0.982   2.502   3.024 -1.6122 -0.8094 -0.9125
  810TIP3   OH223844   2.019   4.291  12.150 -0.7409 -0.1133 -0.7395
  810TIP3    H123845   1.926   4.270  12.145 -0.1908 -2.1941 -2.9632
  810TIP3    H223846   2.031   4.364  12.090 -0.8561 -0.1080 -0.7556
  811TIP3   OH223847   1.852   6.377  13.949  0.2698 -0.0900  0.3109
  811TIP3    H123848   1.757   6.373  13.933  0.3792  2.4149 -1.1270
  811TIP3    H223849   1.891   6.392  13.863  2.0389 -1.6817  0.8113
  812TIP3   OH223850   3.395   1.140   5.771  0.3047 -0.1450  0.1156
  812TIP3    H123851   3.470   1.198   5.758  1.1406 -1.5857 -1.7519
  812TIP3    H223852   3.322   1.199   5.790  1.7787  1.3009  1.3982
  813TIP3   OH223853   3.909   2.536  13.990 -0.4005 -0.6659  0.7263
  813TIP3    H123854   3.817   2.552  13.969  0.1075  0.6945 -0.5473
  813TIP3    H223855   3.919   2.441  13.983 -1.3196 -0.6665 -0.7506
  814TIP3   OH223856   2.187   2.940   4.426  0.0222 -0.4131 -0.1398
  814TIP3    H123857   2.101   2.906   4.448 -0.2910  0.1258 -0.5207
  814TIP3    H223858   2.190   3.026   4.468 -0.1725  0.1689 -1.3045
  815TIP3   OH223859   2.197   3.147  16.709 -0.2093  0.2459  0.0240
  815TIP3    H123860   2.246   3.069  16.736 -2.1947 -0.5810  1.3721
  815TIP3    H223861   2.194   3.201  16.787 -1.6160  0.1864  0.0175
  816TIP3   OH223862   1.901   5.293   5.180 -0.1437 -0.5808 -0.4450
  816TIP3    H123863   1.897   5.207   5.221 -2.4178  0.0553  0.8094
  816TIP3    H223864   1.886   5.354   5.252  1.0442  0.8535 -1.3844
  817TIP3   OH223865   2.019   4.708  12.474  0.2531  0.3670 -1.0838
  817TIP3    H123866   1.935   4.753  12.474 -0.2206 -0.4014  2.1140
  817TIP3    H223867   1.998   4.616  12.456  0.4009  0.2079 -0.4784
  818TIP3   OH223868   1.360   4.836  16.703 -0.2523  0.0650 -0.6946
  818TIP3    H123869   1.371   4.822  16.797 -0.5706  0.5625 -0.5814
  818TIP3    H223870   1.443   4.807  16.664 -0.6032 -1.3975 -0.3986
  819TIP3   OH223871   3.895   2.739   3.343 -0.0325  0.3144  0.0328
  819TIP3    H123872   3.811   2.753   3.388 -0.3466 -0.5261 -0.2931
  819TIP3    H223873   3.958   2.730   3.414 -0.3880 -0.1099  0.3035
  820TIP3   OH223874   5.672   1.868  14.341 -0.0790 -0.5969  0.0622
  820TIP3    H123875   5.692   1.775  14.334 -0.1710 -0.5516 -0.9931
  820TIP3    H223876   5.756   1.912  14.328 -0.4496 -0.4719 -2.0778
  821TIP3   OH223877   5.984   1.199   3.308 -0.7091  0.3781  0.7718
  821TIP3    H123878   5.948   1.115   3.279 -0.0572  0.5729 -0.6429
  821TIP3    H223879   5.965   1.259   3.236  2.6389  0.4182 -0.1615
  822TIP3   OH223880   0.061   1.482  16.679 -0.1305 -0.1691 -0.0694
  822TIP3    H123881  -0.029   1.480  16.647  0.2927 -2.1214 -1.2440
  822TIP3    H223882   0.109   1.533  16.614 -0.2262  0.0923  0.0668
  823TIP3   OH223883   5.158   0.907  14.875  0.2732 -0.4251 -0.1712
  823TIP3    H123884   5.194   0.860  14.950  0.3323  0.7067  0.5192
  823TIP3    H223885   5.113   0.840  14.825 -0.3816 -1.0773  1.2543
  824TIP3   OH223886   5.209   0.793   3.924 -0.4381 -0.0664 -0.7619
  824TIP3    H123887   5.114   0.792   3.929 -0.3491 -0.9394  1.3563
  824TIP3    H223888   5.237   0.848   3.998  0.7511 -2.1413  0.3915
  825TIP3   OH223889   2.363   3.415  14.765 -0.1313 -0.8903 -0.6054
  825TIP3    H123890   2.410   3.425  14.682  0.1604 -1.3272 -0.4909
  825TIP3    H223891   2.380   3.496  14.813 -1.9776  0.2712 -1.8189
  826TIP3   OH223892   0.520   0.656   0.290  0.0684 -0.1672 -0.4011
  826TIP3    H123893   0.559   0.717   0.352 -1.8828  1.0238 -0.2977
  826TIP3    H223894   0.451   0.612   0.340  0.1670 -1.0495 -1.0279
  827TIP3   OH223895   1.269   4.784   4.360 -0.0722  0.0913  0.3904
  827TIP3    H123896   1.307   4.712   4.309 -0.0190 -0.0947  0.6938
  827TIP3    H223897   1.175   4.772   4.351 -0.0754 -0.7185  1.4269
  828TIP3   OH223898   2.441   0.683   5.691 -0.0806 -0.0419  0.5063
  828TIP3    H123899   2.387   0.758   5.715 -1.3290 -0.5729 -0.6306
  828TIP3    H223900   2.454   0.692   5.597 -1.7581 -2.2335  0.0391
  829TIP3   OH223901   2.019   2.886   1.114  0.0522  0.4221 -0.0625
  829TIP3    H123902   1.981   2.926   1.192  0.1329 -0.8072  0.6184
  829TIP3    H223903   2.057   2.803   1.145 -0.9899 -0.6715 -1.6203
  830TIP3   OH223904   1.119   3.570  13.913  0.3359 -0.1081 -0.1959
  830TIP3    H123905   1.137   3.608  13.827 -1.7714 -0.3817 -0.8029
  830TIP3    H223906   1.086   3.643  13.966  0.1539 -0.2492 -0.1128
  831TIP3   OH223907   5.538   1.830  15.649 -0.3443  0.5719  0.4582
  831TIP3    H123908   5.599   1.900  15.672 -0.8538  1.2228 -0.1170
  831TIP3    H223909   5.514   1.791  15.733  1.7241 -0.4493  0.6039
  832TIP3   OH223910   3.994   0.768   3.049  0.4208  0.3042 -0.0355
  832TIP3    H123911   3.968   0.785   3.139  1.0939 -0.7689  0.3739
  832TIP3    H223912   3.924   0.713   3.014 -0.3836  1.6219 -0.5087
  833TIP3   OH223913   4.886   3.201  15.424 -0.0320 -0.8051  0.0264
  833TIP3    H123914   4.817   3.257  15.458  0.5094  1.7454 -2.8520
  833TIP3    H223915   4.841   3.121  15.398 -0.8037 -1.8489  4.2109
  834TIP3   OH223916   1.111   0.358   2.085  0.0465  0.0590 -0.0216
  834TIP3    H123917   1.051   0.302   2.036 -0.0964 -0.1337  0.3641
  834TIP3    H223918   1.177   0.385   2.022 -0.5219  0.3798 -0.4847
  835TIP3   OH223919   4.934   5.253  15.025  0.1498 -0.0332  0.6073
  835TIP3    H123920   5.028   5.257  15.012 -0.1116 -0.0933 -1.3574
  835TIP3    H223921   4.923   5.248  15.120  2.1083  0.0895  0.8480
  836TIP3   OH223922   5.666   0.747   3.721 -0.4070 -0.0342  0.7102
  836TIP3    H123923   5.585   0.697   3.730 -0.2287 -0.6910 -1.0059
  836TIP3    H223924   5.691   0.735   3.629  1.4857  0.3813  1.1404
  837TIP3   OH223925   0.074   3.776   5.953 -0.3472  0.4868  0.5259
  837TIP3    H123926   0.136   3.833   5.998  0.7164 -0.9875  0.9800
  837TIP3    H223927   0.001   3.766   6.015 -0.1286  0.6417  0.8062
  838TIP3   OH223928   6.253   6.344   0.979 -1.0040  0.3642  0.2912
  838TIP3    H123929   6.291   6.360   0.892  0.7739  3.5580  1.5610
  838TIP3    H223930   6.327   6.313   1.031 -1.7442 -0.1443  1.0481
  839TIP3   OH223931   3.885   3.997   2.360 -0.2368  0.4063  0.0715
  839TIP3    H123932   3.899   4.028   2.270 -1.0896 -1.4054 -0.6943
  839TIP3    H223933   3.944   3.922   2.369 -2.1082 -1.0703  0.1375
  840TIP3   OH223934   0.834   3.928   0.351 -0.6808  0.1347  0.2353
  840TIP3    H123935   0.807   4.002   0.297  0.3459  0.5625  0.3143
  840TIP3    H223936   0.895   3.965   0.415  0.2977 -0.8834 -0.0941
  841TIP3   OH223937   0.937   4.308   1.888  0.1959 -0.8390 -0.6626
  841TIP3    H123938   0.928   4.393   1.845 -0.9696 -1.1858 -1.1245
  841TIP3    H223939   0.861   4.302   1.946  1.8600 -0.2844  1.6517
  842TIP3   OH223940   4.986   5.705  11.576 -0.2396 -0.1132  0.2503
  842TIP3    H123941   5.015   5.636  11.637  0.8166  0.1666  0.0817
  842TIP3    H223942   5.042   5.780  11.597  0.0272  0.0357 -0.9517
  843TIP3   OH223943   3.512   1.337  11.092 -0.3705  0.3030  0.4695
  843TIP3    H123944   3.533   1.430  11.096  2.4086 -0.2446 -0.2065
  843TIP3    H223945   3.541   1.302  11.176 -2.3334  0.1980  1.1267
  844TIP3   OH223946   6.015   6.637  12.706 -0.9020  0.5147  0.0359
  844TIP3    H123947   6.097   6.588  12.716 -0.5554  1.4584  2.0406
  844TIP3    H223948   5.947   6.569  12.699 -0.0967 -0.2613 -0.3100
  845TIP3   OH223949   1.707   6.147  14.836  0.1480  0.6437 -0.1311
  845TIP3    H123950   1.773   6.183  14.777  1.5513  0.4324  1.3000
  845TIP3    H223951   1.732   6.056  14.849 -3.1191 -0.8735 -3.3406
  846TIP3   OH223952   2.268   4.185  11.010 -0.6912  0.1537  0.2633
  846TIP3    H123953   2.199   4.242  11.045 -0.1959  2.4118 -2.2996
  846TIP3    H223954   2.346   4.241  11.007 -0.4140 -0.3349 -3.1669
  847TIP3   OH223955   0.049   5.433  16.098 -0.2886  0.0871  0.3430
  847TIP3    H123956   0.022   5.428  16.006 -0.0279  2.7047  0.0649
  847TIP3    H223957  -0.003   5.506  16.133 -0.0385 -0.5896  2.1510
  848TIP3   OH223958   4.512   6.246   1.135 -0.2637  0.5890 -0.4600
  848TIP3    H123959   4.518   6.234   1.230  0.4889 -1.1840 -0.7142
  848TIP3    H223960   4.597   6.214   1.102 -1.4580 -1.1413 -1.9345
  849TIP3   OH223961   3.545   2.773  12.528 -0.2908  0.3532 -0.2425
  849TIP3    H123962   3.572   2.793  12.618 -1.7064  0.4513  0.1779
  849TIP3    H223963   3.561   2.680  12.519 -1.3387  0.0737  0.5692
  850TIP3   OH223964   3.096   5.827  12.370 -0.3586  0.2454 -0.5793
  850TIP3    H123965   3.066   5.824  12.279  1.6849  0.1369 -1.2761
  850TIP3    H223966   3.065   5.744  12.407 -0.7215  0.0272 -1.3414
  851TIP3   OH223967   5.690   3.566   0.859 -0.0600  0.4294 -0.6116
  851TIP3    H123968   5.723   3.603   0.941  2.4328  2.1579 -2.3473
  851TIP3    H223969   5.599   3.596   0.854 -0.1082  0.6859  1.2640
  852TIP3   OH223970   4.498   1.779  17.150  0.2099  0.4740 -0.1531
  852TIP3    H123971   4.527   1.749  17.064  0.2694  1.1836 -0.3896
  852TIP3    H223972   4.436   1.850  17.131 -2.0503 -1.3170  0.3309
  853TIP3   OH223973   3.817   6.564  12.002  0.0996 -0.5560 -0.2845
  853TIP3    H123974   3.741   6.613  12.033  0.2509 -0.3175 -0.2880
  853TIP3    H223975   3.801   6.553  11.908 -0.6626 -1.8287 -0.0053
  854TIP3   OH223976   1.854   3.011  12.272 -0.4306  0.0921 -0.5575
  854TIP3    H123977   1.806   3.094  12.279  0.1320  0.2649  1.5289
  854TIP3    H223978   1.804   2.960  12.208 -0.6264  2.1285 -2.0842
  855TIP3   OH223979   1.910   0.503  10.783  0.9180  0.0189  0.5693
  855TIP3    H123980   1.994   0.502  10.738 -0.1785  0.5259 -1.5555
  855TIP3    H223981   1.892   0.410  10.801  0.5067 -0.4087 -1.7989
  856TIP3   OH223982   1.966   1.191  14.019 -0.2484  0.2529 -0.2480
  856TIP3    H123983   2.037   1.221  14.077  1.6129  0.7582 -2.6955
  856TIP3    H223984   1.950   1.101  14.046  1.9789 -0.1652 -0.2491
  857TIP3   OH223985   2.598   0.630   5.000 -0.0738  1.2184 -0.7722
  857TIP3    H123986   2.552   0.547   5.011  0.3783  1.3441  2.4162
  857TIP3    H223987   2.690   0.607   4.998  0.0165  1.5745 -0.7841
  858TIP3   OH223988   3.459   2.459  12.904 -0.2520 -0.2194 -0.2537
  858TIP3    H123989   3.531   2.514  12.874  0.1306  0.0371  1.0865
  858TIP3    H223990   3.487   2.369  12.886 -0.0266 -0.0683 -0.6411
  859TIP3   OH223991   1.300   2.931   2.904  0.2812 -0.3663  0.0552
  859TIP3    H123992   1.296   2.936   2.809 -0.5793  2.9065  0.1658
  859TIP3    H223993   1.383   2.972   2.927 -0.1102  0.0844  0.7131
  860TIP3   OH223994   0.577   0.976   3.139  0.1460 -0.1775 -0.2514
  860TIP3    H123995   0.566   0.968   3.044  0.6119  1.9569 -0.5098
  860TIP3    H223996   0.625   0.897   3.164 -0.9980 -1.3271 -1.6122
  861TIP3   OH223997   6.697   3.805  12.367 -0.5837 -0.2827 -0.0980
  861TIP3    H123998   6.781   3.810  12.411 -0.0437  0.3891 -1.2007
  861TIP3    H223999   6.703   3.866  12.294 -1.7333 -0.8177 -0.6693
  862TIP3   OH224000   2.325   6.348   0.119 -0.0719  0.1947 -0.6209
  862TIP3    H124001   2.410   6.327   0.081  1.5168  0.1602  2.7527
  862TIP3    H224002   2.290   6.264   0.150  0.3970  0.6898  1.3205
  863TIP3   OH224003   2.631   0.758  14.899  0.0678  0.3197 -0.4070
  863TIP3    H124004   2.543   0.787  14.923 -0.5443 -2.1390  0.4230
  863TIP3    H224005   2.688   0.805  14.959 -1.1149 -2.1889  2.8124
  864TIP3   OH224006   5.304   3.320   1.885 -0.0496 -0.1205  0.0643
  864TIP3    H124007   5.284   3.374   1.808  2.3342  1.1142  0.2489
  864TIP3    H224008   5.400   3.318   1.888 -0.0941 -0.2387  2.9424
  865TIP3   OH224009   2.950   6.548  14.797 -0.2506  0.5046 -0.3506
  865TIP3    H124010   2.925   6.552  14.890  0.9005  0.9763 -0.0546
  865TIP3    H224011   2.994   6.463  14.788  1.1227  1.1678 -0.0717
  866TIP3   OH224012   1.844   0.115  12.330 -0.0178 -0.3725  0.0496
  866TIP3    H124013   1.919   0.132  12.387 -1.3585  1.7699  1.2309
  866TIP3    H224014   1.882   0.072  12.253  2.0410 -1.7837  1.7983
  867TIP3   OH224015   1.629   5.790   0.565  0.1524  0.0859 -0.6082
  867TIP3    H124016   1.595   5.701   0.566 -0.7295  0.4182  0.1882
  867TIP3    H224017   1.650   5.810   0.656  1.2167  0.3658 -0.9124
  868TIP3   OH224018   3.420   3.840   2.868 -0.1539  0.2615  0.5627
  868TIP3    H124019   3.392   3.870   2.782 -1.7459  0.5486  1.1604
  868TIP3    H224020   3.403   3.745   2.867 -0.1829  0.2665  0.5539
  869TIP3   OH224021   4.295   4.516   5.133  0.7713  0.0894  0.0905
  869TIP3    H124022   4.365   4.574   5.103  0.1410  1.0517  0.4619
  869TIP3    H224023   4.277   4.545   5.222 -1.7674  1.4683 -0.8165
  870TIP3   OH224024   6.721   1.267  14.239 -0.1345  0.2854 -0.2202
  870TIP3    H124025   6.756   1.349  14.271 -0.1928  0.6448 -1.0541
  870TIP3    H224026   6.678   1.227  14.314 -0.9269  1.4588 -0.0394
  871TIP3   OH224027   4.125   3.699  11.011  0.0459 -0.0736  0.3326
  871TIP3    H124028   4.178   3.704  10.931  0.6370 -0.2631  0.7168
  871TIP3    H224029   4.100   3.607  11.018 -0.2300 -0.0079  0.2204
  872TIP3   OH224030   1.810   4.879  16.042 -0.7415  0.0180  0.1303
  872TIP3    H124031   1.734   4.895  16.098 -0.5717 -1.0269  0.6730
  872TIP3    H224032   1.846   4.796  16.074  0.4276  0.3371 -0.3441
  873TIP3   OH224033   5.054   3.034   2.389  0.0170 -0.2070 -0.5012
  873TIP3    H124034   4.977   2.988   2.356 -0.1147  0.3441 -0.9679
  873TIP3    H224035   5.019   3.093   2.456  0.0603 -0.1107 -0.5633
  874TIP3   OH224036   5.402   5.528  12.607 -0.0610 -0.0823 -0.4512
  874TIP3    H124037   5.476   5.570  12.652  0.8397 -1.4378 -0.6396
  874TIP3    H224038   5.337   5.598  12.598  0.4653  0.6779  1.3302
  875TIP3   OH224039   1.991   0.160  15.408 -0.0790  0.0620  0.0341
  875TIP3    H124040   2.037   0.244  15.417  0.2188 -0.0616 -0.3104
  875TIP3    H224041   2.061   0.095  15.409 -0.4273 -0.2959  1.9142
  876TIP3   OH224042   2.834   3.743   5.902 -0.7945  0.5406  0.1075
  876TIP3    H124043   2.817   3.812   5.838  1.6534  1.4443  0.3766
  876TIP3    H224044   2.896   3.684   5.858 -1.1038 -0.2316  0.7067
  877TIP3   OH224045   4.391   6.198   5.462  0.2402 -0.1534  0.1418
  877TIP3    H124046   4.477   6.225   5.429 -0.1902  0.6343 -0.3621
  877TIP3    H224047   4.333   6.271   5.441 -0.9835 -1.4896 -1.3347
  878TIP3   OH224048   3.084   5.240  10.644  1.3593  0.3370 -0.2105
  878TIP3    H124049   3.031   5.317  10.662  1.6077  0.6452 -0.7975
  878TIP3    H224050   3.134   5.226  10.724 -0.5831 -0.7565  0.8601
  879TIP3   OH224051   0.634   3.887   6.613 -0.4250  0.1802  0.5175
  879TIP3    H124052   0.614   3.834   6.536  1.5006  1.8182 -1.1844
  879TIP3    H224053   0.705   3.839   6.657  0.2605  0.5373 -0.1794
  880TIP3   OH224054   5.645   2.320  16.315  0.0405 -0.0619  0.0948
  880TIP3    H124055   5.692   2.284  16.240 -1.3113 -0.8824 -0.3866
  880TIP3    H224056   5.645   2.414  16.301  0.5095 -0.1532 -0.5159
  881TIP3   OH224057   6.122   1.245  13.568 -0.3910  0.1352 -0.8134
  881TIP3    H124058   6.135   1.206  13.481 -0.9322 -2.0800  0.0510
  881TIP3    H224059   6.202   1.223  13.616 -1.0891 -0.7341 -0.0329
  882TIP3   OH224060   3.513   4.126   6.108 -0.3267  0.1088  0.3283
  882TIP3    H124061   3.496   4.034   6.126  0.0631 -0.3189 -1.3705
  882TIP3    H224062   3.431   4.171   6.130 -0.6344 -0.6936  0.8099
  883TIP3   OH224063   0.195   4.651   4.887  0.0757  0.4561  0.4353
  883TIP3    H124064   0.105   4.641   4.858  0.4027 -0.8259 -0.1843
  883TIP3    H224065   0.189   4.701   4.969 -1.1390  0.8915  0.0796
  884TIP3   OH224066   3.803   6.519   3.953 -0.0945  0.3929  0.0146
  884TIP3    H124067   3.845   6.510   3.868 -0.6983  0.5903 -0.3095
  884TIP3    H224068   3.764   6.433   3.971 -0.4248  0.5074 -0.1540
  885TIP3   OH224069   0.308   3.085   6.131 -1.0122  0.1880  0.6441
  885TIP3    H124070   0.213   3.088   6.129 -1.0673 -0.9199  1.0470
  885TIP3    H224071   0.329   2.992   6.122  0.0756  0.5639 -1.0539
  886TIP3   OH224072   6.351   0.422   0.929 -0.0219 -0.2711  0.3759
  886TIP3    H124073   6.389   0.335   0.941 -1.9313 -1.1043  0.6303
  886TIP3    H224074   6.317   0.421   0.839  2.0871  1.0887 -0.4702
  887TIP3   OH224075   2.233   2.463   6.420 -0.3193 -0.2360 -0.3613
  887TIP3    H124076   2.203   2.550   6.444  0.1812 -0.0126 -0.5404
  887TIP3    H224077   2.163   2.427   6.366 -2.3627 -1.4829  2.9841
  888TIP3   OH224078   4.572   6.658   2.357 -0.1680  0.0064 -0.0896
  888TIP3    H124079   4.524   6.641   2.277  0.0369 -0.4417 -0.1187
  888TIP3    H224080   4.554   6.582   2.413 -1.4073  0.9395  0.8147
  889TIP3   OH224081   1.893   3.745   2.505  0.2759 -0.2813  0.3353
  889TIP3    H124082   1.969   3.776   2.455 -0.0653  1.2797  0.7710
  889TIP3    H224083   1.852   3.680   2.447  2.6665 -2.1209  0.6312
  890TIP3   OH224084   0.440   0.010   2.888 -0.1850  0.1656 -0.1974
  890TIP3    H124085   0.400   0.068   2.823  2.0932  0.0163 -1.7625
  890TIP3    H224086   0.394  -0.073   2.877  1.3846 -0.3788 -2.8705
  891TIP3   OH224087   4.722   5.791  15.659  0.3879  0.1676 -0.3217
  891TIP3    H124088   4.690   5.777  15.748  0.4077  0.2085 -0.3083
  891TIP3    H224089   4.747   5.883  15.657  2.7536 -0.4268  0.3822
  892TIP3   OH224090   1.168   0.568   1.319 -0.2294 -0.5843  0.3363
  892TIP3    H124091   1.152   0.545   1.227  1.2532  1.4075 -0.4564
  892TIP3    H224092   1.251   0.615   1.318 -1.2370  1.3446  2.3834
  893TIP3   OH224093   3.579   0.622  13.240 -0.5187 -0.1751 -0.5944
  893TIP3    H124094   3.634   0.561  13.190 -0.2651  0.8419 -1.5882
  893TIP3    H224095   3.625   0.706  13.232 -2.1032  0.6431 -1.2591
  894TIP3   OH224096   1.317   0.089   2.859 -0.1060  0.3085 -0.3107
  894TIP3    H124097   1.382   0.150   2.895 -1.1940  1.1839  0.2146
  894TIP3    H224098   1.284   0.133   2.781 -1.0022  0.4663  0.1534
  895TIP3   OH224099   0.026   2.652   2.365 -0.0186  0.0793  0.5197
  895TIP3    H124100   0.077   2.702   2.302  0.3414  0.1360  0.8507
  895TIP3    H224101   0.088   2.587   2.400 -0.3545 -0.2838  0.4353
  896TIP3   OH224102   5.127   4.684  13.222  0.0722 -0.0689 -0.3395
  896TIP3    H124103   5.042   4.653  13.191 -0.6652  0.9692  0.5769
  896TIP3    H224104   5.156   4.746  13.155  0.5823 -1.1557 -1.1424
  897TIP3   OH224105   2.672   0.560  13.998  0.1844  0.2357 -0.1024
  897TIP3    H124106   2.630   0.641  14.024  0.0585 -0.1170  0.8112
  897TIP3    H224107   2.662   0.557  13.903  1.2115  1.8537 -0.2789
  898TIP3   OH224108   1.784   3.954   2.758 -0.0781  0.0394 -0.1960
  898TIP3    H124109   1.750   3.999   2.835 -0.1897 -1.2874  0.5502
  898TIP3    H224110   1.862   4.004   2.734 -0.2622  0.6982  0.5430
  899TIP3   OH224111   1.948   2.152   4.276 -0.2334  0.0553  0.1200
  899TIP3    H124112   1.854   2.141   4.289 -0.1856  0.4078  0.7746
  899TIP3    H224113   1.968   2.101   4.197 -0.9810  0.0313 -0.0516
  900TIP3   OH224114   3.398   4.664   4.098 -0.2129 -0.8390  0.4331
  900TIP3    H124115   3.357   4.581   4.072 -2.2320  0.1871  0.2325
  900TIP3    H224116   3.361   4.683   4.184 -1.8539  1.1922 -0.6885
  901TIP3   OH224117   2.389   4.264   4.515 -0.4708  0.0618  0.3891
  901TIP3    H124118   2.466   4.321   4.505 -0.1194 -0.7838 -2.0113
  901TIP3    H224119   2.320   4.322   4.547  0.7665  1.1396  1.1557
  902TIP3   OH224120   0.008   3.765  10.862 -0.2923  0.4235  0.4887
  902TIP3    H124121   0.065   3.836  10.890 -0.3024 -0.2982  2.4209
  902TIP3    H224122  -0.007   3.713  10.941 -1.1711 -1.1128 -0.6446
  903TIP3   OH224123   1.557   5.294  14.479  0.3722  0.4712 -0.0479
  903TIP3    H124124   1.524   5.299  14.389  0.0655  0.5441  0.0662
  903TIP3    H224125   1.487   5.334  14.532  0.5870  0.5003  0.2126
  904TIP3   OH224126   4.271   4.546   4.077  0.0089  0.0164 -0.5159
  904TIP3    H124127   4.308   4.587   4.155 -0.4820 -0.8043  0.1447
  904TIP3    H224128   4.309   4.597   4.004  0.8948  0.4324  0.2164
  905TIP3   OH224129   2.391   6.333  14.356  0.4002 -0.4284  0.1539
  905TIP3    H124130   2.334   6.357  14.283  1.5855  0.8800 -0.3617
  905TIP3    H224131   2.333   6.287  14.418 -0.9548 -0.0994 -0.8531
  906TIP3   OH224132   1.148   3.057  13.329 -0.2484  0.1108  0.3234
  906TIP3    H124133   1.238   3.088  13.337 -0.4643  0.4957  1.3456
  906TIP3    H224134   1.132   3.007  13.409 -1.0712  0.3769  0.3385
  907TIP3   OH224135   0.584   0.337  13.835  0.4583  0.0296 -0.2620
  907TIP3    H124136   0.576   0.404  13.903  0.5440 -0.2481  0.0156
  907TIP3    H224137   0.635   0.380  13.766  1.2058 -0.0220  0.2579
  908TIP3   OH224138   5.979   1.053  11.878  0.6830 -0.6524 -0.1000
  908TIP3    H124139   5.911   1.067  11.944  0.4036  0.0660 -0.5309
  908TIP3    H224140   6.001   1.141  11.848  1.6339 -0.9009 -0.1398
  909TIP3   OH224141   0.497   3.294  13.558  0.1395 -0.0613  0.0902
  909TIP3    H124142   0.431   3.341  13.507  1.4493  1.2403 -0.4389
  909TIP3    H224143   0.484   3.324  13.648  0.8098  1.1415 -0.2074
  910TIP3   OH224144   4.078   1.385   3.385  0.2022  0.3619  0.4163
  910TIP3    H124145   4.038   1.464   3.423 -2.5848 -0.2499 -1.1002
  910TIP3    H224146   4.064   1.317   3.452 -1.2912  0.1829 -0.0441
  911TIP3   OH224147   2.239   6.359   2.699 -0.1734 -0.1570 -0.4620
  911TIP3    H124148   2.204   6.395   2.780 -1.0297 -0.2384 -0.7852
  911TIP3    H224149   2.162   6.351   2.642  0.4775  0.1978 -1.3848
  912TIP3   OH224150   4.614   6.543   0.481 -0.1743 -0.2731 -1.2280
  912TIP3    H124151   4.698   6.579   0.509 -0.1869 -0.6478 -0.6926
  912TIP3    H224152   4.549   6.603   0.518 -0.1015  0.8504 -2.8833
  913TIP3   OH224153   2.983   3.425  12.756  0.0898 -0.3369 -0.0608
  913TIP3    H124154   2.958   3.340  12.721  1.3277 -0.9115  0.4406
  913TIP3    H224155   3.029   3.406  12.838 -3.0220  0.9925  2.1016
  914TIP3   OH224156   2.514   5.366   4.786 -0.5383  0.0733 -0.0605
  914TIP3    H124157   2.576   5.339   4.717 -0.4592  2.1573 -0.8397
  914TIP3    H224158   2.531   5.305   4.858 -0.0517 -1.6386 -1.5807
  915TIP3   OH224159   0.314   6.538   3.372 -0.5995 -0.2352 -0.0352
  915TIP3    H124160   0.222   6.563   3.367 -0.4320  0.5085  0.5114
  915TIP3    H224161   0.361   6.621   3.380 -0.0075 -0.7138  1.4782
  916TIP3   OH224162   6.452   2.305  11.402  0.6722 -0.1534 -0.4321
  916TIP3    H124163   6.405   2.225  11.424 -0.1512  0.1183 -1.1317
  916TIP3    H224164   6.383   2.370  11.388  1.4121  1.7911  4.1031
  917TIP3   OH224165   5.422   5.418   2.714 -0.5088 -0.3013  0.2204
  917TIP3    H124166   5.383   5.333   2.732  0.1706 -0.7872 -0.5741
  917TIP3    H224167   5.487   5.401   2.646  0.6089  0.6166  1.0386
  918TIP3   OH224168   2.724   6.246  11.232 -0.3115 -0.3194  0.6797
  918TIP3    H124169   2.640   6.203  11.251  1.0218 -2.6733  1.5472
  918TIP3    H224170   2.770   6.183  11.176  0.4041  1.4815 -0.7900
  919TIP3   OH224171   4.006   6.607   0.341 -0.6815 -0.2533  0.4064
  919TIP3    H124172   4.059   6.668   0.290  0.1097 -0.1742  1.3322
  919TIP3    H224173   4.034   6.521   0.312  0.5192 -0.2244  1.4699
  920TIP3   OH224174   3.731   6.057   0.756 -0.1046  0.5460 -0.2966
  920TIP3    H124175   3.654   6.057   0.813 -0.4307  1.3100 -0.7302
  920TIP3    H224176   3.741   6.148   0.728  0.7177  0.3779 -0.5662
  921TIP3   OH224177   0.068   4.155  15.767 -0.0566 -0.4757 -0.5553
  921TIP3    H124178   0.008   4.228  15.779  1.0316  0.3191  0.1819
  921TIP3    H224179   0.108   4.142  15.853  0.3877 -1.3735 -0.8918
  922TIP3   OH224180   6.724   6.171  15.686 -0.1842 -0.2823 -0.3251
  922TIP3    H124181   6.770   6.115  15.623  2.6987  1.1115  0.4210
  922TIP3    H224182   6.760   6.145  15.771  0.5170  1.9815  0.1176
  923TIP3   OH224183   3.413   6.017   1.787 -0.4363  0.7297  0.1863
  923TIP3    H124184   3.367   6.082   1.840 -0.0727  2.5500 -1.6529
  923TIP3    H224185   3.506   6.033   1.805 -0.3749 -0.0753  0.6177
  924TIP3   OH224186   4.004   6.206   6.083 -0.0397  0.2743  0.6407
  924TIP3    H124187   3.928   6.149   6.099 -0.5888  1.0713  0.9056
  924TIP3    H224188   4.072   6.147   6.051 -0.4595 -0.5995  1.3416
  925TIP3   OH224189   4.541   0.985  14.584 -0.2422  0.1734  0.2068
  925TIP3    H124190   4.462   0.939  14.613 -0.8039  1.2508  0.4130
  925TIP3    H224191   4.517   1.022  14.498 -0.1201  0.8707  0.4656
  926TIP3   OH224192   0.896   0.989   2.551  0.5516 -0.8050  0.3630
  926TIP3    H124193   0.894   0.920   2.618 -0.5447 -0.8498  0.2889
  926TIP3    H224194   0.826   0.965   2.491 -1.6072  1.7867  1.7519
  927TIP3   OH224195   0.666   4.933   0.319  0.3136 -0.1766 -0.0173
  927TIP3    H124196   0.646   4.880   0.396  0.6996 -0.1107  0.1294
  927TIP3    H224197   0.749   4.898   0.286  0.5557  0.3145  0.0638
  928TIP3   OH224198   6.745   6.274  12.587 -0.1716 -0.4958  0.4579
  928TIP3    H124199   6.766   6.182  12.570 -0.6036 -0.2545 -1.4997
  928TIP3    H224200   6.757   6.284  12.682  0.8216 -2.3190  0.5568
  929TIP3   OH224201   0.557   0.419   2.009 -0.1591 -0.0715 -0.9116
  929TIP3    H124202   0.549   0.374   2.093  1.0406 -0.0119 -0.7481
  929TIP3    H224203   0.485   0.384   1.956 -1.5465  0.6401  0.4602
  930TIP3   OH224204   0.532   2.178  14.966  0.1128 -0.4062  0.4724
  930TIP3    H124205   0.440   2.170  14.992  0.0221 -0.0866  0.2453
  930TIP3    H224206   0.573   2.098  15.000 -0.2347 -0.5198  0.6283
  931TIP3   OH224207   5.840   4.361   0.788  0.5332  1.0498  0.1013
  931TIP3    H124208   5.891   4.439   0.766 -1.2994  2.6526  1.3973
  931TIP3    H224209   5.761   4.394   0.831 -0.4134 -1.5050  0.4614
  932TIP3   OH224210   2.931   5.062   3.184 -0.6032  0.0261 -0.9370
  932TIP3    H124211   2.957   5.148   3.216 -0.8481 -0.2309 -0.0175
  932TIP3    H224212   3.012   5.021   3.155 -0.0524 -0.4819  1.2026
  933TIP3   OH224213   3.584   0.358   4.521  0.0132 -0.0508  0.2725
  933TIP3    H124214   3.548   0.443   4.496 -0.6241 -0.7059 -1.1070
  933TIP3    H224215   3.610   0.369   4.612 -0.8929  1.3567  0.3860
  934TIP3   OH224216   5.580   4.988   0.742 -0.0496 -0.1082  0.3169
  934TIP3    H124217   5.496   5.022   0.774  0.3399 -0.7698  2.0948
  934TIP3    H224218   5.556   4.917   0.682 -0.7592 -1.1101  1.7623
  935TIP3   OH224219   4.208   1.496  11.346  0.2898  0.3809 -0.1331
  935TIP3    H124220   4.236   1.587  11.354  0.5461  0.3536 -0.6773
  935TIP3    H224221   4.250   1.452  11.420 -0.5525  0.8714  0.6354
  936TIP3   OH224222   5.586   1.788  16.079 -0.1874  0.3725 -0.3310
  936TIP3    H124223   5.645   1.849  16.035  0.3195  1.3593  1.6660
  936TIP3    H224224   5.643   1.725  16.123 -0.6407  0.4833  0.4328
  937TIP3   OH224225   3.519   4.695  16.110 -0.6380 -0.5615 -0.4778
  937TIP3    H124226   3.495   4.707  16.018 -1.3524  1.2364 -0.0770
  937TIP3    H224227   3.441   4.718  16.159  0.7787  1.8819  0.7154
  938TIP3   OH224228   5.658   5.800  10.934  0.0722 -0.0273 -0.1061
  938TIP3    H124229   5.689   5.791  11.024 -0.2567  0.3442  0.0513
  938TIP3    H224230   5.639   5.711  10.905  0.1522 -0.1448  0.2052
  939TIP3   OH224231   6.293   1.167  16.302 -0.0935  0.2298  0.2304
  939TIP3    H124232   6.222   1.166  16.238  0.8146 -1.6975 -0.7848
  939TIP3    H224233   6.249   1.178  16.386 -1.3506  2.0852 -0.6503
  940TIP3   OH224234   5.665   4.317   2.528  0.2952  0.4548 -0.1207
  940TIP3    H124235   5.626   4.240   2.486 -0.4927  0.0464  1.3105
  940TIP3    H224236   5.711   4.362   2.457 -0.0140 -0.8320 -1.1729
  941TIP3   OH224237   5.769   4.707   2.201  0.6595  0.1312 -0.1120
  941TIP3    H124238   5.679   4.704   2.169  0.5429 -1.8493  0.3334
  941TIP3    H224239   5.767   4.659   2.283  2.6906 -2.5979 -1.5683
  942TIP3   OH224240   1.541   6.653  14.419  0.3672 -0.0008 -0.1288
  942TIP3    H124241   1.494   6.628  14.340  1.3204  0.6449 -0.9073
  942TIP3    H224242   1.544   6.748  14.417  1.6542 -0.0196 -0.0743
  943TIP3   OH224243   1.623   5.585  10.584  0.2001  0.2235 -0.1806
  943TIP3    H124244   1.671   5.510  10.617  1.2490  1.4460  1.1577
  943TIP3    H224245   1.532   5.571  10.613 -0.1849 -1.8163 -2.2512
  944TIP3   OH224246   2.575   0.422   5.413  0.2233  0.5337 -0.1458
  944TIP3    H124247   2.596   0.388   5.500  0.7953  1.8938  0.2612
  944TIP3    H224248   2.657   0.414   5.364  0.5305  1.8426  0.1329
  945TIP3   OH224249   0.227   4.434  11.865 -0.2717  0.5363  0.1354
  945TIP3    H124250   0.253   4.346  11.892  0.1274  0.7735  0.5222
  945TIP3    H224251   0.196   4.475  11.946  1.5225  1.4681  0.3703
  946TIP3   OH224252   2.180   5.425  16.252 -0.5221 -0.3613 -0.4391
  946TIP3    H124253   2.179   5.377  16.335  1.2368 -0.1113 -0.2523
  946TIP3    H224254   2.096   5.403  16.210 -0.2746 -2.6041  0.1955
  947TIP3   OH224255   2.706   1.094   0.194  0.2791  0.2444 -0.2702
  947TIP3    H124256   2.613   1.076   0.182  0.0336  1.6232 -0.5132
  947TIP3    H224257   2.728   1.156   0.124  1.3003  0.2039 -0.0037
  948TIP3   OH224258   4.890   3.336  10.808  0.0110 -0.2618  0.3672
  948TIP3    H124259   4.971   3.285  10.802  0.0606 -0.2692  1.0376
  948TIP3    H224260   4.820   3.271  10.803  0.0439 -0.2635 -0.1309
  949TIP3   OH224261   5.696   4.005   4.112 -0.2532 -0.2453  0.0596
  949TIP3    H124262   5.765   3.945   4.083  0.8847  0.9235  0.3412
  949TIP3    H224263   5.654   3.958   4.184 -0.7245 -1.5943 -1.0673
  950TIP3   OH224264   6.771   2.473  14.194  0.3530 -0.4820 -0.2796
  950TIP3    H124265   6.783   2.378  14.203  0.6768 -0.5996 -1.9135
  950TIP3    H224266   6.799   2.508  14.279 -3.2246 -2.1175  1.6597
  951TIP3   OH224267   2.795   1.504   2.277 -0.0971  0.6783  0.5141
  951TIP3    H124268   2.769   1.596   2.275  1.7821  1.2429  0.6788
  951TIP3    H224269   2.767   1.473   2.364  0.2305  1.3999  0.8832
  952TIP3   OH224270   4.392   3.824   5.129  0.3091 -0.2011  0.1847
  952TIP3    H124271   4.434   3.738   5.130 -1.5711 -1.1357  1.2099
  952TIP3    H224272   4.329   3.821   5.201 -0.6127  1.6198 -0.5010
  953TIP3   OH224273   4.884   4.880  16.714 -0.4603 -0.6695 -0.0363
  953TIP3    H124274   4.844   4.826  16.782  0.4001 -1.7376 -0.3625
  953TIP3    H224275   4.966   4.835  16.693  0.2701  0.7628 -0.3176
  954TIP3   OH224276   0.195   3.969   2.847  0.1747 -0.3929 -0.4132
  954TIP3    H124277   0.227   3.987   2.936 -0.8951 -0.1993 -0.0620
  954TIP3    H224278   0.233   4.039   2.794  0.5916 -0.3437 -0.0616
  955TIP3   OH224279   4.884   0.982  10.663  0.2350  0.0066  0.7554
  955TIP3    H124280   4.866   1.068  10.627  2.5049 -0.3888 -1.4981
  955TIP3    H224281   4.980   0.978  10.668  0.1164 -1.8514  2.1409
  956TIP3   OH224282   2.099   2.143  11.370  0.6431  0.2256 -0.8666
  956TIP3    H124283   2.142   2.174  11.449  0.1332 -0.1831 -0.4189
  956TIP3    H224284   2.165   2.090  11.325  0.2862 -1.3207  0.3716
  957TIP3   OH224285   1.625   2.472  16.510 -0.0355 -0.2405  0.1153
  957TIP3    H124286   1.636   2.399  16.572  0.7382  0.8861  1.3247
  957TIP3    H224287   1.551   2.522  16.545  0.5029  0.4857  0.2099
  958TIP3   OH224288   6.191   2.020  17.044 -0.1138  0.3286 -0.3818
  958TIP3    H124289   6.267   2.028  16.985  0.1441 -3.1882 -0.6438
  958TIP3    H224290   6.230   2.008  17.131 -0.2726 -2.0765 -0.5955
  959TIP3   OH224291   1.843   6.294  11.708 -0.4362 -0.1665  0.1094
  959TIP3    H124292   1.803   6.362  11.763 -1.2959 -1.0559  0.5895
  959TIP3    H224293   1.772   6.264  11.651 -0.5179 -1.8552  1.0653
  960TIP3   OH224294   5.150   1.673   3.981 -0.0217  0.0752  0.1844
  960TIP3    H124295   5.109   1.727   3.913 -1.8532  1.2323  2.1655
  960TIP3    H224296   5.228   1.638   3.939 -0.5564  1.6115 -2.2006
  961TIP3   OH224297   1.829   3.595  16.219 -0.7133  0.6431 -0.4261
  961TIP3    H124298   1.763   3.661  16.243 -0.7101  0.6066 -0.3218
  961TIP3    H224299   1.913   3.641  16.228 -0.7122  0.6295 -0.3689
  962TIP3   OH224300   6.663   6.090  16.220 -0.2467  0.7300 -0.1143
  962TIP3    H124301   6.573   6.123  16.224 -0.7343 -0.4514 -1.1890
  962TIP3    H224302   6.665   6.016  16.280  0.1934  1.1755  0.4267
  963TIP3   OH224303   2.875   0.087   0.602 -0.1521  0.6388  0.4448
  963TIP3    H124304   2.897   0.047   0.686  1.0930  0.5477  0.0884
  963TIP3    H224305   2.817   0.159   0.624  0.8696  1.1616  1.4846
  964TIP3   OH224306   6.481   5.087   0.383 -0.3182  0.9913  0.0100
  964TIP3    H124307   6.470   5.182   0.378  1.5834  1.2681  0.6587
  964TIP3    H224308   6.501   5.060   0.293 -0.2013  1.2967 -0.0549
  965TIP3   OH224309   1.777   0.621   6.123 -0.0176  0.5581  0.0906
  965TIP3    H124310   1.698   0.663   6.091 -0.0256 -0.7445 -1.6761
  965TIP3    H224311   1.843   0.640   6.056  0.4618 -0.6136  0.2149
  966TIP3   OH224312   5.774   5.019   1.454  0.3173  0.6039 -0.2348
  966TIP3    H124313   5.717   4.956   1.498  2.3822 -0.8815  0.3774
  966TIP3    H224314   5.810   5.073   1.525  0.8969  0.5063 -0.4493
  967TIP3   OH224315   3.206   1.611  16.789 -0.2487  0.6901 -0.0821
  967TIP3    H124316   3.138   1.631  16.724 -0.4819  1.2225  0.3213
  967TIP3    H224317   3.222   1.695  16.833  0.9204  0.6490 -0.4133
  968TIP3   OH224318   5.139   5.751   4.470  0.1325 -0.2479  0.8174
  968TIP3    H124319   5.214   5.734   4.413  0.1158  0.0618  0.7005
  968TIP3    H224320   5.138   5.847   4.479  0.5018 -0.3336  1.8329
  969TIP3   OH224321   6.094   0.301  13.283 -0.0449  0.3955  0.3039
  969TIP3    H124322   6.096   0.271  13.374  0.1769  0.1794  0.2265
  969TIP3    H224323   6.100   0.397  13.290  1.1206  0.3163  0.4742
  970TIP3   OH224324   5.038   1.080  15.775 -0.0742  0.3785  0.1435
  970TIP3    H124325   5.086   1.129  15.842  0.8501 -0.8628  0.4179
  970TIP3    H224326   5.106   1.046  15.717 -0.3630 -2.9794  1.5893
  971TIP3   OH224327   5.753   4.222  13.775 -0.2160  0.0519  0.4493
  971TIP3    H124328   5.838   4.179  13.761 -0.3710 -0.2295  0.3680
  971TIP3    H224329   5.727   4.194  13.863 -0.6201 -0.5433  0.1438
  972TIP3   OH224330   2.509   2.424   1.026 -0.4063  0.4024 -0.1934
  972TIP3    H124331   2.453   2.437   1.102 -0.1102  0.7567 -0.0378
  972TIP3    H224332   2.525   2.512   0.992  0.9614  0.3901  0.4043
  973TIP3   OH224333   4.626   0.498  11.934 -0.0506 -0.6633  0.1282
  973TIP3    H124334   4.656   0.480  11.845  0.6920  0.2305  0.1946
  973TIP3    H224335   4.658   0.587  11.953 -1.6144 -0.2030  0.6733
  974TIP3   OH224336   3.603   5.940   6.034  0.2218  0.7979 -0.0116
  974TIP3    H124337   3.590   5.849   6.010 -0.2309  0.5794  1.0306
  974TIP3    H224338   3.529   5.960   6.092  1.4651  1.2077  1.4680
  975TIP3   OH224339   4.555   1.819  13.333  0.5638 -0.1362 -0.1013
  975TIP3    H124340   4.618   1.831  13.261  0.8655  0.2024  0.2166
  975TIP3    H224341   4.591   1.872  13.404  0.1994 -0.3754  0.2580
  976TIP3   OH224342   1.725   5.191  11.325  0.5984 -0.7114 -0.0341
  976TIP3    H124343   1.664   5.192  11.251  0.6849  0.2653 -0.1050
  976TIP3    H224344   1.809   5.168  11.286  0.7721  0.4488 -0.3505
  977TIP3   OH224345   2.206   6.680   1.858  0.1478 -0.3754  0.2325
  977TIP3    H124346   2.231   6.606   1.803 -2.1040 -0.4858 -0.6941
  977TIP3    H224347   2.245   6.661   1.944  2.1253 -1.1104 -0.8019
  978TIP3   OH224348   5.604   3.297  17.082 -0.8580 -0.7195 -0.0060
  978TIP3    H124349   5.646   3.382  17.094 -0.8710 -0.8147  0.7614
  978TIP3    H224350   5.521   3.318  17.039 -2.0125 -0.0540  2.4641
  979TIP3   OH224351   1.362   6.171  12.357 -0.1234 -0.1492 -0.1007
  979TIP3    H124352   1.360   6.184  12.262 -1.1111  1.5762  0.1297
  979TIP3    H224353   1.451   6.141  12.376  0.2354 -0.0036 -1.5047
  980TIP3   OH224354   2.234   2.362   5.613 -0.2746 -0.2102  0.7495
  980TIP3    H124355   2.309   2.333   5.561  0.5499 -0.8207  2.2366
  980TIP3    H224356   2.195   2.433   5.562  2.0992  1.0094  0.5387
  981TIP3   OH224357   5.172   4.221  11.343  0.3344 -0.0388 -0.1597
  981TIP3    H124358   5.250   4.190  11.297 -1.4148 -3.0478 -1.2268
  981TIP3    H224359   5.108   4.237  11.274 -0.6582  0.5007  0.8600
  982TIP3   OH224360   2.286   1.266  11.396  0.2556  0.3227  0.3563
  982TIP3    H124361   2.216   1.240  11.456 -0.8640  0.2981 -0.9069
  982TIP3    H224362   2.285   1.362  11.397 -1.4413  0.3611 -1.4466
  983TIP3   OH224363   1.945   5.478   2.736  0.7053 -0.5609 -0.0063
  983TIP3    H124364   1.888   5.402   2.732  1.1501 -0.9146  0.4125
  983TIP3    H224365   2.027   5.449   2.696  1.1064 -0.5057  0.7721
  984TIP3   OH224366   3.419   2.454   0.131  0.8498  0.4318  0.5709
  984TIP3    H124367   3.506   2.455   0.171  1.7632  1.3816 -1.3623
  984TIP3    H224368   3.381   2.539   0.154  1.9008  1.5273 -1.6439
  985TIP3   OH224369   6.025   3.944   0.039  0.2617 -0.0001  0.2360
  985TIP3    H124370   6.107   3.977   0.001 -0.4032  1.4137  0.0128
  985TIP3    H224371   6.031   3.965   0.132 -0.3587  1.1618  0.0166
  986TIP3   OH224372   0.756   1.223   2.801 -0.3084 -0.5899 -0.1713
  986TIP3    H124373   0.848   1.247   2.791 -0.3407  0.5650  2.1520
  986TIP3    H224374   0.711   1.273   2.732  0.4792  0.8765  0.3608
  987TIP3   OH224375   0.643   1.409   2.632 -0.0142 -0.4349 -0.3324
  987TIP3    H124376   0.674   1.499   2.627  1.5539 -0.9888 -1.0987
  987TIP3    H224377   0.548   1.416   2.642  0.2576  1.3128  1.2639
  988TIP3   OH224378   5.332   2.343  11.172 -0.1635  0.0530 -0.2519
  988TIP3    H124379   5.248   2.370  11.210 -0.2342 -0.2655 -0.1749
  988TIP3    H224380   5.379   2.425  11.155  0.4429  0.1764  1.8603
  989TIP3   OH224381   0.655   2.253  17.104 -0.0386  0.4295 -0.1515
  989TIP3    H124382   0.577   2.307  17.103 -0.4154 -0.0735  0.8035
  989TIP3    H224383   0.720   2.302  17.053 -0.5959  1.4184  0.0860
  990TIP3   OH224384   3.005   1.913  12.327 -0.1938  0.6666  0.7383
  990TIP3    H124385   3.073   1.915  12.260 -1.5886  0.4694 -0.7448
  990TIP3    H224386   2.943   1.847  12.295 -1.2890  1.1558  1.8215
  991TIP3   OH224387   2.131   4.837   5.348  0.3995 -0.7355 -0.5013
  991TIP3    H124388   2.046   4.794   5.347 -0.5956  1.2074 -1.2925
  991TIP3    H224389   2.192   4.769   5.320 -1.0961 -1.7139 -1.4570
  992TIP3   OH224390   3.769   4.510  15.638 -0.2856  0.5448  0.3258
  992TIP3    H124391   3.719   4.431  15.656 -0.0019  0.4231  0.5628
  992TIP3    H224392   3.851   4.500  15.686  0.6971 -0.0255 -1.3938
  993TIP3   OH224393   5.791   5.571   1.038  0.2530  0.1483  0.7266
  993TIP3    H124394   5.744   5.586   0.956  1.5406 -0.7686 -0.1962
  993TIP3    H224395   5.875   5.617   1.027 -0.4376  1.8802  2.4050
  994TIP3   OH224396   3.171   3.787   5.572  0.0036 -0.2293  0.0520
  994TIP3    H124397   3.129   3.851   5.514  0.6622 -0.5431 -0.7907
  994TIP3    H224398   3.219   3.841   5.636  0.2795  0.1235 -0.4464
  995TIP3   OH224399   5.481   1.747   2.305 -0.6533  0.2213 -0.0220
  995TIP3    H124400   5.475   1.690   2.228  1.2321 -0.6614  0.4273
  995TIP3    H224401   5.506   1.832   2.270  0.9830 -0.3641 -0.3768
  996TIP3   OH224402   2.781   4.768  12.403  0.5302 -0.2866 -0.3883
  996TIP3    H124403   2.740   4.721  12.476 -0.1866 -2.1486 -1.9463
  996TIP3    H224404   2.845   4.706  12.368 -0.3198 -0.0396 -2.3857
  997TIP3   OH224405   4.854   6.698   0.331  0.4742 -0.2403  0.0847
  997TIP3    H124406   4.871   6.623   0.388  0.4811  0.7929  1.4704
  997TIP3    H224407   4.936   6.746   0.328  0.2947  0.0479 -0.3092
  998TIP3   OH224408   3.203   5.963  11.259 -0.2277  0.2438 -0.3841
  998TIP3    H124409   3.261   6.019  11.207 -0.2503  1.6167  1.0143
  998TIP3    H224410   3.241   5.876  11.254  2.1715  1.1864  0.7837
  999TIP3   OH224411   1.452   3.778  13.123  0.0851 -1.0374  0.0196
  999TIP3    H124412   1.453   3.819  13.037  2.9404 -0.0979  0.4562
  999TIP3    H224413   1.492   3.692  13.110  0.7596 -0.7936  0.4258
 1000TIP3   OH224414   5.681   6.274  16.449  0.2468  0.3215 -0.5940
 1000TIP3    H124415   5.659   6.361  16.482 -0.1391 -0.8627  2.4106
 1000TIP3    H224416   5.777   6.273  16.448  0.2531  0.8033 -0.7207
 1001TIP3   OH224417   4.334   2.974   4.146  1.0826 -0.4627 -0.4341
 1001TIP3    H124418   4.299   3.054   4.184  1.7549 -1.4172  2.3331
 1001TIP3    H224419   4.259   2.914   4.141  0.7135  0.0959 -1.9191
 1002TIP3   OH224420   0.891   2.264   4.883  0.3325  0.6058 -0.3363
 1002TIP3    H124421   0.850   2.202   4.944 -0.2001  0.5679 -0.7281
 1002TIP3    H224422   0.899   2.215   4.801  2.6634  0.0815  0.1787
 1003TIP3   OH224423   4.743   2.436  15.089  0.4452 -0.0227  0.0104
 1003TIP3    H124424   4.788   2.519  15.102  2.6668 -1.5428  2.5840
 1003TIP3    H224425   4.779   2.402  15.007  1.5431  0.3406  0.3285
 1004TIP3   OH224426   1.925   0.984   1.408 -0.1053  0.0500 -0.3012
 1004TIP3    H124427   1.927   0.941   1.493  1.1044  0.1895 -0.2491
 1004TIP3    H224428   1.904   1.075   1.427  0.6005  0.1770 -0.0967
 1005TIP3   OH224429   6.674   1.904  16.832  0.5727 -0.1464  0.0029
 1005TIP3    H124430   6.633   1.819  16.849  0.5573  0.0538  0.9761
 1005TIP3    H224431   6.755   1.901  16.883  0.9539  0.1179 -0.5873
 1006TIP3   OH224432   3.553   6.203   4.587 -0.2101 -0.4627 -0.0860
 1006TIP3    H124433   3.471   6.180   4.632 -1.2265 -0.1513 -1.7283
 1006TIP3    H224434   3.617   6.141   4.622 -0.6185  0.6564  2.8103
 1007TIP3   OH224435   0.618   2.900   1.616 -0.8127  0.4349 -0.5152
 1007TIP3    H124436   0.623   2.868   1.526 -0.2375 -1.3553  0.1286
 1007TIP3    H224437   0.540   2.859   1.651  0.2806 -0.8255  0.5120
 1008TIP3   OH224438   6.506   1.130   3.316  0.1278  0.1158 -0.0864
 1008TIP3    H124439   6.422   1.174   3.323  0.1099 -0.0038  0.4244
 1008TIP3    H224440   6.543   1.134   3.404  1.1088  1.0781 -0.5294
 1009TIP3   OH224441   5.927   6.154  15.381 -0.4128 -0.1855 -0.4686
 1009TIP3    H124442   5.892   6.234  15.422  0.6803  0.5099 -0.8488
 1009TIP3    H224443   5.898   6.083  15.438  0.6506  0.7194  1.2407
 1010TIP3   OH224444   4.387   0.763   4.279  0.4065  0.1811 -0.3772
 1010TIP3    H124445   4.419   0.765   4.369 -1.4816  0.4027  0.3243
 1010TIP3    H224446   4.294   0.786   4.287 -0.0272 -0.8686 -2.2661
 1011TIP3   OH224447   0.152   3.176  14.796  0.3678  0.1439 -0.8107
 1011TIP3    H124448   0.127   3.207  14.883  1.9009 -2.1983  0.5391
 1011TIP3    H224449   0.085   3.113  14.772  1.1842 -0.9646 -0.2483
 1012TIP3   OH224450   1.703   3.478   1.812 -0.3054  0.6426  0.2436
 1012TIP3    H124451   1.720   3.491   1.719 -0.4770 -0.3400  0.0757
 1012TIP3    H224452   1.781   3.433   1.845 -1.1371 -0.8911  0.1452
 1013TIP3   OH224453   4.830   2.759  13.100 -0.3198 -0.3382  0.8360
 1013TIP3    H124454   4.780   2.764  13.018 -1.3849 -1.2430  1.4207
 1013TIP3    H224455   4.867   2.847  13.110 -1.5148  0.2569  0.2139
 1014TIP3   OH224456   1.699   4.968   4.550  0.0816 -0.1666  0.1205
 1014TIP3    H124457   1.785   4.941   4.517  1.2714  2.9511  0.4966
 1014TIP3    H224458   1.699   5.063   4.539 -2.4445  0.1013  2.2280
 1015TIP3   OH224459   5.087   4.376  13.779  0.2198  0.1981 -0.5225
 1015TIP3    H124460   5.093   4.296  13.832 -1.2221  1.2048  1.2152
 1015TIP3    H224461   5.142   4.439  13.824  0.2693  0.5926 -1.1313
 1016TIP3   OH224462   1.445   1.821   2.626 -0.1711 -0.0535  0.1440
 1016TIP3    H124463   1.455   1.822   2.531  1.9436 -1.0069  0.3301
 1016TIP3    H224464   1.531   1.846   2.660 -0.7109 -0.3686  1.8191
 1017TIP3   OH224465   6.747   2.173  15.716  0.5989  0.0999 -0.1614
 1017TIP3    H124466   6.804   2.205  15.787  0.5593 -0.2581  0.0363
 1017TIP3    H224467   6.677   2.126  15.762  1.2548 -1.2032 -0.4942
 1018TIP3   OH224468   5.692   2.245  14.467 -0.2791  0.4118 -0.5308
 1018TIP3    H124469   5.656   2.217  14.551  0.5437  0.6504 -0.0954
 1018TIP3    H224470   5.645   2.192  14.403 -0.1167 -0.5730  0.1527
 1019TIP3   OH224471   3.166   3.983  16.417 -0.3231  0.5228  0.0005
 1019TIP3    H124472   3.198   4.055  16.471 -0.4187  1.2760 -0.9309
 1019TIP3    H224473   3.238   3.921  16.414 -0.4342  0.3248  1.2541
 1020TIP3   OH224474   1.351   2.760  13.441 -0.2598  0.2329 -0.6091
 1020TIP3    H124475   1.308   2.790  13.521  0.9986 -0.2550  0.2764
 1020TIP3    H224476   1.334   2.666  13.438  0.2265  0.1409 -0.5733
 1021TIP3   OH224477   0.260   5.561  15.713  0.0833  0.0222  0.3450
 1021TIP3    H124478   0.348   5.530  15.735  0.9896  2.1395 -0.1992
 1021TIP3    H224479   0.238   5.514  15.632  0.5723 -0.7296  0.6359
 1022TIP3   OH224480   5.553   2.724  11.268 -0.0986 -0.1354  0.7609
 1022TIP3    H124481   5.597   2.772  11.338  1.8719 -1.5971  0.5925
 1022TIP3    H224482   5.460   2.733  11.286  0.3818 -0.0262  3.2642
 1023TIP3   OH224483   6.363   0.659   2.816 -0.1183 -0.6596 -0.0954
 1023TIP3    H124484   6.402   0.638   2.901 -0.4362  3.6860  1.2262
 1023TIP3    H224485   6.435   0.651   2.753  0.7565 -1.2763  0.9734
 1024TIP3   OH224486   6.112   5.318   4.402  0.2426 -0.3430  0.3537
 1024TIP3    H124487   6.163   5.249   4.359  1.0462 -0.7336  1.8987
 1024TIP3    H224488   6.029   5.276   4.426 -0.1074 -0.1913 -0.5734
 1025TIP3   OH224489   2.292   2.200   0.061  0.1689 -0.2743 -0.1742
 1025TIP3    H124490   2.291   2.252   0.141  0.2395  1.1393 -1.0651
 1025TIP3    H224491   2.248   2.255  -0.004  0.3364 -1.2947 -1.1733
 1026TIP3   OH224492   1.076   3.611  12.759  0.0653  0.3667  0.2131
 1026TIP3    H124493   1.146   3.553  12.729 -0.9008  0.5205 -2.4209
 1026TIP3    H224494   1.121   3.694  12.778  0.8434 -0.0408  0.1807
 1027TIP3   OH224495   5.812   3.808  16.229 -0.5815  0.3007  1.1360
 1027TIP3    H124496   5.799   3.731  16.173  0.1090  0.5915  0.5684
 1027TIP3    H224497   5.817   3.881  16.167 -1.2321  0.8041  1.6777
 1028TIP3   OH224498   6.105   1.986   6.080 -0.3226 -0.2588 -0.4736
 1028TIP3    H124499   6.076   1.944   6.161  0.6477  0.5066  0.2872
 1028TIP3    H224500   6.037   2.049   6.060 -0.4865 -0.3340 -0.1561
 1029TIP3   OH224501   5.813   6.379  13.472 -0.6968 -0.6843  0.0481
 1029TIP3    H124502   5.812   6.283  13.476 -0.7523 -0.7479 -1.2793
 1029TIP3    H224503   5.861   6.399  13.392  0.0386  0.4246  0.7503
 1030TIP3   OH224504   0.244   6.203   3.784 -0.2894 -0.2043  0.7921
 1030TIP3    H124505   0.331   6.174   3.757 -0.0555 -0.0086  1.3383
 1030TIP3    H224506   0.256   6.294   3.811 -1.1318  0.6257 -1.4825
 1031TIP3   OH224507   5.523   2.443   5.044 -0.2414  0.0658  0.7769
 1031TIP3    H124508   5.500   2.402   4.961  0.2188  1.1934  0.0829
 1031TIP3    H224509   5.467   2.400   5.108  0.2871 -1.7022  0.0751
 1032TIP3   OH224510   4.677   4.649   3.806 -0.1610 -0.3272  0.6686
 1032TIP3    H124511   4.696   4.575   3.864  0.7156  0.6844  1.6974
 1032TIP3    H224512   4.764   4.681   3.780 -0.5328  0.6532  0.6409
 1033TIP3   OH224513   2.177   4.329  11.311 -0.4345  0.1693  0.0562
 1033TIP3    H124514   2.149   4.323  11.220 -1.8354 -0.9482  0.5429
 1033TIP3    H224515   2.233   4.407  11.314 -0.3029  0.1661 -1.7665
 1034TIP3   OH224516   1.566   1.601  15.333 -0.5948 -0.1234 -0.2076
 1034TIP3    H124517   1.610   1.518  15.314  0.5539  0.3615  0.2428
 1034TIP3    H224518   1.574   1.651  15.252  0.7326  0.4050  0.2327
 1035TIP3   OH224519   1.298   1.490  14.999  0.3248 -0.0657  0.0015
 1035TIP3    H124520   1.219   1.478  15.052  0.7726  0.9174  0.9088
 1035TIP3    H224521   1.268   1.479  14.909 -0.7031 -0.4439  0.3801
 1036TIP3   OH224522   4.600   2.010  12.495 -0.6403  0.1392 -0.3254
 1036TIP3    H124523   4.635   2.072  12.560 -0.8383  0.0029 -0.0863
 1036TIP3    H224524   4.514   1.986  12.530  0.4865 -2.2308  0.9007
 1037TIP3   OH224525   4.110   1.144  14.786  0.2551  0.0357 -0.3303
 1037TIP3    H124526   4.111   1.146  14.881  0.4520  0.3402 -0.3411
 1037TIP3    H224527   4.142   1.230  14.759  2.2015 -0.7473 -0.6715
 1038TIP3   OH224528   3.118   2.794  14.260 -0.0946  0.5845  0.1194
 1038TIP3    H124529   3.053   2.724  14.258 -0.4397  0.8995  0.0975
 1038TIP3    H224530   3.133   2.809  14.354 -0.5124  0.9225  0.1379
 1039TIP3   OH224531   1.384   2.410  16.737  0.1597  0.0564  0.3320
 1039TIP3    H124532   1.427   2.470  16.798 -1.1201  1.9272 -0.5450
 1039TIP3    H224533   1.304   2.456  16.711 -0.5896 -1.8315 -0.7613
 1040TIP3   OH224534   0.395   4.497   5.500  0.6270 -0.6604  0.3919
 1040TIP3    H124535   0.401   4.592   5.490  3.1770 -0.6403  1.5171
 1040TIP3    H224536   0.304   4.476   5.483  0.0963  1.9605 -0.1733
 1041TIP3   OH224537   2.255   6.554  12.276 -0.4769 -0.3308 -0.3180
 1041TIP3    H124538   2.335   6.502  12.268  0.1827  0.4388  1.2291
 1041TIP3    H224539   2.245   6.569  12.370 -0.9868  1.8170 -0.6967
 1042TIP3   OH224540   6.582   5.990   0.513  0.2573  0.1154 -0.2234
 1042TIP3    H124541   6.620   5.974   0.599 -2.1526  0.8153  0.9830
 1042TIP3    H224542   6.528   5.913   0.495  0.1017  0.3406 -0.7554
 1043TIP3   OH224543   5.927   4.094   6.233 -0.2423 -0.2435  0.2697
 1043TIP3    H124544   5.941   4.188   6.241  1.0531 -0.4053 -0.1062
 1043TIP3    H224545   5.895   4.067   6.320 -0.8859  0.5792  0.2947
 1044TIP3   OH224546   0.992   4.936   6.045 -0.1443  0.1559 -0.0752
 1044TIP3    H124547   1.012   4.975   6.130 -0.1003 -0.3064  0.1277
 1044TIP3    H224548   1.049   4.860   6.039 -0.5881 -0.1680 -0.2474
 1045TIP3   OH224549   5.961   4.087  13.654  0.1959 -0.2689 -0.4641
 1045TIP3    H124550   5.896   4.108  13.586  0.0282 -0.2964 -0.3148
 1045TIP3    H224551   5.952   3.993  13.667 -1.3823  0.0884  1.2208
 1046TIP3   OH224552   4.050   5.405  15.757  0.7618  0.4115  0.2304
 1046TIP3    H124553   4.128   5.455  15.779  1.2806 -0.5615  0.5878
 1046TIP3    H224554   3.988   5.424  15.828  0.9447  0.5497  0.3533
 1047TIP3   OH224555   6.285   2.640   5.132  0.8172  0.1081  0.3536
 1047TIP3    H124556   6.221   2.688   5.079  1.1303  0.1077 -0.0330
 1047TIP3    H224557   6.262   2.548   5.120  1.4079  0.0609 -0.4720
 1048TIP3   OH224558   0.988   0.005   2.324 -0.1656  0.4751 -0.1310
 1048TIP3    H124559   1.064   0.059   2.302  1.4811 -1.5563  0.3067
 1048TIP3    H224560   1.002  -0.020   2.415 -0.1800 -1.7000 -0.6953
 1049TIP3   OH224561   6.755   5.617  13.088  0.4681 -0.3750  0.3965
 1049TIP3    H124562   6.793   5.604  13.001 -0.6367  1.3783 -0.3553
 1049TIP3    H224563   6.797   5.697  13.121 -0.0368 -0.3404  0.9646
 1050TIP3   OH224564   4.949   1.503  15.741 -0.2511  0.5188 -0.5690
 1050TIP3    H124565   5.036   1.522  15.705  0.3751 -0.6574  0.2941
 1050TIP3    H224566   4.949   1.545  15.827 -0.0620 -0.5723 -0.0326
 1051TIP3   OH224567   4.776   3.140   1.534 -0.4664 -0.0402  0.2550
 1051TIP3    H124568   4.798   3.184   1.616  0.6742  1.3762 -0.7905
 1051TIP3    H224569   4.681   3.148   1.527 -0.3008  2.1161  0.1780
 1052TIP3   OH224570   0.369   5.105  11.044  0.2978 -0.3032  0.2938
 1052TIP3    H124571   0.390   5.198  11.050 -0.4386 -0.0025 -1.4502
 1052TIP3    H224572   0.277   5.103  11.018  0.8320 -1.4754 -1.6032
 1053TIP3   OH224573   3.209   4.585   3.576  0.1489 -0.0347 -0.9280
 1053TIP3    H124574   3.284   4.526   3.567  0.3137  0.0830 -0.3585
 1053TIP3    H224575   3.244   4.663   3.618 -0.6852 -0.8186  1.3327
 1054TIP3   OH224576   3.148   5.798   6.491 -0.3505  0.0296 -0.0431
 1054TIP3    H124577   3.208   5.848   6.436  1.1384 -0.2150  1.3393
 1054TIP3    H224578   3.085   5.863   6.522  0.7271  0.8031  0.5730
 1055TIP3   OH224579   6.618   1.833  10.953 -0.1940 -0.2340  0.1349
 1055TIP3    H124580   6.546   1.868  10.900  0.2290 -0.4839 -0.6224
 1055TIP3    H224581   6.601   1.739  10.956  0.1925 -0.3184 -0.1999
 1056TIP3   OH224582   4.689   6.276   0.670  0.3557  0.0775  0.6583
 1056TIP3    H124583   4.680   6.280   0.765  0.0210 -0.1975  0.6426
 1056TIP3    H224584   4.664   6.363   0.639  0.3149  0.1199  0.8128
 1057TIP3   OH224585   6.682   0.018   0.638 -0.5954 -0.0490  0.1396
 1057TIP3    H124586   6.596   0.053   0.615 -1.1810 -1.9498 -0.6695
 1057TIP3    H224587   6.741   0.053   0.570 -0.9780  0.2126 -0.0565
 1058TIP3   OH224588   5.126   2.937  16.442  0.0004 -0.2528 -0.2299
 1058TIP3    H124589   5.211   2.942  16.399  0.7699 -2.8290  0.8776
 1058TIP3    H224590   5.062   2.945  16.371  1.2244 -2.2373 -1.5789
 1059TIP3   OH224591   1.533   6.176   1.941  0.5577 -0.2931 -0.1590
 1059TIP3    H124592   1.576   6.165   2.026  0.5113 -0.9944 -0.2234
 1059TIP3    H224593   1.475   6.100   1.934  0.4342 -0.1447 -0.7443
 1060TIP3   OH224594   0.011   3.478  16.623  0.1444 -0.3489 -0.0792
 1060TIP3    H124595  -0.033   3.398  16.596 -1.4315  1.5661 -3.5175
 1060TIP3    H224596  -0.034   3.504  16.703 -2.0676 -0.7929 -1.1287
 1061TIP3   OH224597   2.053   2.296   6.271 -0.0529 -0.0442 -0.2765
 1061TIP3    H124598   1.972   2.339   6.297  0.1599  0.5379 -0.5789
 1061TIP3    H224599   2.085   2.346   6.196 -0.2999 -1.3103 -1.2368
 1062TIP3   OH224600   5.259   6.721  14.493  0.2143  0.0221  0.2928
 1062TIP3    H124601   5.319   6.678  14.553  1.3961  1.9268  0.5296
 1062TIP3    H224602   5.256   6.812  14.523 -0.9473  0.4879 -1.1560
 1063TIP3   OH224603   6.596   3.359  15.693  0.2310  0.7578  0.3021
 1063TIP3    H124604   6.688   3.368  15.667 -0.3096 -2.9744 -3.4066
 1063TIP3    H224605   6.552   3.434  15.653  1.3849  1.6353  0.6614
 1064TIP3   OH224606   3.392   3.901  15.315  0.5287  0.2717 -0.1698
 1064TIP3    H124607   3.478   3.859  15.312 -0.2615 -1.3266 -1.0101
 1064TIP3    H224608   3.334   3.835  15.355  0.0507  2.0057  2.1647
 1065TIP3   OH224609   3.365   4.652  13.262  0.1037 -0.2897 -0.3277
 1065TIP3    H124610   3.350   4.746  13.250  1.4066  0.0463  0.6283
 1065TIP3    H224611   3.313   4.629  13.340  0.1630 -0.2753 -0.2836
 1066TIP3   OH224612   5.645   6.319  13.001 -0.3601  0.1509 -0.2710
 1066TIP3    H124613   5.669   6.398  13.049  1.6752 -0.7676  0.2714
 1066TIP3    H224614   5.679   6.333  12.912  0.8116 -0.4735  0.0671
 1067TIP3   OH224615   5.336   5.377   3.495  0.1442 -0.6473 -0.1182
 1067TIP3    H124616   5.429   5.391   3.515 -0.0110  1.1547 -0.6296
 1067TIP3    H224617   5.290   5.421   3.566 -0.3323 -1.3630  0.0182
 1068TIP3   OH224618   2.319   4.248   3.483  0.3869 -0.2975  0.6572
 1068TIP3    H124619   2.369   4.286   3.410 -0.1013  0.1941  0.5722
 1068TIP3    H224620   2.252   4.314   3.502 -2.1109 -2.2144 -1.1965
 1069TIP3   OH224621   2.365   5.003   0.737 -0.1434 -0.3369  0.6389
 1069TIP3    H124622   2.346   5.021   0.645  1.2167 -1.8933  0.0255
 1069TIP3    H224623   2.460   5.005   0.743 -0.2225  0.0460  2.0942
 1070TIP3   OH224624   1.567   0.114   3.776  0.1052 -0.0065  0.0127
 1070TIP3    H124625   1.635   0.051   3.751 -0.8510 -0.9610 -0.2504
 1070TIP3    H224626   1.521   0.133   3.695  1.8164  2.8569 -0.3709
 1071TIP3   OH224627   1.533   4.501  14.790 -0.1010  0.6594  0.1797
 1071TIP3    H124628   1.476   4.427  14.812 -0.0733  0.2189 -1.1717
 1071TIP3    H224629   1.475   4.563  14.745  0.6413 -0.1898 -2.0271
 1072TIP3   OH224630   0.112   2.315  10.848  0.4482  0.2149 -0.3341
 1072TIP3    H124631   0.084   2.344  10.761 -2.1448  0.7184  0.6337
 1072TIP3    H224632   0.051   2.245  10.871  0.3433  0.9003  1.5712
 1073TIP3   OH224633   5.919   3.865   3.885 -0.2503 -0.4604 -0.7089
 1073TIP3    H124634   5.975   3.807   3.937 -1.6269 -0.5580  0.7043
 1073TIP3    H224635   5.861   3.806   3.837 -0.9304 -0.3090 -0.0940
 1074TIP3   OH224636   2.315   3.155   5.212  0.1126 -0.5036  0.0773
 1074TIP3    H124637   2.239   3.101   5.188 -1.5741  0.2322  3.4056
 1074TIP3    H224638   2.380   3.092   5.243  1.2048 -1.1995 -3.4147
 1075TIP3   OH224639   4.617   0.574  13.514 -0.2856  0.3277  0.6018
 1075TIP3    H124640   4.583   0.534  13.593 -0.5382  0.1346  0.3964
 1075TIP3    H224641   4.566   0.655  13.504  0.0612  0.5810  0.8874
 1076TIP3   OH224642   4.737   6.395   2.105 -0.4728 -0.3968 -0.6258
 1076TIP3    H124643   4.652   6.353   2.109 -0.9162  0.5761  0.5115
 1076TIP3    H224644   4.787   6.355   2.177 -0.5356  0.2173 -0.2341
 1077TIP3   OH224645   0.406   4.583  15.924 -0.1405 -0.0467  0.2755
 1077TIP3    H124646   0.431   4.491  15.913 -1.2744 -0.1561 -1.5448
 1077TIP3    H224647   0.417   4.599  16.017 -0.7704 -2.2865  0.7761
 1078TIP3   OH224648   4.249   4.872   5.482 -0.3610  0.3872 -0.6936
 1078TIP3    H124649   4.222   4.964   5.484 -0.3094  0.3691  0.9303
 1078TIP3    H224650   4.175   4.826   5.443 -0.9584  0.9220 -0.1934
 1079TIP3   OH224651   1.698   6.010  15.260 -0.5663 -0.2781 -0.3660
 1079TIP3    H124652   1.639   6.053  15.322  1.0389  1.8465 -0.2497
 1079TIP3    H224653   1.759   5.960  15.315 -0.2800  0.1291 -0.3085
 1080TIP3   OH224654   4.397   4.070  17.195 -0.0204  0.0683  0.4854
 1080TIP3    H124655   4.440   4.085  17.111  0.7830  1.0091  1.0606
 1080TIP3    H224656   4.451   4.116  17.259 -1.3970  0.5431  1.3410
 1081TIP3   OH224657   5.026   0.276   4.862  0.4735  0.3443 -0.5034
 1081TIP3    H124658   4.973   0.197   4.874 -1.8570  1.8356 -0.4721
 1081TIP3    H224659   5.115   0.250   4.886 -0.4816 -1.9082  0.7859
 1082TIP3   OH224660   6.589   1.309  12.591 -0.4401 -1.1695  0.0330
 1082TIP3    H124661   6.533   1.312  12.669 -0.2637  2.1369  0.1342
 1082TIP3    H224662   6.669   1.355  12.618 -0.3590 -0.0134 -2.0411
 1083TIP3   OH224663   1.164   2.102   3.148 -0.2665  0.6877 -0.0291
 1083TIP3    H124664   1.259   2.104   3.140 -0.3052 -0.2238 -0.7671
 1083TIP3    H224665   1.147   2.127   3.239  0.7148 -0.0745  0.3683
 1084TIP3   OH224666   1.862   1.037   4.406 -0.6274 -0.6928  0.0552
 1084TIP3    H124667   1.818   1.077   4.482 -1.8144 -3.3250  0.8141
 1084TIP3    H224668   1.791   1.024   4.343  0.3665  1.5231 -1.5798
 1085TIP3   OH224669   6.407   4.529   6.301  0.8690 -0.4126 -0.1721
 1085TIP3    H124670   6.327   4.478   6.303  1.4678 -1.4679 -1.9017
 1085TIP3    H224671   6.470   4.478   6.352  1.1205 -0.8276 -0.8822
 1086TIP3   OH224672   6.374   4.989   5.548 -0.2866 -0.6373  0.2269
 1086TIP3    H124673   6.349   4.907   5.590 -1.0801 -0.7890 -0.5388
 1086TIP3    H224674   6.470   4.987   5.547 -0.2995 -1.4476  0.4099
 1087TIP3   OH224675   5.372   4.980   2.145  0.1511  0.3641 -0.0934
 1087TIP3    H124676   5.353   5.034   2.068  0.1300 -0.7761 -0.9034
 1087TIP3    H224677   5.431   4.912   2.112 -0.5157 -0.6167  0.7260
 1088TIP3   OH224678   3.494   6.268  13.702 -0.0430  0.1458  0.0189
 1088TIP3    H124679   3.400   6.254  13.695 -0.0197 -0.3034  0.5332
 1088TIP3    H224680   3.505   6.314  13.786  0.4168 -2.0697  1.1970
 1089TIP3   OH224681   4.844   3.168   3.843  0.0362  0.4370 -0.3706
 1089TIP3    H124682   4.909   3.190   3.910  0.4993  0.3872 -0.8009
 1089TIP3    H224683   4.813   3.252   3.811  0.4830  0.4662 -0.7354
 1090TIP3   OH224684   1.988   2.912   3.868 -0.2692 -0.2585 -0.1242
 1090TIP3    H124685   1.911   2.916   3.925 -0.3349 -1.4517 -0.1054
 1090TIP3    H224686   1.977   2.985   3.807  0.0478  1.3414  1.6781
 1091TIP3   OH224687   0.607   3.096  15.476 -0.2116 -0.2244 -0.2727
 1091TIP3    H124688   0.666   3.070  15.548 -0.3965  2.2040  0.8102
 1091TIP3    H224689   0.558   3.016  15.455 -0.1215 -0.9945  2.2719
 1092TIP3   OH224690   4.278   3.265   4.132  0.5493  0.4486 -0.1384
 1092TIP3    H124691   4.286   3.359   4.120 -0.5265  0.5442 -0.1216
 1092TIP3    H224692   4.236   3.256   4.218 -0.8312 -0.0116 -0.8632
 1093TIP3   OH224693   4.716   3.934  15.394 -0.1224 -0.3269  1.0167
 1093TIP3    H124694   4.715   3.839  15.381  0.7189 -0.1929 -0.0476
 1093TIP3    H224695   4.769   3.968  15.322  0.9038  0.8235  2.2924
 1094TIP3   OH224696   6.539   4.681   1.698 -0.2140  0.4099 -0.0929
 1094TIP3    H124697   6.518   4.647   1.611  0.3368 -0.6168  0.1559
 1094TIP3    H224698   6.634   4.695   1.695 -0.4424  1.9689 -0.1948
 1095TIP3   OH224699   2.019   3.398  15.518  0.1422  0.5921 -0.8745
 1095TIP3    H124700   2.009   3.370  15.427 -0.4862  1.5499 -1.1049
 1095TIP3    H224701   1.954   3.347  15.566  1.6051 -1.1497 -0.6888
 1096TIP3   OH224702   5.237   5.042  16.767 -0.1766  0.2830 -0.2939
 1096TIP3    H124703   5.252   5.122  16.718  0.1412  0.2134 -0.3069
 1096TIP3    H224704   5.164   5.064  16.826 -0.9853  0.1702 -1.2347
 1097TIP3   OH224705   1.562   1.309  13.289 -0.1292 -0.1620  0.1515
 1097TIP3    H124706   1.480   1.353  13.266  0.9294  2.0068  0.3183
 1097TIP3    H224707   1.629   1.355  13.237  0.9198 -2.2164 -0.3670
 1098TIP3   OH224708   1.022   6.050  16.822 -0.0180  0.3214 -0.2772
 1098TIP3    H124709   0.967   6.100  16.762  0.7254  1.5877  0.0832
 1098TIP3    H224710   1.027   6.104  16.901  2.8335  0.8487 -0.7842
 1099TIP3   OH224711   5.223   5.505   3.706  0.5304 -0.1533 -0.5582
 1099TIP3    H124712   5.136   5.543   3.696  0.4801  0.0279  0.4882
 1099TIP3    H224713   5.280   5.580   3.722  0.6361 -0.3982  0.2310
 1100TIP3   OH224714   3.695   3.087   5.781  0.1761 -0.3191  0.2644
 1100TIP3    H124715   3.744   3.061   5.859  1.3286 -0.1435 -0.3964
 1100TIP3    H224716   3.743   3.047   5.709 -1.3030 -1.0905 -0.3017
 1101TIP3   OH224717   5.702   0.392  10.490 -0.5423 -0.2354  0.1995
 1101TIP3    H124718   5.751   0.339  10.553  0.0765 -1.8407 -1.5862
 1101TIP3    H224719   5.701   0.339  10.410 -0.5328  2.1420 -1.4175
 1102TIP3   OH224720   2.346   6.520  11.087 -0.6434 -0.1358  0.6020
 1102TIP3    H124721   2.330   6.571  11.008 -0.3973 -0.9255  0.0384
 1102TIP3    H224722   2.440   6.502  11.086 -0.5260  0.4013  1.4148
 1103TIP3   OH224723   1.180   2.774  13.956  0.1689 -0.3368 -0.4836
 1103TIP3    H124724   1.161   2.717  14.031  0.6522  0.1734  0.0343
 1103TIP3    H224725   1.163   2.720  13.879 -0.1079 -0.9402 -0.0008
 1104TIP3   OH224726   0.719   6.472  11.223  0.1193 -0.3063 -0.2002
 1104TIP3    H124727   0.785   6.532  11.259  1.2697 -1.5484 -0.1551
 1104TIP3    H224728   0.771   6.407  11.175 -1.0522 -1.5060  0.1297
 1105TIP3   OH224729   2.700   0.142  13.024  0.1562  0.3717  0.1543
 1105TIP3    H124730   2.684   0.101  12.939  0.5052  0.3085  0.1157
 1105TIP3    H224731   2.666   0.230  13.015 -0.6244  0.0789  0.2469
 1106TIP3   OH224732   4.629   6.041   4.807  0.0727  0.4119 -0.7756
 1106TIP3    H124733   4.560   5.986   4.772  0.8162 -1.5821  0.8087
 1106TIP3    H224734   4.706   6.021   4.753 -0.3679  2.0812 -2.0630
 1107TIP3   OH224735   0.035   0.078   3.424 -0.1862 -0.3928  0.1538
 1107TIP3    H124736   0.069   0.075   3.513 -0.5559  0.1299  0.3142
 1107TIP3    H224737  -0.048   0.031   3.427 -0.6153  0.3589  0.2773
 1108TIP3   OH224738   5.641   1.903  11.124  0.8157  0.3570  0.0198
 1108TIP3    H124739   5.583   1.964  11.079  0.7823 -0.6922 -1.4234
 1108TIP3    H224740   5.722   1.906  11.074  1.3158  0.3104  0.8195
 1109TIP3   OH224741   6.013   0.365  12.479  0.2001  0.0364  0.0066
 1109TIP3    H124742   6.049   0.437  12.531 -0.0132 -0.2858  0.6013
 1109TIP3    H224743   6.074   0.293  12.491 -0.4822 -0.4209  0.7924
 1110TIP3   OH224744   5.082   6.754  16.138 -0.2380 -0.1011 -0.3465
 1110TIP3    H124745   5.033   6.784  16.062 -2.5145 -1.0601  0.6739
 1110TIP3    H224746   5.072   6.824  16.202 -0.5964 -0.4458 -0.0171
 1111TIP3   OH224747   6.074   4.040   4.153  0.6739  0.0486  0.5846
 1111TIP3    H124748   6.022   3.962   4.133  0.6527  0.2805 -0.2754
 1111TIP3    H224749   6.030   4.110   4.105  1.7926  0.2397 -0.1789
 1112TIP3   OH224750   5.315   0.513  10.900 -0.0358  0.5262  0.0397
 1112TIP3    H124751   5.347   0.573  10.833  0.5701  0.7845  0.5531
 1112TIP3    H224752   5.394   0.486  10.948 -0.3159 -0.5837 -0.1097
 1113TIP3   OH224753   5.487   0.433  16.632  0.1373 -0.0340  0.3914
 1113TIP3    H124754   5.528   0.364  16.685 -0.1341 -0.2266  0.3542
 1113TIP3    H224755   5.404   0.394  16.604  0.7454 -0.3208 -1.0361
 1114TIP3   OH224756   0.858   5.867  16.213 -0.3837 -0.5683 -0.0249
 1114TIP3    H124757   0.951   5.881  16.196 -0.2925  0.0897  0.9865
 1114TIP3    H224758   0.838   5.921  16.290 -2.2439  1.4693 -1.8670
 1115TIP3   OH224759   0.777   0.804  15.741  0.0410  0.3946  0.7277
 1115TIP3    H124760   0.749   0.733  15.684 -3.1365  0.4574  2.1083
 1115TIP3    H224761   0.868   0.784  15.763 -0.5343 -2.7542  0.3709
 1116TIP3   OH224762   6.743   5.150  14.380  0.5532  0.3990 -0.4283
 1116TIP3    H124763   6.700   5.233  14.401  0.2111 -0.1443  1.0640
 1116TIP3    H224764   6.780   5.120  14.463  0.2891 -1.1600 -0.8519
 1117TIP3   OH224765   0.166   2.411  10.334  0.5965 -0.3768  0.3715
 1117TIP3    H124766   0.167   2.346  10.404  0.2475 -1.7685 -0.8918
 1117TIP3    H224767   0.123   2.487  10.373  2.4583 -0.2942  2.3732
 1118TIP3   OH224768   5.378   6.440  14.866 -0.2731  0.5518  0.2777
 1118TIP3    H124769   5.287   6.410  14.868 -0.9273  2.4735  0.6042
 1118TIP3    H224770   5.397   6.465  14.956  0.9296 -0.7614  0.4152
 1119TIP3   OH224771   1.630   4.190  16.278  0.4855 -0.1206  0.0601
 1119TIP3    H124772   1.567   4.223  16.214  0.0096  0.3428  0.7496
 1119TIP3    H224773   1.580   4.186  16.360  1.1440 -0.4982  0.4440
 1120TIP3   OH224774   3.647   6.748   4.004 -0.3362  0.3675 -0.2053
 1120TIP3    H124775   3.560   6.728   3.970 -0.4138 -0.3954  0.4325
 1120TIP3    H224776   3.691   6.663   4.008  0.2570  0.6803 -0.0231
 1121TIP3   OH224777   4.603   5.359  13.287 -0.4421 -0.4589  0.1516
 1121TIP3    H124778   4.608   5.275  13.332  1.8323 -0.1700  0.4909
 1121TIP3    H224779   4.654   5.347  13.207  2.0033  1.2806  1.3724
 1122TIP3   OH224780   3.632   5.650   0.679 -0.0644 -0.0206  0.0264
 1122TIP3    H124781   3.581   5.631   0.600 -0.6591  1.3506  0.0644
 1122TIP3    H224782   3.644   5.564   0.720  0.5099 -0.7961 -1.6858
 1123TIP3   OH224783   4.360   3.222  13.523 -0.4940  0.1573 -0.1320
 1123TIP3    H124784   4.365   3.299  13.580 -0.9074  0.0496  0.0520
 1123TIP3    H224785   4.363   3.148  13.583  0.8761  0.0166 -0.3805
 1124TIP3   OH224786   2.990   3.421  12.022  0.5832  0.1977 -0.3101
 1124TIP3    H124787   2.979   3.346  12.081 -1.1895 -0.1649 -1.0811
 1124TIP3    H224788   3.010   3.382  11.937 -0.9017  0.5678 -0.8390
 1125TIP3   OH224789   6.440   6.464   6.077  0.0581 -0.0768  0.6063
 1125TIP3    H124790   6.472   6.483   5.989  0.2433 -1.2247  0.4113
 1125TIP3    H224791   6.424   6.550   6.116 -0.0380  0.4438 -0.5504
 1126TIP3   OH224792   1.826   4.667   2.487 -0.6567 -0.7755  0.0536
 1126TIP3    H124793   1.912   4.695   2.516 -0.9032 -2.3009  2.4419
 1126TIP3    H224794   1.773   4.746   2.487  0.6920  0.1647 -1.4041
 1127TIP3   OH224795   1.406   3.322   2.364  0.2022 -0.6442  0.7557
 1127TIP3    H124796   1.488   3.272   2.355 -0.4330 -1.5715  0.1041
 1127TIP3    H224797   1.343   3.258   2.397 -0.0590  0.2733  2.0622
 1128TIP3   OH224798   1.903   3.106  12.535  0.4447  0.1917 -0.0760
 1128TIP3    H124799   1.896   3.063  12.450  1.2106 -0.5044  0.1970
 1128TIP3    H224800   1.985   3.071  12.572 -0.2715 -0.1039  1.2616
 1129TIP3   OH224801   2.591   4.793   4.700  0.1185  0.6342 -0.0492
 1129TIP3    H124802   2.615   4.745   4.780  0.5527 -0.1953 -0.6609
 1129TIP3    H224803   2.495   4.796   4.702  0.1197  0.4480  0.4140
 1130TIP3   OH224804   3.772   2.226  11.749  0.3818 -0.3734  0.5529
 1130TIP3    H124805   3.729   2.256  11.829 -1.8484  0.7197 -0.9864
 1130TIP3    H224806   3.810   2.305  11.711 -0.1132 -0.5735 -0.3648
 1131TIP3   OH224807   2.638   2.228   0.865 -0.1230 -0.1225  0.0855
 1131TIP3    H124808   2.717   2.220   0.917 -0.4490  1.6181  0.8851
 1131TIP3    H224809   2.582   2.288   0.915 -0.7463  0.9839 -1.8827
 1132TIP3   OH224810   1.396   1.040   4.703 -0.8255 -0.2090  0.4553
 1132TIP3    H124811   1.373   1.113   4.760 -0.5248  0.2968 -0.0685
 1132TIP3    H224812   1.321   1.030   4.645  0.0050  1.0482 -0.8541
 1133TIP3   OH224813   1.121   1.588   2.476 -0.3718 -0.6406 -0.0973
 1133TIP3    H124814   1.141   1.496   2.458  0.9297 -0.5789  0.9789
 1133TIP3    H224815   1.185   1.615   2.542  0.4899  1.5901 -1.7933
 1134TIP3   OH224816   2.915   0.255  15.189 -0.6173  0.0188 -0.2206
 1134TIP3    H124817   2.875   0.239  15.274  0.4351 -1.9773 -0.0586
 1134TIP3    H224818   3.007   0.275  15.209 -0.3280 -0.6034 -0.8871
 1135TIP3   OH224819   5.950   4.875   4.404 -0.1232 -0.4728 -0.4271
 1135TIP3    H124820   5.977   4.917   4.486 -1.6592 -0.8451  0.2847
 1135TIP3    H224821   6.030   4.836   4.370  0.5044 -0.4508  0.9720
 1136TIP3   OH224822   4.900   2.636   3.626 -0.0528  0.0780  0.5864
 1136TIP3    H124823   4.893   2.661   3.718  0.0644  0.0957  0.5907
 1136TIP3    H224824   4.858   2.708   3.579  0.8052  0.5711  0.5627
 1137TIP3   OH224825   5.490   3.199  12.540  0.2826 -0.2925 -0.4752
 1137TIP3    H124826   5.446   3.168  12.619 -0.2083  0.4387 -0.4598
 1137TIP3    H224827   5.425   3.256  12.497  0.5225 -0.7292 -1.4281
 1138TIP3   OH224828   0.872   1.863  14.469  0.1040  0.5398 -0.8416
 1138TIP3    H124829   0.852   1.951  14.502  0.9356  0.3793  0.0965
 1138TIP3    H224830   0.845   1.866  14.377  1.2027  2.1502 -1.1369
 1139TIP3   OH224831   0.896   2.263  13.092  0.3665  0.1580 -0.4490
 1139TIP3    H124832   0.816   2.239  13.045 -0.0622 -0.5167  0.6187
 1139TIP3    H224833   0.925   2.182  13.133  0.1937  0.9489  1.2615
 1140TIP3   OH224834   3.555   2.077  11.590  0.2954  0.7161  0.4502
 1140TIP3    H124835   3.563   2.124  11.672  0.0099  0.3871  0.6682
 1140TIP3    H224836   3.462   2.055  11.583  0.5211 -0.3543  0.6528
 1141TIP3   OH224837   1.824   2.240  11.912 -0.0183  0.4715  0.4998
 1141TIP3    H124838   1.811   2.149  11.886 -0.9941  0.8252 -0.2319
 1141TIP3    H224839   1.846   2.235  12.005  0.4310 -0.5424  0.3466
 1142TIP3   OH224840   4.149   6.154  11.524  0.1972 -0.0766 -0.5297
 1142TIP3    H124841   4.213   6.219  11.495 -0.6403  0.9890 -0.0159
 1142TIP3    H224842   4.196   6.099  11.587  1.4888 -1.2371 -2.4685
 1143TIP3   OH224843   3.851   5.416  17.095  0.0535 -0.3438 -0.4266
 1143TIP3    H124844   3.764   5.410  17.057 -0.6696 -0.0736  1.1715
 1143TIP3    H224845   3.887   5.328  17.087 -0.3820 -0.4739 -1.0056
 1144TIP3   OH224846   3.060   2.894  15.543 -0.3865 -0.3685 -0.1203
 1144TIP3    H124847   3.089   2.832  15.610  1.8455 -0.0752 -0.7712
 1144TIP3    H224848   2.967   2.906  15.561 -0.1884 -1.5411  1.9170
 1145TIP3   OH224849   5.179   5.861   1.844  0.1671 -0.2430 -0.1882
 1145TIP3    H124850   5.188   5.804   1.920  0.7267  1.3624  0.9909
 1145TIP3    H224851   5.095   5.905   1.857  0.5102  0.4255 -0.2143
 1146TIP3   OH224852   0.871   5.783   1.044 -0.6387  0.1701  0.3799
 1146TIP3    H124853   0.846   5.693   1.064  1.9087 -0.9576 -1.2143
 1146TIP3    H224854   0.882   5.784   0.949  1.8532  1.4778  0.6461
 1147TIP3   OH224855   4.034   5.996  13.427 -0.1073  0.3956  0.2239
 1147TIP3    H124856   3.982   5.927  13.386 -1.7729  1.7413 -0.0304
 1147TIP3    H224857   4.122   5.961  13.431 -0.6936 -1.2906 -0.9566
 1148TIP3   OH224858   4.354   5.796  13.682  0.2252 -0.4710 -0.0515
 1148TIP3    H124859   4.379   5.755  13.599 -0.4364 -1.2395  0.1143
 1148TIP3    H224860   4.381   5.888  13.673  0.1871 -0.5530 -1.1095
 1149TIP3   OH224861   6.307   4.659  17.116  0.3106 -0.1439  0.5204
 1149TIP3    H124862   6.247   4.606  17.168  1.2070 -1.1807  0.5258
 1149TIP3    H224863   6.269   4.661  17.029  0.7600 -1.6163  0.2801
 1150TIP3   OH224864   0.032   6.674   4.211  0.2666  0.2636 -0.5878
 1150TIP3    H124865   0.013   6.731   4.286  1.1308 -0.1515 -0.0435
 1150TIP3    H224866  -0.043   6.616   4.206  0.5347 -0.1776  0.4138
 1151TIP3   OH224867   2.862   6.062   3.954  0.1950  0.6638  0.5951
 1151TIP3    H124868   2.891   6.153   3.957 -1.0563  1.0738  0.8686
 1151TIP3    H224869   2.936   6.013   3.919  0.2968  2.0274 -1.1588
 1152TIP3   OH224870   3.241   3.983   0.135 -0.1042 -0.1159  0.0800
 1152TIP3    H124871   3.181   4.005   0.064 -0.0591  0.4932  0.2249
 1152TIP3    H224872   3.275   3.897   0.112 -0.1584  0.0392 -0.5869
 1153TIP3   OH224873   2.335   4.111  12.426 -0.2570  0.2590 -0.5874
 1153TIP3    H124874   2.387   4.165  12.367 -2.0557  1.2110 -1.3319
 1153TIP3    H224875   2.375   4.124  12.512  0.8283  0.8323 -1.1678
 1154TIP3   OH224876   2.077   5.994   3.445  0.1404  0.1983  0.6783
 1154TIP3    H124877   2.152   5.935   3.451 -1.4094 -1.8575  0.5035
 1154TIP3    H224878   2.072   6.018   3.353 -0.8480 -1.6273  0.2375
 1155TIP3   OH224879   3.115   5.396   2.703  0.3230  0.2960  0.2645
 1155TIP3    H124880   3.164   5.344   2.641  0.9122 -1.7148  2.3543
 1155TIP3    H224881   3.031   5.350   2.713  0.5229  0.1620  1.4931
 1156TIP3   OH224882   6.083   4.564  15.831 -0.3912  0.1253 -0.0077
 1156TIP3    H124883   6.080   4.624  15.906  0.2031  1.1566 -0.7936
 1156TIP3    H224884   6.174   4.570  15.800 -0.8469  0.3320 -1.3122
 1157TIP3   OH224885   0.914   4.888   0.187 -0.1766  0.6871 -0.6828
 1157TIP3    H124886   0.898   4.897   0.093  0.3901  0.2506 -0.8187
 1157TIP3    H224887   0.986   4.825   0.193 -0.6675  0.1967  0.0692
 1158TIP3   OH224888   4.497   2.760   3.990  0.4059  0.4926 -0.1365
 1158TIP3    H124889   4.529   2.850   4.001  0.6641  0.3480  0.3014
 1158TIP3    H224890   4.405   2.771   3.966  0.5931  0.8921 -0.6833
 1159TIP3   OH224891   4.503   2.496  13.490  0.4991 -0.0280  0.4890
 1159TIP3    H124892   4.467   2.409  13.471 -1.1535  0.2989  2.0316
 1159TIP3    H224893   4.470   2.518  13.577 -1.5192  3.4036 -1.0401
 1160TIP3   OH224894   1.393   2.686  10.845 -0.4236  0.1085  0.0704
 1160TIP3    H124895   1.418   2.700  10.937 -0.5212 -1.1809  0.2968
 1160TIP3    H224896   1.424   2.598  10.825 -0.7283  0.2499 -1.0355
 1161TIP3   OH224897   4.240   6.317   0.779 -0.3485  0.0173 -0.1819
 1161TIP3    H124898   4.191   6.256   0.834 -0.5430  0.3777  0.0518
 1161TIP3    H224899   4.245   6.274   0.693  0.3122 -0.7278  0.2248
 1162TIP3   OH224900   3.717   6.581  11.135 -0.8262  0.3640 -0.2873
 1162TIP3    H124901   3.692   6.523  11.064 -0.7696 -1.5581  1.2119
 1162TIP3    H224902   3.750   6.660  11.092  1.9202 -1.8553 -2.4421
 1163TIP3   OH224903   5.323   1.212  14.415  0.6002  0.0297  0.3421
 1163TIP3    H124904   5.363   1.139  14.368 -1.4529 -0.1477 -1.1856
 1163TIP3    H224905   5.302   1.177  14.501 -2.7529 -2.0254 -1.2315
 1164TIP3   OH224906   6.043   4.275  14.307 -0.0519  0.3416  0.0097
 1164TIP3    H124907   5.972   4.270  14.371 -0.5411 -0.6523 -0.5912
 1164TIP3    H224908   6.077   4.185  14.302 -0.2742  0.3188 -1.3927
 1165TIP3   OH224909   0.021   3.888  11.483 -0.3451 -0.3026 -0.3752
 1165TIP3    H124910   0.076   3.813  11.507 -1.5530 -1.3367 -0.7343
 1165TIP3    H224911  -0.046   3.851  11.425  0.0127  1.3828 -1.9008
 1166TIP3   OH224912   4.280   6.037  10.525  0.6607 -0.8889 -0.2077
 1166TIP3    H124913   4.295   5.959  10.577  0.5906 -1.5091 -1.1150
 1166TIP3    H224914   4.217   6.010  10.458  0.2961  0.0538 -0.2565
 1167TIP3   OH224915   0.111   0.070   3.683  0.1241  0.1122  0.1910
 1167TIP3    H124916   0.069   0.039   3.763  0.7325 -0.8015  0.1587
 1167TIP3    H224917   0.195   0.106   3.712  0.4840 -0.5130 -0.0788
 1168TIP3   OH224918   2.782   0.667   4.710  0.1742  0.3420  0.0168
 1168TIP3    H124919   2.846   0.624   4.653  0.9848  1.0035  0.4196
 1168TIP3    H224920   2.724   0.714   4.650 -0.1427 -0.5207 -0.3671
 1169TIP3   OH224921   2.512   3.143   5.851  0.0906  0.0554  0.0649
 1169TIP3    H124922   2.453   3.068   5.845 -0.6275  0.6948 -1.0357
 1169TIP3    H224923   2.568   3.136   5.773 -0.5360  1.1088 -0.4910
 1170TIP3   OH224924   0.600   3.218  13.158 -0.3627 -0.2307 -0.6948
 1170TIP3    H124925   0.664   3.159  13.198 -3.2071 -2.1933  1.1686
 1170TIP3    H224926   0.557   3.164  13.091 -2.3363 -0.0565  0.3769
 1171TIP3   OH224927   0.458   0.553   1.714 -0.3384 -0.1815  0.1729
 1171TIP3    H124928   0.409   0.547   1.632 -0.8631 -0.1259  0.4768
 1171TIP3    H224929   0.425   0.480   1.766  0.2456 -0.4258  0.2039
 1172TIP3   OH224930   0.804   1.360  13.973 -0.1738 -0.0149 -0.2088
 1172TIP3    H124931   0.712   1.359  13.946  0.2595  0.3469 -1.7195
 1172TIP3    H224932   0.803   1.321  14.061 -2.2636  3.4303  1.3925
 1173TIP3   OH224933   3.823   2.507  17.115 -0.2171  1.0480  0.3401
 1173TIP3    H124934   3.741   2.489  17.069  0.2958  2.3374 -1.1227
 1173TIP3    H224935   3.861   2.421  17.130 -1.5817  0.4713  0.5339
 1174TIP3   OH224936   1.287   4.167  10.866 -0.0492  0.1375  0.5599
 1174TIP3    H124937   1.368   4.126  10.835  0.8930  1.0296  1.7950
 1174TIP3    H224938   1.269   4.236  10.802  0.5797  0.4264  0.6918
 1175TIP3   OH224939   1.654   0.483  10.666  0.1793 -0.5127 -0.3611
 1175TIP3    H124940   1.736   0.479  10.716  1.1112 -0.7597 -1.8394
 1175TIP3    H224941   1.593   0.427  10.714  0.7257  0.0854  1.0431
 1176TIP3   OH224942   6.474   5.689  16.825  0.2248  0.1394  0.0647
 1176TIP3    H124943   6.530   5.624  16.782  0.2956 -0.3222  0.8550
 1176TIP3    H224944   6.498   5.684  16.918 -0.3353  0.7327  0.2427
 1177TIP3   OH224945   5.202   0.018   2.507  0.3471 -0.1148 -0.5402
 1177TIP3    H124946   5.230   0.050   2.593  0.7379  0.9230 -1.0460
 1177TIP3    H224947   5.209   0.094   2.449 -2.5413 -0.0827 -0.9267
 1178TIP3   OH224948   5.592   4.709   5.260 -0.1307 -0.0426  0.3600
 1178TIP3    H124949   5.560   4.764   5.331 -1.4837 -0.6456  0.2280
 1178TIP3    H224950   5.686   4.729   5.254 -0.0418  0.1296  2.1877
 1179TIP3   OH224951   0.061   0.883   5.843  0.3257  0.1569  0.1447
 1179TIP3    H124952   0.101   0.905   5.759  0.0594  1.2031  0.2889
 1179TIP3    H224953   0.132   0.893   5.907  0.0277  1.2821  0.3015
 1180TIP3   OH224954   1.340   0.508   0.048  0.5741  0.2944 -0.7042
 1180TIP3    H124955   1.353   0.600   0.073  0.3820  0.2937 -0.5947
 1180TIP3    H224956   1.311   0.512  -0.043 -0.8494  0.4370 -0.2573
 1181TIP3   OH224957   5.156   1.343   3.276  0.1234  0.0573  0.6073
 1181TIP3    H124958   5.066   1.375   3.283 -0.5631 -2.2193  2.8297
 1181TIP3    H224959   5.202   1.384   3.350 -0.2167 -2.1897  2.1181
 1182TIP3   OH224960   6.420   2.057   4.781  0.3819  0.3049  0.2685
 1182TIP3    H124961   6.368   1.978   4.793  0.7998 -0.1750 -1.0008
 1182TIP3    H224962   6.469   2.042   4.700 -1.3944  2.8705 -1.3695
 1183TIP3   OH224963   2.964   0.152   1.186 -0.2293 -0.6264 -0.3496
 1183TIP3    H124964   3.048   0.123   1.151 -0.4070 -0.0594 -1.2821
 1183TIP3    H224965   2.903   0.082   1.164  0.4700 -2.1855  2.5204
 1184TIP3   OH224966   1.599   5.127   2.324 -0.6172 -0.0132 -0.1922
 1184TIP3    H124967   1.506   5.139   2.339 -0.5938  0.9743 -0.7729
 1184TIP3    H224968   1.605   5.092   2.235 -0.3979  0.6609 -0.4467
 1185TIP3   OH224969   3.628   1.563   4.962 -0.3084 -0.5518  0.5684
 1185TIP3    H124970   3.680   1.629   5.006  1.2347 -0.6701 -1.0415
 1185TIP3    H224971   3.548   1.609   4.935  0.1268  0.2828  0.7002
 1186TIP3   OH224972   1.501   2.667  16.191 -0.2788 -0.3901 -0.5328
 1186TIP3    H124973   1.408   2.690  16.190 -0.4252 -0.6505  2.2201
 1186TIP3    H224974   1.502   2.573  16.207  0.4442 -0.7448 -2.6390
 1187TIP3   OH224975   3.126   3.807   0.777 -0.4903 -0.0502  0.3637
 1187TIP3    H124976   3.137   3.800   0.872 -2.2974 -1.5492  0.4908
 1187TIP3    H224977   3.130   3.901   0.760  2.5304  0.0943  1.5531
 1188TIP3   OH224978   0.806   5.721   5.236  0.2433  0.0155 -0.7783
 1188TIP3    H124979   0.722   5.685   5.267  0.1932  0.2936 -0.5915
 1188TIP3    H224980   0.865   5.646   5.236  0.0375 -0.1495 -0.7545
 1189TIP3   OH224981   1.333   3.407  14.060  0.1362  0.2677  0.2489
 1189TIP3    H124982   1.391   3.455  14.000  0.7583  0.2884  0.8509
 1189TIP3    H224983   1.255   3.461  14.067 -0.8671 -0.7643 -2.2196
 1190TIP3   OH224984   1.534   4.807  10.979  0.0471 -0.1967  0.1274
 1190TIP3    H124985   1.531   4.736  10.915  1.8231 -0.1179 -0.0758
 1190TIP3    H224986   1.596   4.870  10.942  0.5945  0.1605  1.6033
 1191TIP3   OH224987   0.683   6.291   4.771 -0.1439 -0.1274 -0.3907
 1191TIP3    H124988   0.644   6.365   4.818 -1.3032 -0.4458 -0.8302
 1191TIP3    H224989   0.775   6.315   4.760 -0.5761  1.3926 -0.8296
 1192TIP3   OH224990   3.270   5.431   3.158 -1.3132  0.2842 -0.0532
 1192TIP3    H124991   3.185   5.413   3.198 -1.1366 -0.9577 -0.2253
 1192TIP3    H224992   3.319   5.479   3.226 -0.9939 -1.8732  1.2674
 1193TIP3   OH224993   5.319   5.551   1.734 -0.4683  0.2754  0.4443
 1193TIP3    H124994   5.227   5.529   1.723  0.1359 -2.6884  0.8557
 1193TIP3    H224995   5.362   5.467   1.751  1.8397  1.9762  3.5560
 1194TIP3   OH224996   1.609   2.749  15.476 -0.2047 -0.4301  0.0437
 1194TIP3    H124997   1.679   2.761  15.411  0.9706  0.2803  1.4037
 1194TIP3    H224998   1.618   2.657  15.503  0.1705 -0.3570  0.1726
 1195TIP3   OH224999   1.074   6.122   4.043  0.5223 -0.5453 -0.0375
 1195TIP3    H125000   1.008   6.115   3.974  0.4500  1.2646 -0.1731
 1195TIP3    H225001   1.101   6.032   4.059 -1.8754 -1.3089 -0.0754
 1196TIP3   OH225002   1.882   3.034   3.393  0.1381  0.0151 -0.1509
 1196TIP3    H125003   1.793   3.048   3.360  0.6457  0.8062 -1.1924
 1196TIP3    H225004   1.937   3.089   3.338  1.6115 -2.4565 -1.2454
 1197TIP3   OH225005   2.020   3.018   4.875 -0.3314  0.3132 -0.9975
 1197TIP3    H125006   2.006   2.963   4.798  0.4686 -1.4346  0.0877
 1197TIP3    H225007   2.085   3.082   4.846 -0.2287 -0.1654 -1.8515
 1198TIP3   OH225008   3.740   2.245   2.166  0.2258 -0.2517  0.2830
 1198TIP3    H125009   3.699   2.253   2.080 -0.7758 -0.2956  0.7486
 1198TIP3    H225010   3.829   2.279   2.154 -0.0521  0.1500 -0.6543
 1199TIP3   OH225011   4.318   5.141  12.487  0.1873  0.1647 -0.3558
 1199TIP3    H125012   4.381   5.074  12.513 -0.8831 -0.2724  1.2344
 1199TIP3    H225013   4.349   5.173  12.403  2.4031 -0.1897  0.3042
 1200TIP3   OH225014   0.343   4.442   4.993  0.0260  0.1121 -0.3681
 1200TIP3    H125015   0.309   4.513   4.940  0.6024  1.5421  1.1434
 1200TIP3    H225016   0.316   4.464   5.082 -0.1649 -1.7897  0.0694
 1201TIP3   OH225017   3.255   5.178   2.514 -0.2573 -0.1766  0.1494
 1201TIP3    H125018   3.260   5.085   2.493  2.0496  0.0971 -0.7044
 1201TIP3    H225019   3.331   5.217   2.470 -0.2192  1.8224  1.8649
 1202TIP3   OH225020   2.225   3.807   5.741  0.2215 -0.0907 -0.1007
 1202TIP3    H125021   2.268   3.868   5.682 -0.5726  1.5717  1.0051
 1202TIP3    H225022   2.255   3.833   5.829 -3.0134  1.1539  0.7041
 1203TIP3   OH225023   3.462   2.340   5.368  0.1486 -0.0173  0.3075
 1203TIP3    H125024   3.370   2.323   5.351  0.4135 -0.4213 -0.7329
 1203TIP3    H225025   3.467   2.352   5.463 -1.2390  1.6946  0.1868
 1204TIP3   OH225026   1.621   4.076  13.543 -0.2428  0.2521  0.2279
 1204TIP3    H125027   1.605   4.011  13.475  0.5172  1.0929 -0.7649
 1204TIP3    H225028   1.592   4.033  13.624  1.0268 -1.6545 -0.2908
 1205TIP3   OH225029   4.193   3.576  14.868 -0.6243 -0.0914  0.4412
 1205TIP3    H125030   4.267   3.517  14.886 -0.6682 -0.1676  0.3705
 1205TIP3    H225031   4.118   3.518  14.857 -0.5526 -0.0584 -0.2182
 1206TIP3   OH225032   4.525   1.942   0.317 -0.3391 -0.1651  0.1647
 1206TIP3    H125033   4.560   1.853   0.309 -3.6954 -1.5061 -0.4285
 1206TIP3    H225034   4.582   1.985   0.380  1.6527 -2.5848  0.0694
 1207TIP3   OH225035   5.253   6.341   0.455 -0.1858  0.2746  0.5346
 1207TIP3    H125036   5.209   6.410   0.405 -1.1264  0.5203  1.6608
 1207TIP3    H225037   5.313   6.300   0.393 -0.0970  1.6824 -0.3271
 1208TIP3   OH225038   3.702   3.008   0.155  0.2425  0.1848 -0.5093
 1208TIP3    H125039   3.763   2.965   0.095  0.8798 -0.7201  0.7894
 1208TIP3    H225040   3.743   3.092   0.175  0.8539 -0.2378  0.0195
 1209TIP3   OH225041   2.597   4.737   2.745 -0.1522  0.1086  0.1704
 1209TIP3    H125042   2.682   4.777   2.725  0.5740 -0.2243  2.4965
 1209TIP3    H225043   2.551   4.737   2.661  0.9019  3.2437 -0.4860
 1210TIP3   OH225044   2.510   3.133  10.735 -0.2796 -0.6307  0.5694
 1210TIP3    H125045   2.555   3.214  10.711 -2.7280  0.3729 -0.7048
 1210TIP3    H225046   2.567   3.063  10.701  1.1661  0.5572  0.5054
 1211TIP3   OH225047   1.490   4.776  15.491 -0.7602 -0.6628  0.1265
 1211TIP3    H125048   1.404   4.746  15.522 -2.4006 -0.3769 -3.8608
 1211TIP3    H225049   1.523   4.703  15.438  1.6208 -0.8526  1.8070
 1212TIP3   OH225050   1.598   4.811  16.233 -0.0191 -0.3382  0.3246
 1212TIP3    H125051   1.559   4.873  16.295  2.9076 -0.9652  2.9333
 1212TIP3    H225052   1.578   4.725  16.271  2.9125 -0.6925  1.1424
 1213TIP3   OH225053   6.163   4.783   2.753  0.1402 -0.5646  0.1138
 1213TIP3    H125054   6.127   4.762   2.667  0.3912 -0.0302 -0.1238
 1213TIP3    H225055   6.228   4.851   2.736  0.4560 -0.7187  0.6802
 1214TIP3   OH225056   0.937   5.313  16.783  0.4270  0.3325  0.5406
 1214TIP3    H125057   0.915   5.300  16.875  0.8073 -0.8971  0.4609
 1214TIP3    H225058   0.875   5.257  16.736  0.2411  0.9483  0.0521
 1215TIP3   OH225059   2.513   3.781  11.901 -0.3502  0.0004  0.0291
 1215TIP3    H125060   2.467   3.851  11.947 -0.2208  0.4105 -0.4693
 1215TIP3    H225061   2.502   3.801  11.808 -0.3892 -0.6872 -0.1220
 1216TIP3   OH225062   5.530   2.389   0.830 -0.1245  0.3642  0.0290
 1216TIP3    H125063   5.530   2.428   0.743  2.8099 -0.3320 -0.3435
 1216TIP3    H225064   5.617   2.351   0.839 -1.1170 -1.4807  2.4317
 1217TIP3   OH225065   1.155   0.533  16.770  0.2045  0.5953  0.0412
 1217TIP3    H125066   1.111   0.545  16.686  0.7831  0.2354 -0.3126
 1217TIP3    H225067   1.238   0.580  16.761 -0.1611  1.3823  0.7600
 1218TIP3   OH225068   0.867   3.091   3.364  0.3258  0.3598 -0.2497
 1218TIP3    H125069   0.796   3.026   3.358  1.8914 -1.4396  0.3139
 1218TIP3    H225070   0.825   3.167   3.403 -1.4275 -0.5121 -0.3584
 1219TIP3   OH225071   5.372   4.132   3.927  0.0981  0.3344  0.0045
 1219TIP3    H125072   5.404   4.087   3.849  0.3723 -0.2922  0.4821
 1219TIP3    H225073   5.395   4.224   3.912  1.0834  0.0648 -0.1825
 1220TIP3   OH225074   4.825   0.465  13.969  0.3959 -0.1993  0.3645
 1220TIP3    H125075   4.745   0.516  13.959  0.5641  0.0795  0.4516
 1220TIP3    H225076   4.880   0.518  14.026  0.7473 -0.2696  0.0906
 1221TIP3   OH225077   5.745   1.116   3.758 -0.1924  0.0486 -0.2494
 1221TIP3    H125078   5.812   1.184   3.763 -3.1021  2.9850  0.0347
 1221TIP3    H225079   5.687   1.134   3.832 -0.3518 -3.5544  0.6149
 1222TIP3   OH225080   2.485   6.742   0.391  0.1636  0.4340  0.2190
 1222TIP3    H125081   2.427   6.684   0.440  0.7969 -0.2403  0.1669
 1222TIP3    H225082   2.572   6.705   0.403  0.3798  0.5185 -1.0369
 1223TIP3   OH225083   1.443   2.151   3.156 -0.0563 -0.2163  0.3271
 1223TIP3    H125084   1.484   2.221   3.208  0.0563  0.6109 -0.8538
 1223TIP3    H225085   1.508   2.128   3.090  0.3894 -2.3265  1.4563
 1224TIP3   OH225086   1.829   1.474   4.447  0.6089  0.3657  0.3740
 1224TIP3    H125087   1.913   1.430   4.431  1.8863  3.1741 -0.9378
 1224TIP3    H225088   1.791   1.486   4.360 -0.5454  0.3416  0.8628
 1225TIP3   OH225089   6.182   3.628  10.446 -0.1166  0.3087 -0.1473
 1225TIP3    H125090   6.088   3.617  10.432 -0.1360  2.2949 -1.8056
 1225TIP3    H225091   6.200   3.718  10.419  1.9582  0.5484  1.8812
 1226TIP3   OH225092   3.417   5.444   2.913  0.1845 -0.4834  0.6334
 1226TIP3    H125093   3.434   5.368   2.858  0.0345 -0.4570  0.5519
 1226TIP3    H225094   3.380   5.408   2.993 -0.8443 -0.4148  0.1938
 1227TIP3   OH225095   6.305   3.132  12.964 -0.6508  0.3217 -0.1989
 1227TIP3    H125096   6.282   3.075  12.891 -2.3808 -0.4953  0.9399
 1227TIP3    H225097   6.255   3.097  13.038  1.0924  1.0918  1.3870
 1228TIP3   OH225098   1.271   5.149  13.742 -0.6404 -0.0833  0.4171
 1228TIP3    H125099   1.344   5.097  13.776  0.5086  0.6217 -0.9422
 1228TIP3    H225100   1.257   5.217  13.808 -0.5079 -0.6100  0.9969
 1229TIP3   OH225101   1.109   3.951  16.277 -0.8210  0.4387  0.1036
 1229TIP3    H125102   1.133   3.885  16.342  1.0832 -0.2876 -1.2799
 1229TIP3    H225103   1.097   4.032  16.327 -2.1609 -0.7039  1.6905
 1230TIP3   OH225104   0.533   4.042   1.602 -1.0160 -0.2805 -0.2221
 1230TIP3    H125105   0.578   4.077   1.679 -1.2176  1.8275 -1.0090
 1230TIP3    H225106   0.603   4.008   1.546 -0.7385 -0.5015  0.2610
 1231TIP3   OH225107   1.271   6.244  13.323 -0.1684  0.0728  0.3375
 1231TIP3    H125108   1.223   6.244  13.240 -0.5883  1.5842  0.5608
 1231TIP3    H225109   1.355   6.203  13.302 -0.6389 -0.4348 -0.6061
 1232TIP3   OH225110   0.501   4.708   1.914  0.1770  0.0284 -0.0382
 1232TIP3    H125111   0.524   4.709   2.007 -1.1074  1.1502  0.2836
 1232TIP3    H225112   0.582   4.731   1.869  0.4021  1.1430  0.9152
 1233TIP3   OH225113   5.412   2.295   6.622 -0.1288 -0.3161  0.6924
 1233TIP3    H125114   5.369   2.354   6.560 -1.3434 -0.1740  1.6497
 1233TIP3    H225115   5.431   2.349   6.698  1.3070 -0.5075  0.4838
 1234TIP3   OH225116   5.942   4.556  11.527  0.2684 -0.0566  0.3684
 1234TIP3    H125117   6.007   4.559  11.597 -0.9799 -0.5770  1.5580
 1234TIP3    H225118   5.917   4.464  11.521  0.8056 -0.1190 -1.1825
 1235TIP3   OH225119   3.587   0.951   5.837  0.5564  0.5081  0.0142
 1235TIP3    H125120   3.621   0.976   5.923 -0.1488  1.9378 -0.1155
 1235TIP3    H225121   3.507   1.003   5.827 -0.3453 -0.9738 -0.7416
 1236TIP3   OH225122   6.049   6.198   2.918  0.1291  0.3619  0.0156
 1236TIP3    H125123   6.074   6.108   2.895 -2.1715 -0.1490 -0.5866
 1236TIP3    H225124   5.960   6.208   2.885 -0.1040  2.4676  1.1713
 1237TIP3   OH225125   2.924   0.785   1.629 -0.2394 -0.3087  0.0917
 1237TIP3    H125126   2.967   0.823   1.706 -0.0521 -1.9967  0.8614
 1237TIP3    H225127   2.991   0.732   1.588 -1.0782 -1.5934  0.3270
 1238TIP3   OH225128   5.960   6.449   4.539  0.2059 -0.6004 -0.2770
 1238TIP3    H125129   5.992   6.362   4.517  0.8488 -1.3727  3.4293
 1238TIP3    H225130   6.006   6.472   4.620 -0.4822  2.9033 -0.7840
 1239TIP3   OH225131   6.035   3.108  17.067  0.4282  0.2109  0.4691
 1239TIP3    H125132   6.115   3.133  17.113 -0.5337 -0.8682  2.8156
 1239TIP3    H225133   5.964   3.144  17.120 -0.6551  2.1870 -2.2249
 1240TIP3   OH225134   4.882   1.890  11.800  0.8772  0.1872 -0.1459
 1240TIP3    H125135   4.893   1.825  11.730  3.4136 -0.1605  0.5372
 1240TIP3    H225136   4.851   1.839  11.875  2.9272 -0.2835  0.4092
 1241TIP3   OH225137   4.102   2.692   1.941  0.2253 -0.3001  0.2729
 1241TIP3    H125138   4.187   2.687   1.898  0.8434 -2.1541  1.6596
 1241TIP3    H225139   4.119   2.669   2.032 -1.7942 -0.9710  0.5167
 1242TIP3   OH225140   3.647   0.804   6.207 -0.3446  0.6145  0.9397
 1242TIP3    H125141   3.664   0.808   6.113  0.3694 -0.1393  1.0330
 1242TIP3    H225142   3.675   0.889   6.240 -0.7694  0.9482  0.4396
 1243TIP3   OH225143   5.029   4.157   2.704  0.0144  0.1926 -0.5313
 1243TIP3    H125144   4.967   4.210   2.654 -0.8232  1.1210  1.4843
 1243TIP3    H225145   4.978   4.082   2.734  0.2426  0.1872 -0.1487
 1244TIP3   OH225146   0.250   5.754  10.538  0.4679  0.1667  0.3134
 1244TIP3    H125147   0.327   5.764  10.594  0.6932  0.2065  0.0016
 1244TIP3    H225148   0.227   5.662  10.544  2.2134 -0.4432 -1.7537
 1245TIP3   OH225149   6.732   3.556  14.450 -0.2962  0.1678 -0.1464
 1245TIP3    H125150   6.790   3.487  14.483  1.3691  1.2334 -0.7819
 1245TIP3    H225151   6.681   3.583  14.526 -0.4913 -1.3040  0.2546
 1246TIP3   OH225152   6.561   2.135  12.146 -0.2688 -0.4999 -0.1781
 1246TIP3    H125153   6.495   2.200  12.168  0.0278 -0.3105  0.1478
 1246TIP3    H225154   6.645   2.176  12.167 -0.1080 -1.1950  0.5797
 1247TIP3   OH225155   2.429   3.656   2.829 -0.0165 -0.5400 -0.3053
 1247TIP3    H125156   2.456   3.747   2.841  1.5306 -0.9036 -0.8731
 1247TIP3    H225157   2.366   3.659   2.757  2.6833 -0.2835 -2.7989
 1248TIP3   OH225158   3.499   3.613   3.080 -0.0099  0.6402 -0.3782
 1248TIP3    H125159   3.582   3.630   3.037  1.0346 -1.7206  0.6495
 1248TIP3    H225160   3.467   3.531   3.042 -1.6225  1.2492 -0.3984
 1249TIP3   OH225161   0.321   6.549   2.805 -0.8431 -0.5627 -0.2088
 1249TIP3    H125162   0.385   6.488   2.768 -0.9968 -0.6638 -0.3049
 1249TIP3    H225163   0.294   6.509   2.887 -1.1725 -0.7704 -0.4195
 1250TIP3   OH225164   6.087   6.474   0.235  0.3325 -0.0737  0.0805
 1250TIP3    H125165   6.053   6.514   0.316  1.4847 -0.8157  0.9402
 1250TIP3    H225166   6.168   6.521   0.218  0.3532 -0.2727 -0.3707
 1251TIP3   OH225167   6.503   4.647   0.308 -0.2234  0.0354  0.2087
 1251TIP3    H125168   6.410   4.660   0.289 -0.9915  0.3776  3.6941
 1251TIP3    H225169   6.548   4.714   0.257 -2.1844  1.7319  0.6372
 1252TIP3   OH225170   5.103   1.091   3.957  0.3265  0.7570 -0.5716
 1252TIP3    H125171   5.170   1.029   3.984  0.3458  1.4919  1.1512
 1252TIP3    H225172   5.139   1.134   3.879  0.5092 -1.0379 -1.4893
 1253TIP3   OH225173   0.100   1.680  15.031  0.3068 -0.1452  0.4403
 1253TIP3    H125174   0.139   1.623  15.098  0.4171  1.2771  1.5883
 1253TIP3    H225175   0.140   1.765  15.045 -1.6577  0.8289  0.2837
 1254TIP3   OH225176   1.084   2.237   5.483  0.5029 -0.0031  0.0421
 1254TIP3    H125177   1.007   2.238   5.426 -0.2940  1.0794  1.1191
 1254TIP3    H225178   1.146   2.179   5.438 -0.3247  0.3788 -1.6313
 1255TIP3   OH225179   2.173   3.302  13.302  0.4767 -0.3912  0.2597
 1255TIP3    H125180   2.228   3.336  13.373  0.1920 -0.4029  0.4888
 1255TIP3    H225181   2.144   3.216  13.334 -1.4641  0.5469  1.0961
 1256TIP3   OH225182   2.198   6.008   3.194  0.0344  0.6282 -0.3577
 1256TIP3    H125183   2.262   5.959   3.246  0.8423  1.8022 -0.2406
 1256TIP3    H225184   2.237   6.016   3.107  0.1420  1.5097 -0.2348
 1257TIP3   OH225185   1.106   3.268   0.336 -0.6215  0.0755  0.0985
 1257TIP3    H125186   1.097   3.362   0.322 -0.6374  0.1437  0.5544
 1257TIP3    H225187   1.017   3.233   0.331 -0.7985  0.3112  1.5229
 1258TIP3   OH225188   1.087   2.839   4.234  0.3947 -0.5883 -0.3176
 1258TIP3    H125189   1.169   2.873   4.270 -1.7002  2.8550  1.4482
 1258TIP3    H225190   1.114   2.772   4.171  4.5317  0.4096  0.2756
 1259TIP3   OH225191   5.584   5.030  15.071 -0.0809  0.2252  0.1066
 1259TIP3    H125192   5.582   5.098  15.005  0.7185 -0.3467 -0.5046
 1259TIP3    H225193   5.676   5.004  15.077 -0.2911 -0.3893  0.7533
 1260TIP3   OH225194   2.475   6.144   5.368 -0.1411  0.1605  0.3182
 1260TIP3    H125195   2.406   6.089   5.404  0.7202 -0.8742  0.4388
 1260TIP3    H225196   2.466   6.135   5.273  0.7052 -1.1333  0.3422
 1261TIP3   OH225197   3.455   6.000  13.749  0.2650  0.5576  0.5386
 1261TIP3    H125198   3.506   6.070  13.709  1.9790 -0.8925  0.0934
 1261TIP3    H225199   3.364   6.030  13.744  0.6770  1.4923 -2.2263
 1262TIP3   OH225200   0.873   0.072  11.122 -0.0677  0.2963 -0.6207
 1262TIP3    H125201   0.871   0.137  11.052 -4.1821  1.8807  0.8193
 1262TIP3    H225202   0.792   0.023  11.112  1.2691 -2.2649  0.5443
 1263TIP3   OH225203   6.130   2.193   6.939  0.2138  0.4158 -0.2055
 1263TIP3    H125204   6.083   2.166   7.017 -0.8523 -0.9560 -1.3028
 1263TIP3    H225205   6.173   2.114   6.907  0.0856  0.8015 -1.3765
 1264TIP3   OH225206   0.259   1.731  16.066  0.2032  0.1679 -0.5243
 1264TIP3    H125207   0.178   1.695  16.103  0.5223  1.5291  1.6436
 1264TIP3    H225208   0.247   1.724  15.971 -2.1333 -0.3715 -0.2395
 1265TIP3   OH225209   1.821   1.679   1.413 -0.0158 -0.1997  0.2557
 1265TIP3    H125210   1.879   1.719   1.348  2.0785 -2.1294  0.8962
 1265TIP3    H225211   1.773   1.753   1.450  0.7099  1.2359 -1.5591
 1266TIP3   OH225212   1.331   4.169  14.290 -0.5762 -0.6097 -0.4983
 1266TIP3    H125213   1.349   4.111  14.364 -1.9959  0.5553  0.7720
 1266TIP3    H225214   1.255   4.130  14.247  0.2005 -1.2429 -1.3260
 1267TIP3   OH225215   3.571   2.433  11.325 -0.5745 -0.2542 -0.5681
 1267TIP3    H125216   3.515   2.472  11.259 -2.0622 -2.2693 -0.5339
 1267TIP3    H225217   3.539   2.469  11.408 -2.3888 -1.9648 -0.4742
 1268TIP3   OH225218   4.624   3.516  11.704  0.4526  0.3170  0.2519
 1268TIP3    H125219   4.679   3.482  11.633 -0.7721 -0.5207 -0.3128
 1268TIP3    H225220   4.674   3.589  11.740  1.6662 -0.0560 -0.6433
 1269TIP3   OH225221   6.317   5.922   2.630 -0.3998  0.2644  0.1683
 1269TIP3    H125222   6.251   5.856   2.608  0.9132 -0.7516 -0.8062
 1269TIP3    H225223   6.400   5.884   2.602  0.7226  1.2030  2.0763
 1270TIP3   OH225224   2.137   3.480   5.110  0.0208  0.2110 -0.1643
 1270TIP3    H125225   2.157   3.434   5.191  0.4939 -0.2909 -0.5675
 1270TIP3    H225226   2.218   3.524   5.086 -0.7653  2.3231  0.8970
 1271TIP3   OH225227   6.514   0.962  16.309  0.7077 -0.1280  0.2498
 1271TIP3    H125228   6.576   0.996  16.246  0.6865  0.4504  0.5383
 1271TIP3    H225229   6.456   1.036  16.328 -0.5033 -0.8598 -0.5522
 1272TIP3   OH225230   3.463   5.039   3.373 -0.1356 -0.1200 -0.5850
 1272TIP3    H125231   3.371   5.063   3.358 -0.5214 -1.0416  0.2860
 1272TIP3    H225232   3.497   5.110   3.427 -1.2633 -1.4590  1.9455
 1273TIP3   OH225233   6.647   4.606  16.680  0.3980 -0.3311 -0.1063
 1273TIP3    H125234   6.674   4.515  16.670 -0.6706 -0.5977 -0.6218
 1273TIP3    H225235   6.624   4.634  16.592  0.0435  0.2238  0.1591
 1274TIP3   OH225236   5.692   2.763   3.738 -0.4298  0.5079 -0.0582
 1274TIP3    H125237   5.785   2.764   3.761 -0.0520  0.8329 -1.5625
 1274TIP3    H225238   5.687   2.714   3.656 -1.6302  0.2159  0.1755
 1275TIP3   OH225239   5.746   5.352  16.728 -0.1827 -0.4900  0.0548
 1275TIP3    H125240   5.670   5.374  16.781  0.1358  0.8939 -0.0344
 1275TIP3    H225241   5.710   5.329  16.642 -0.4455  1.3203 -0.3412
 1276TIP3   OH225242   1.088   6.619  11.483 -0.5624  0.3186 -0.1684
 1276TIP3    H125243   0.995   6.622  11.461 -0.3443  1.6843 -0.9901
 1276TIP3    H225244   1.105   6.703  11.525  0.1904 -0.1378  0.4541
 1277TIP3   OH225245   0.709   0.464   4.786  0.0446 -0.7088  0.4561
 1277TIP3    H125246   0.789   0.444   4.834 -0.9476 -0.6255  2.1908
 1277TIP3    H225247   0.737   0.522   4.715  1.4143 -0.1188  1.4546
 1278TIP3   OH225248   6.511   3.343  16.410 -0.0242 -0.3448 -0.0688
 1278TIP3    H125249   6.566   3.294  16.472  0.3953 -0.0837 -0.2342
 1278TIP3    H225250   6.522   3.434  16.436  0.7651 -0.1682 -1.0235
 1279TIP3   OH225251   1.099   5.836   2.015 -0.4793 -0.0734  0.5270
 1279TIP3    H125252   1.149   5.766   2.058  0.8511  1.0006  0.7787
 1279TIP3    H225253   1.097   5.907   2.080 -1.5614  0.2396  0.1631
 1280TIP3   OH225254   2.660   5.689  15.059 -0.1844 -0.4111  0.0319
 1280TIP3    H125255   2.672   5.682  15.153  0.9772 -1.9389 -0.2130
 1280TIP3    H225256   2.629   5.602  15.032 -2.0848  0.4761 -0.7863
 1281TIP3   OH225257   4.033   5.185   3.376 -0.4067  0.2572  0.4053
 1281TIP3    H125258   3.984   5.142   3.306  0.3012 -0.0833  0.1062
 1281TIP3    H225259   4.005   5.276   3.373 -2.0693 -0.2131  1.1638
 1282TIP3   OH225260   2.120   3.474   4.814 -0.1544 -0.2070  0.0259
 1282TIP3    H125261   2.151   3.561   4.839 -1.4529  0.4026 -0.4486
 1282TIP3    H225262   2.132   3.421   4.892 -2.3354  1.1879  1.3582
 1283TIP3   OH225263   2.006   2.964  15.309  0.0051  0.1249  0.4928
 1283TIP3    H125264   2.099   2.979  15.295  0.5072 -1.7774  1.5133
 1283TIP3    H225265   1.993   2.981  15.403 -0.0817 -2.2209  0.9484
 1284TIP3   OH225266   2.867   2.873   2.310  0.4702  0.8798 -0.1908
 1284TIP3    H125267   2.870   2.944   2.374  2.0999 -0.4576  1.2567
 1284TIP3    H225268   2.805   2.810   2.347 -1.7876  1.9663 -1.9767
 1285TIP3   OH225269   5.105   5.313  15.788  0.5214  0.4822 -0.2206
 1285TIP3    H125270   5.161   5.312  15.865  1.3412  0.8725 -0.8061
 1285TIP3    H225271   5.140   5.244  15.731 -1.0295 -0.8483  0.4195
 1286TIP3   OH225272   1.840   0.128  15.012  0.1166  0.7543  0.4820
 1286TIP3    H125273   1.781   0.194  15.047 -0.4054  0.8231 -0.5221
 1286TIP3    H225274   1.786   0.050  15.001  0.0703  0.9583 -0.9014
 1287TIP3   OH225275   0.674   3.812  14.278 -0.0021  0.3084  0.0723
 1287TIP3    H125276   0.652   3.905  14.288  0.0591  0.2933  0.3701
 1287TIP3    H225277   0.683   3.780  14.368  3.5220  0.8752 -0.0092
 1288TIP3   OH225278   6.032   1.411  16.901 -0.8459  0.1734  0.3545
 1288TIP3    H125279   6.123   1.439  16.907 -1.6236  2.8855  0.1015
 1288TIP3    H225280   5.999   1.451  16.821 -2.2428 -0.8628  0.3808
 1289TIP3   OH225281   3.444   0.629  16.321 -0.0516  0.1219  0.1641
 1289TIP3    H125282   3.471   0.661  16.235  1.3805 -0.0511  0.5365
 1289TIP3    H225283   3.369   0.683  16.345 -0.0112  0.6456 -0.8845
 1290TIP3   OH225284   2.770   1.213   5.139  0.1921  0.6854 -0.5259
 1290TIP3    H125285   2.838   1.202   5.072  0.7709  0.5534  0.0828
 1290TIP3    H225286   2.776   1.133   5.192  0.4995  1.2956  0.3717
 1291TIP3   OH225287   2.772   6.493  13.840  0.2675  0.8521  0.1893
 1291TIP3    H125288   2.776   6.584  13.810  1.5356  0.4656 -0.8767
 1291TIP3    H225289   2.775   6.499  13.935  0.8074  1.9175  0.1158
 1292TIP3   OH225290   6.212   2.098   2.693 -0.1131 -0.2506 -0.1666
 1292TIP3    H125291   6.234   2.006   2.682 -2.1055 -0.7915  0.2665
 1292TIP3    H225292   6.116   2.101   2.692 -0.0765  1.8698 -0.6701
 1293TIP3   OH225293   5.373   4.499  12.335  0.1982  0.1956 -0.3325
 1293TIP3    H125294   5.363   4.497  12.430 -1.5956  2.0154 -0.4450
 1293TIP3    H225295   5.467   4.484  12.321  0.5531  0.2486  1.7307
 1294TIP3   OH225296   2.447   3.208  11.927  0.2706 -0.4474  0.1633
 1294TIP3    H125297   2.455   3.285  11.870  0.9759  0.1859  1.0997
 1294TIP3    H225298   2.375   3.230  11.986  1.6914  0.3292  1.6689
 1295TIP3   OH225299   4.007   1.595   2.373 -0.6913  0.0017 -0.1720
 1295TIP3    H125300   3.924   1.585   2.421 -0.5276  2.6235  0.7345
 1295TIP3    H225301   3.981   1.606   2.282 -1.3558  0.7187  0.0961
 1296TIP3   OH225302   5.436   3.235  13.532  0.0825  0.4020 -0.3597
 1296TIP3    H125303   5.452   3.240  13.438  0.5466 -1.8528 -0.4286
 1296TIP3    H225304   5.476   3.313  13.568  1.5200  0.3597 -1.8306
 1297TIP3   OH225305   3.537   1.677  13.022  0.1049  0.0842 -0.0533
 1297TIP3    H125306   3.465   1.723  12.979 -0.0237 -2.1319 -2.3626
 1297TIP3    H225307   3.612   1.734  13.011 -0.1077 -0.0625 -2.6534
 1298TIP3   OH225308   0.638   4.821  15.131  0.7725  0.2408  0.6093
 1298TIP3    H125309   0.637   4.788  15.041 -0.1325 -1.2785  1.1540
 1298TIP3    H225310   0.604   4.749  15.183  0.2344  1.4967  2.0426
 1299TIP3   OH225311   5.667   4.898   4.395  0.0498 -0.3369 -0.4311
 1299TIP3    H125312   5.760   4.876   4.398  0.1555 -0.1019 -1.6123
 1299TIP3    H225313   5.651   4.944   4.477  0.9884 -0.3158 -0.2472
 1300TIP3   OH225314   2.139   4.938  14.135 -0.0984 -0.2474  0.5664
 1300TIP3    H125315   2.103   4.986  14.209 -0.8538 -1.2077  0.8415
 1300TIP3    H225316   2.200   4.876  14.173 -3.4329 -3.5189  0.8636
 1301TIP3   OH225317   4.564   0.739   0.184  0.0473 -0.0518 -0.0129
 1301TIP3    H125318   4.519   0.821   0.168 -1.7577 -0.6541  1.7817
 1301TIP3    H225319   4.649   0.765   0.220 -0.2552  1.0363 -0.0716
 1302TIP3   OH225320   3.318   6.534   3.328 -0.8336  0.0282  0.2966
 1302TIP3    H125321   3.262   6.523   3.404  0.2750 -2.6304  0.7863
 1302TIP3    H225322   3.310   6.452   3.280  1.5678  0.0994 -0.3322
 1303TIP3   OH225323   1.181   6.000  13.491 -0.4075 -0.2958  0.4587
 1303TIP3    H125324   1.212   6.085  13.522 -2.5170  0.0891  1.5498
 1303TIP3    H225325   1.184   6.007  13.396  0.3326  0.6496  0.5424
 1304TIP3   OH225326   4.086   2.664   1.000  0.3170  0.1077  0.2145
 1304TIP3    H125327   4.177   2.646   0.975 -0.1348 -1.9748  0.0359
 1304TIP3    H225328   4.051   2.713   0.925  0.6241 -1.0976 -0.7310
 1305TIP3   OH225329   5.903   4.678  10.817  0.3917 -0.2926  0.1354
 1305TIP3    H125330   5.910   4.714  10.729  1.4536 -2.8630 -0.8543
 1305TIP3    H225331   5.957   4.599  10.816 -0.8953 -1.2703  2.6204
 1306TIP3   OH225332   3.219   5.511  11.484 -0.7193  0.3224 -0.0303
 1306TIP3    H125333   3.205   5.601  11.512 -1.6169 -0.1403  1.0628
 1306TIP3    H225334   3.306   5.511  11.444  1.3288  0.7434  4.1347
 1307TIP3   OH225335   6.455   3.185  16.885  0.4157  0.9022 -0.5889
 1307TIP3    H125336   6.514   3.167  16.813 -1.1889  0.7480 -1.9052
 1307TIP3    H225337   6.414   3.100  16.904 -0.7199  1.3682 -0.9162
 1308TIP3   OH225338   0.303   6.491   3.084 -0.6878 -0.5368  0.4165
 1308TIP3    H125339   0.210   6.485   3.104 -0.4734  0.1173  1.6929
 1308TIP3    H225340   0.346   6.496   3.170  0.4384  0.2045 -0.1684
 1309TIP3   OH225341   5.219   2.006   4.377  0.2527  0.2835 -0.0959
 1309TIP3    H125342   5.177   1.943   4.319 -0.2113 -0.9789  1.5628
 1309TIP3    H225343   5.199   1.974   4.466 -0.5059  3.0807  0.8091
 1310TIP3   OH225344   1.617   6.715  13.900  0.0170 -0.7648  0.0534
 1310TIP3    H125345   1.545   6.743  13.844 -0.5039 -0.8126  0.6959
 1310TIP3    H225346   1.680   6.675  13.840 -0.2452 -0.2310 -0.5772
 1311TIP3   OH225347   0.080   3.898   0.005 -0.5819  0.0929 -0.2922
 1311TIP3    H125348   0.142   3.884  -0.067  0.5743  3.0528  0.0631
 1311TIP3    H225349   0.029   3.974  -0.022  1.1872  2.4795  2.8163
 1312TIP3   OH225350   6.190   3.166  16.000  0.7244 -0.5565 -0.0747
 1312TIP3    H125351   6.103   3.172  15.961  0.8774  0.1713 -0.3060
 1312TIP3    H225352   6.245   3.222  15.945  1.2550 -0.6888  0.3136
 1313TIP3   OH225353   3.493   3.545   2.687 -0.3672 -0.6113 -0.3099
 1313TIP3    H125354   3.493   3.636   2.657 -0.8991 -0.4631  0.1415
 1313TIP3    H225355   3.584   3.517   2.677 -0.3758 -0.3035 -1.2790
 1314TIP3   OH225356   4.007   1.659   4.130 -0.0805 -0.5398  0.1054
 1314TIP3    H125357   4.017   1.600   4.204 -0.3834 -0.3187  0.3217
 1314TIP3    H225358   3.990   1.744   4.169 -1.0898 -0.5795 -0.2370
 1315TIP3   OH225359   6.321   6.030  15.213 -0.3696  0.7535  0.2541
 1315TIP3    H125360   6.320   6.111  15.162 -2.5019  1.5239  1.4516
 1315TIP3    H225361   6.362   6.054  15.296 -1.7748  0.8320  0.9379
 1316TIP3   OH225362   0.617   0.747   5.872  0.2636 -0.2807  0.3928
 1316TIP3    H125363   0.657   0.664   5.847 -0.8641 -0.0515 -2.3893
 1316TIP3    H225364   0.551   0.724   5.938 -0.0171 -1.6094 -0.3357
 1317TIP3   OH225365   5.798   2.729  15.105  0.2194 -0.0174  0.0686
 1317TIP3    H125366   5.713   2.696  15.135  0.5573 -1.0315 -0.0518
 1317TIP3    H225367   5.800   2.820  15.134  0.1938 -0.7410  2.4696
 1318TIP3   OH225368   5.344   3.920   6.140  0.4461  0.1374  0.5815
 1318TIP3    H125369   5.293   3.883   6.067  2.2764  1.4801 -1.4294
 1318TIP3    H225370   5.388   3.845   6.179 -0.2310 -0.5412  0.0670
 1319TIP3   OH225371   6.236   0.392   0.119 -0.0422  0.0673  0.2220
 1319TIP3    H125372   6.154   0.425   0.154 -1.3871 -1.7604 -1.1121
 1319TIP3    H225373   6.231   0.410   0.025  0.0014 -2.1721 -0.2361
 1320TIP3   OH225374   6.365   0.990   0.158 -0.3478  0.4624  0.5343
 1320TIP3    H125375   6.347   1.034   0.240 -1.9181  0.5236  0.1688
 1320TIP3    H225376   6.291   1.012   0.101  0.5457  0.1523 -0.7840
 1321TIP3   OH225377   4.373   1.502  11.946 -0.3877 -0.2376 -0.0687
 1321TIP3    H125378   4.355   1.503  11.852 -0.6354 -0.0461 -0.0218
 1321TIP3    H225379   4.297   1.458  11.985 -0.5971  0.2684  0.1010
 1322TIP3   OH225380   2.693   1.913  12.778  0.0537  0.1795 -0.6221
 1322TIP3    H125381   2.717   1.967  12.703 -1.0771  0.2466 -0.9406
 1322TIP3    H225382   2.598   1.917  12.781  0.0849  0.1236  0.7721
 1323TIP3   OH225383   0.047   1.752  14.590 -0.3367 -0.0856  0.8918
 1323TIP3    H125384  -0.004   1.697  14.530 -0.0399 -1.8089  2.1620
 1323TIP3    H225385   0.127   1.771  14.541 -0.7257 -0.2289  0.1812
 1324TIP3   OH225386   3.841   3.089  15.587  0.8304 -0.1302 -0.1442
 1324TIP3    H125387   3.901   3.158  15.559  0.2583  0.2053 -0.5404
 1324TIP3    H225388   3.830   3.102  15.681  0.3848  0.5753 -0.2957
 1325TIP3   OH225389   4.235   6.069   0.576 -0.2979  0.4715 -0.2483
 1325TIP3    H125390   4.194   6.001   0.629  0.6193  0.4157  0.4080
 1325TIP3    H225391   4.265   6.023   0.498 -1.8605  0.5974 -0.9451
 1326TIP3   OH225392   4.469   1.034   3.524 -0.4411  0.5379 -0.3637
 1326TIP3    H125393   4.463   1.104   3.589 -2.2338 -0.2400  0.3377
 1326TIP3    H225394   4.528   0.970   3.565  1.5027  1.7760 -1.1673
 1327TIP3   OH225395   3.168   5.413  11.791  0.5465  0.3008 -0.1196
 1327TIP3    H125396   3.234   5.346  11.811  0.4519  0.1490 -0.3123
 1327TIP3    H225397   3.219   5.490  11.766  0.6633  0.4808  0.6747
 1328TIP3   OH225398   0.073   2.000  15.565 -0.0421  0.4875  0.5321
 1328TIP3    H125399   0.020   1.934  15.610 -0.4449  1.0177  0.8308
 1328TIP3    H225400   0.050   2.082  15.607 -0.3667  0.9847 -0.6074
 1329TIP3   OH225401   2.791   6.282   3.757  0.1982 -0.3528  0.1263
 1329TIP3    H125402   2.831   6.196   3.743  0.4151  0.1394 -2.4354
 1329TIP3    H225403   2.697   6.268   3.740  0.1529 -0.1849  0.2310
 1330TIP3   OH225404   3.178   1.043  17.216 -0.2297 -0.1547  0.4807
 1330TIP3    H125405   3.172   1.136  17.192 -1.5470  0.0954  1.6852
 1330TIP3    H225406   3.104   1.029  17.276 -0.2604 -2.0759  0.0333
 1331TIP3   OH225407   6.520   0.597  14.757  0.0793 -0.4595  0.2819
 1331TIP3    H125408   6.459   0.659  14.797 -0.4850 -1.0389  0.3207
 1331TIP3    H225409   6.591   0.652  14.723 -0.2323  0.1744  0.6444
 1332TIP3   OH225410   5.517   0.224   2.107 -0.8308 -0.3957 -0.1309
 1332TIP3    H125411   5.488   0.315   2.100 -2.3291 -0.9205 -0.8493
 1332TIP3    H225412   5.535   0.211   2.200 -3.1188 -0.1158  0.3712
 1333TIP3   OH225413   6.592   1.528  13.907  0.3254  0.1288 -0.3497
 1333TIP3    H125414   6.603   1.581  13.986 -0.7367  0.0071 -0.1179
 1333TIP3    H225415   6.585   1.592  13.836  1.2828  0.2386 -0.3536
 1334TIP3   OH225416   5.212   1.370   3.567 -0.7520 -0.4061 -0.1537
 1334TIP3    H125417   5.117   1.367   3.562 -0.8676 -0.5683  1.8854
 1334TIP3    H225418   5.238   1.284   3.598  0.2571 -1.1665 -2.9433
 1335TIP3   OH225419   1.750   4.241   0.186 -0.0356 -0.0621  0.0872
 1335TIP3    H125420   1.680   4.177   0.171  0.6177 -0.9142  0.6223
 1335TIP3    H225421   1.774   4.271   0.098 -0.8297 -0.0303 -0.1186
 1336TIP3   OH225422   4.117   4.756   0.795 -0.2106  0.4441 -0.1712
 1336TIP3    H125423   4.118   4.743   0.700  0.7256  1.0723 -0.2565
 1336TIP3    H225424   4.025   4.747   0.820 -0.4598  0.2873 -1.1446
 1337TIP3   OH225425   5.045   3.642   5.645 -0.1729  0.3895  0.3634
 1337TIP3    H125426   5.039   3.583   5.721 -0.8662 -1.3296 -0.9973
 1337TIP3    H225427   5.127   3.689   5.659 -0.3086  0.1493  2.2124
 1338TIP3   OH225428   4.826   0.109  12.297  0.1249  0.6889  0.1040
 1338TIP3    H125429   4.757   0.154  12.248 -0.2228 -0.9675 -0.9629
 1338TIP3    H225430   4.786   0.090  12.382 -0.4539  0.4801 -0.2124
 1339TIP3   OH225431   3.367   3.951  14.883  0.1122 -0.5404 -0.8112
 1339TIP3    H125432   3.365   3.870  14.831 -0.1056  0.1028 -1.8172
 1339TIP3    H225433   3.320   3.929  14.963 -0.7835 -1.1402 -1.4941
 1340TIP3   OH225434   3.227   2.032   4.421  0.1029  0.2255  0.2342
 1340TIP3    H125435   3.295   1.974   4.387  0.4871  0.3931  0.7196
 1340TIP3    H225436   3.145   1.988   4.399  0.3030  0.8367 -1.8950
 1341TIP3   OH225437   1.334   6.293  17.103 -0.1184  0.2985 -0.0027
 1341TIP3    H125438   1.377   6.316  17.020 -2.2592 -0.2766 -1.3142
 1341TIP3    H225439   1.327   6.376  17.150 -1.0181  1.0685 -1.4546
 1342TIP3   OH225440   6.454   1.820  12.631 -0.7292 -0.2003 -0.3555
 1342TIP3    H125441   6.476   1.913  12.619  0.3446 -0.3875  0.1080
 1342TIP3    H225442   6.361   1.820  12.655 -0.9929  0.6795 -1.3161
 1343TIP3   OH225443   3.542   2.011  15.337 -0.4475  0.4118 -0.1968
 1343TIP3    H125444   3.625   2.038  15.297 -0.0933 -1.7314 -0.9597
 1343TIP3    H225445   3.476   2.034  15.272 -0.3421  1.1246 -0.0542
 1344TIP3   OH225446   0.922   0.301   1.511  0.7296 -0.3918  0.4409
 1344TIP3    H125447   0.922   0.396   1.517  2.1580 -0.4149  1.1118
 1344TIP3    H225448   0.830   0.276   1.516 -0.0482  1.1773 -3.9732
 1345TIP3   OH225449   2.927   0.317   3.589 -0.1791 -0.3179  0.6552
 1345TIP3    H125450   2.944   0.407   3.562 -1.5783 -0.5526 -1.0379
 1345TIP3    H225451   2.847   0.322   3.642  0.2112 -0.4600  1.2690
 1346TIP3   OH225452   5.310   6.028   4.323  0.2022  0.1940 -0.4183
 1346TIP3    H125453   5.315   6.120   4.349  0.4548  0.7234 -2.2795
 1346TIP3    H225454   5.377   5.985   4.376  0.5420  1.1849 -0.0160
 1347TIP3   OH225455   3.974   6.737   3.601 -0.3701 -0.1365  0.0156
 1347TIP3    H125456   4.054   6.720   3.652 -0.6406 -2.0844 -0.1562
 1347TIP3    H225457   3.903   6.721   3.662 -0.6495  0.9458 -0.0197
 1348TIP3   OH225458   3.657   0.477   1.028  0.4175  0.3880 -0.1729
 1348TIP3    H125459   3.574   0.475   1.076  0.5942 -0.1502  0.1053
 1348TIP3    H225460   3.636   0.437   0.944  0.1316  1.2448 -0.5196
 1349TIP3   OH225461   2.914   1.991   3.992  0.3773 -0.4349  0.3014
 1349TIP3    H125462   2.935   1.933   3.918  1.1695 -1.3800  1.2416
 1349TIP3    H225463   2.946   2.077   3.965  0.9776 -0.8484 -0.3166
 1350TIP3   OH225464   6.623   3.993   5.865 -0.5824  0.0360 -0.5047
 1350TIP3    H125465   6.582   3.924   5.916 -1.5718  0.7043 -0.3807
 1350TIP3    H225466   6.550   4.045   5.831  0.1648  1.8914  0.6268
 1351TIP3   OH225467   0.197   5.187  11.354  0.0384  0.4874 -0.4128
 1351TIP3    H125468   0.137   5.162  11.424  1.5626 -0.8536  0.4647
 1351TIP3    H225469   0.141   5.223  11.286 -1.5732  0.9089  1.0979
 1352TIP3   OH225470   6.646   0.141   6.087  0.2136 -0.2927  0.3730
 1352TIP3    H125471   6.663   0.078   6.157  0.3109 -0.5156  0.1507
 1352TIP3    H225472   6.698   0.109   6.013 -0.4900 -0.5073 -0.0433
 1353TIP3   OH225473   4.547   1.066   0.149  0.0686  0.1812  0.5011
 1353TIP3    H125474   4.460   1.041   0.179  0.1572 -0.6318  0.0943
 1353TIP3    H225475   4.576   1.133   0.211  0.2351 -1.4231  2.2157
 1354TIP3   OH225476   3.093   6.339   1.573 -0.0453 -0.2238 -0.2391
 1354TIP3    H125477   3.165   6.402   1.567 -0.6545  0.6553  1.2771
 1354TIP3    H225478   3.082   6.307   1.484 -0.2892  2.4903 -1.2375
 1355TIP3   OH225479   5.058   0.485  12.947  0.7045 -0.4704 -0.0077
 1355TIP3    H125480   5.029   0.536  13.023 -0.5631 -0.4044 -0.5195
 1355TIP3    H225481   5.075   0.398  12.982 -0.1975 -0.5318  0.3126
 1356TIP3   OH225482   2.289   2.400  15.418 -0.1452 -0.0729  0.2853
 1356TIP3    H125483   2.293   2.305  15.404  0.5032  0.0117 -0.1042
 1356TIP3    H225484   2.293   2.410  15.513  0.1980 -0.4166  0.3072
 1357TIP3   OH225485   5.842   6.432   3.417 -0.1529  0.5375  0.4158
 1357TIP3    H125486   5.847   6.463   3.326 -0.3213  0.0582  0.2422
 1357TIP3    H225487   5.845   6.337   3.409 -0.8707  0.4802  0.8755
 1358TIP3   OH225488   5.673   2.309  15.044 -0.2322 -0.5689 -0.0695
 1358TIP3    H125489   5.748   2.368  15.032 -0.2699 -0.0562  2.0250
 1358TIP3    H225490   5.601   2.353  14.999 -0.6441  1.8361  2.7689
 1359TIP3   OH225491   6.169   3.702  17.219  0.8766  0.0459  0.1895
 1359TIP3    H125492   6.252   3.701  17.171 -0.8263  0.0066 -2.9094
 1359TIP3    H225493   6.141   3.793  17.216  0.4056 -0.0878  0.4732
 1360TIP3   OH225494   6.158   6.719  15.532 -0.3215  0.1517 -0.0426
 1360TIP3    H125495   6.193   6.802  15.562  0.4803 -0.2805  0.2521
 1360TIP3    H225496   6.065   6.735  15.519 -0.0059  1.3583 -0.9250
 1361TIP3   OH225497   6.211   4.750  15.525 -0.2993 -0.7100  0.0120
 1361TIP3    H125498   6.194   4.801  15.604  0.5522  0.3073 -0.4426
 1361TIP3    H225499   6.257   4.811  15.467 -3.1018 -0.6666 -2.2665
 1362TIP3   OH225500   0.709   6.203  14.687  0.2315  0.2970  0.6236
 1362TIP3    H125501   0.748   6.285  14.717  0.0385 -0.0908  1.9561
 1362TIP3    H225502   0.677   6.161  14.766 -2.1092  0.1672 -0.3488
 1363TIP3   OH225503   3.263   6.570  15.238  0.8326  0.4352  0.2649
 1363TIP3    H125504   3.191   6.508  15.231  0.6184  0.6656  0.4060
 1363TIP3    H225505   3.221   6.656  15.246  1.1149  0.5204  0.8904
 1364TIP3   OH225506   0.961   1.243  13.398  0.7295 -0.3080 -0.2354
 1364TIP3    H125507   1.014   1.206  13.327 -0.9255 -3.3866  0.0728
 1364TIP3    H225508   0.991   1.198  13.477  2.3075  2.8448  1.0484
 1365TIP3   OH225509   0.941   3.829   4.293 -0.1914 -0.1575 -0.1507
 1365TIP3    H125510   0.914   3.863   4.378 -2.9737 -0.6139 -0.8064
 1365TIP3    H225511   0.983   3.745   4.312  0.5230  0.4300  0.8793
 1366TIP3   OH225512   2.471   2.062  11.663  0.4348  0.1572  0.4132
 1366TIP3    H125513   2.404   1.997  11.642  1.0950 -0.3857 -0.0367
 1366TIP3    H225514   2.549   2.031  11.618  0.3821  2.0581 -1.0323
 1367TIP3   OH225515   4.120   2.200  12.050  0.0359  0.1066  0.0303
 1367TIP3    H125516   4.079   2.158  11.974 -2.9709 -0.1188  1.6795
 1367TIP3    H225517   4.214   2.195  12.033 -0.4837 -2.1244 -2.5258
 1368TIP3   OH225518   4.853   2.273  16.357 -0.0986  0.0338 -0.3458
 1368TIP3    H125519   4.831   2.328  16.282  1.2023  0.1343 -0.6616
 1368TIP3    H225520   4.875   2.188  16.320 -1.0194 -0.3873  0.0549
 1369TIP3   OH225521   4.286   5.194   3.538 -0.3180 -0.3844  0.4365
 1369TIP3    H125522   4.220   5.179   3.470 -1.1026 -0.2146  1.1611
 1369TIP3    H225523   4.294   5.290   3.542  0.7731 -0.4153 -0.4014
 1370TIP3   OH225524   2.824   2.118   4.385 -0.1840 -0.7173 -0.1324
 1370TIP3    H125525   2.878   2.123   4.464 -0.0663  1.4161 -0.3030
 1370TIP3    H225526   2.740   2.154   4.412 -0.1191  0.0902 -0.9902
 1371TIP3   OH225527   1.213   6.367  16.668 -0.4020  0.7121 -0.6791
 1371TIP3    H125528   1.135   6.331  16.626 -0.8331  2.1014 -1.1146
 1371TIP3    H225529   1.277   6.375  16.596  0.0030 -0.0310 -0.4074
 1372TIP3   OH225530   5.090   3.619   4.140 -0.3311  0.2673 -0.4960
 1372TIP3    H125531   5.102   3.679   4.066  1.0833 -1.5095 -1.7684
 1372TIP3    H225532   5.085   3.676   4.217  0.0035  2.0548 -1.7574
 1373TIP3   OH225533   1.277   4.050  16.838  0.3907 -0.0000 -0.3161
 1373TIP3    H125534   1.230   4.016  16.915  2.1861 -0.0550  0.7787
 1373TIP3    H225535   1.234   4.133  16.818 -1.8548 -1.2595 -0.9487
 1374TIP3   OH225536   6.146   6.280   5.786  0.4972  0.3310 -0.2499
 1374TIP3    H125537   6.056   6.273   5.755  0.4847 -1.0155  0.0655
 1374TIP3    H225538   6.141   6.258   5.879  1.1308  0.3851 -0.2005
 1375TIP3   OH225539   0.324   1.447  11.104  0.2393 -0.0887  0.3819
 1375TIP3    H125540   0.270   1.409  11.034 -0.1876 -0.2346  0.7906
 1375TIP3    H225541   0.404   1.475  11.059 -1.3380  2.7918 -0.7851
 1376TIP3   OH225542   1.269   5.910  13.187 -0.1226 -0.1010 -0.2507
 1376TIP3    H125543   1.342   5.952  13.233 -0.3637  0.6873 -0.5907
 1376TIP3    H225544   1.277   5.940  13.097 -0.4631 -0.5646 -0.4348
 1377TIP3   OH225545   2.111   5.390   0.073  0.3153 -0.0010  0.3597
 1377TIP3    H125546   2.092   5.470   0.122  0.5891  0.6496 -0.5617
 1377TIP3    H225547   2.195   5.408   0.030 -0.9730  0.3151 -2.0877
 1378TIP3   OH225548   0.330   2.264   2.532  0.7718  0.1772  0.1083
 1378TIP3    H125549   0.377   2.183   2.516  2.9265  1.3506  0.2234
 1378TIP3    H225550   0.398   2.326   2.561 -1.0824  1.4988  1.8145
 1379TIP3   OH225551   0.310   3.343  12.504  0.1846 -0.2776  0.5174
 1379TIP3    H125552   0.298   3.320  12.412  0.0936 -0.1242  0.4920
 1379TIP3    H225553   0.358   3.268  12.541  0.8914 -0.0020  0.1748
 1380TIP3   OH225554   4.223   4.195  15.368  0.2794 -0.0032  0.2198
 1380TIP3    H125555   4.246   4.224  15.279 -1.7314 -3.3792 -1.5184
 1380TIP3    H225556   4.131   4.219  15.378  0.3507 -0.1270  1.1860
 1381TIP3   OH225557   3.725   2.938   5.295  0.3823 -0.1572  0.2012
 1381TIP3    H125558   3.639   2.978   5.284 -0.4895 -2.0229  0.1134
 1381TIP3    H225559   3.709   2.861   5.350  2.0576 -0.3255  0.4938
 1382TIP3   OH225560   4.462   6.190   5.910  0.2233 -0.1882  0.6345
 1382TIP3    H125561   4.526   6.120   5.928  2.0818  0.9319 -1.3571
 1382TIP3    H225562   4.487   6.261   5.969  0.7712  0.2117 -0.0715
 1383TIP3   OH225563   3.942   6.591   1.407  0.3514 -0.2198  0.2954
 1383TIP3    H125564   3.892   6.620   1.331  2.4554 -1.1481 -1.4869
 1383TIP3    H225565   3.925   6.497   1.412  1.8239 -0.5355 -0.3005
 1384TIP3   OH225566   4.389   1.081   5.671  0.2193 -0.1137  0.7511
 1384TIP3    H125567   4.476   1.102   5.639 -0.0852  0.0426  0.0153
 1384TIP3    H225568   4.377   1.137   5.748 -0.5235  2.3510 -1.0928
 1385TIP3   OH225569   2.545   0.262   0.859  0.7980 -0.2051  0.6997
 1385TIP3    H125570   2.551   0.167   0.874 -0.3972 -0.7119 -1.7538
 1385TIP3    H225571   2.614   0.280   0.795  0.4357  0.4327  0.4870
 1386TIP3   OH225572   6.478   5.144   1.733 -0.0507  0.3087  0.1653
 1386TIP3    H125573   6.555   5.105   1.774 -0.9196 -1.3987  0.2347
 1386TIP3    H225574   6.496   5.142   1.639  0.2896  0.5638  0.2274
 1387TIP3   OH225575   3.756   3.347   3.324 -0.0814 -0.3465 -0.6610
 1387TIP3    H125576   3.709   3.358   3.407  0.6928  0.2789 -0.3034
 1387TIP3    H225577   3.730   3.424   3.272  1.2391  0.4658 -0.1275
 1388TIP3   OH225578   3.747   3.217  10.789  0.7081 -0.1737 -0.6852
 1388TIP3    H125579   3.809   3.201  10.861 -0.0319 -2.9122 -0.6002
 1388TIP3    H225580   3.741   3.312  10.784  1.3661  0.0912  2.3700
 1389TIP3   OH225581   4.484   1.587   4.312 -0.6448  0.2718 -0.4297
 1389TIP3    H125582   4.471   1.496   4.287 -0.4414  0.6297 -1.9176
 1389TIP3    H225583   4.397   1.618   4.337 -0.5532 -0.5794  0.9863
 1390TIP3   OH225584   1.828   5.741   1.639  0.0878 -0.5152 -0.2741
 1390TIP3    H125585   1.889   5.775   1.574  1.1118 -1.9287 -0.0596
 1390TIP3    H225586   1.760   5.698   1.587  0.0421 -0.2139 -0.4640
 1391TIP3   OH225587   5.252   2.732  11.847  0.3881  0.6077  0.0298
 1391TIP3    H125588   5.274   2.672  11.918  0.0657  0.4506 -0.0039
 1391TIP3    H225589   5.334   2.780  11.830  0.3216  1.0283  0.8715
 1392TIP3   OH225590   2.699   0.837  14.630  0.2260 -0.3804 -0.2534
 1392TIP3    H125591   2.702   0.853  14.724  0.9924 -0.1013 -0.3144
 1392TIP3    H225592   2.636   0.766  14.619  1.0737 -1.2949  0.6125
 1393TIP3   OH225593   1.302   0.762   4.764  0.0888  0.5194  0.6943
 1393TIP3    H125594   1.253   0.818   4.704  1.7918  3.6768  2.0937
 1393TIP3    H225595   1.382   0.740   4.716 -0.0235  0.3342  0.5937
 1394TIP3   OH225596   5.755   0.477   0.276  0.1038 -0.2533  0.4203
 1394TIP3    H125597   5.767   0.555   0.221  1.4392 -0.5379  0.2944
 1394TIP3    H225598   5.662   0.477   0.296 -0.0160  1.0766 -0.0380
 1395TIP3   OH225599   5.039   5.550   3.172 -0.2445 -0.0649  0.1028
 1395TIP3    H125600   4.969   5.549   3.237  0.6691  0.0088  1.1088
 1395TIP3    H225601   5.107   5.605   3.211  0.5528 -0.4874 -0.6678
 1396TIP3   OH225602   5.737   5.138  14.663  0.4620  0.1848 -0.1795
 1396TIP3    H125603   5.660   5.081  14.665  0.4273  0.2081 -0.8332
 1396TIP3    H225604   5.712   5.211  14.605  1.5566 -0.6477 -1.7361
 1397TIP3   OH225605   3.170   1.504   5.773  0.1785 -0.3100  0.2102
 1397TIP3    H125606   3.175   1.600   5.770  3.2894 -0.4471 -0.0508
 1397TIP3    H225607   3.244   1.474   5.721 -1.8087 -2.9169 -1.2295
 1398TIP3   OH225608   0.118   5.584  11.315 -0.4662  0.0554 -0.0222
 1398TIP3    H125609   0.194   5.631  11.279 -0.3590  0.3485  0.5831
 1398TIP3    H225610   0.124   5.497  11.277  0.2047  0.0664  0.0540
 1399TIP3   OH225611   0.796   3.617   0.839 -0.8887 -0.3393  0.1818
 1399TIP3    H125612   0.805   3.554   0.768  1.6395 -1.9232  1.8345
 1399TIP3    H225613   0.815   3.702   0.799  1.5754 -1.3392 -0.8513
 1400TIP3   OH225614   5.630   5.056  15.368 -0.0117 -0.4321  0.0148
 1400TIP3    H125615   5.689   4.983  15.384  1.2635  0.4421 -0.5839
 1400TIP3    H225616   5.603   5.046  15.277 -0.1013 -0.3373  0.0309
 1401TIP3   OH225617   0.617   2.106  15.424 -0.2718 -0.5500  0.3543
 1401TIP3    H125618   0.627   2.170  15.494 -1.5821  1.2501 -1.0440
 1401TIP3    H225619   0.602   2.023  15.469 -0.7637  0.5058  2.1920
 1402TIP3   OH225620   4.269   2.422  13.237 -0.0827 -0.2108 -0.7976
 1402TIP3    H125621   4.301   2.446  13.150  1.2362 -0.7861 -0.4930
 1402TIP3    H225622   4.348   2.398  13.286 -1.1207 -3.2292 -0.5023
 1403TIP3   OH225623   4.821   4.886  14.147 -0.1951 -0.5151  0.5704
 1403TIP3    H125624   4.775   4.819  14.197  0.0704 -0.4015  0.9703
 1403TIP3    H225625   4.829   4.959  14.208  0.7664 -0.6404  0.5944
 1404TIP3   OH225626   5.177   3.032   4.068 -0.8992  0.3992  0.7674
 1404TIP3    H125627   5.178   2.960   4.005  2.6474 -0.5126  1.7798
 1404TIP3    H225628   5.090   3.028   4.107 -0.7909 -3.2872  0.7481
 1405TIP3   OH225629   1.098   2.404  15.527  0.2502  0.0573  0.0163
 1405TIP3    H125630   1.022   2.386  15.472  0.0120 -0.0612  0.3856
 1405TIP3    H225631   1.160   2.447  15.468 -0.0733  0.0909 -0.3030
 1406TIP3   OH225632   2.244   3.297   3.076 -0.2449  0.4212 -0.2762
 1406TIP3    H125633   2.306   3.276   3.006 -0.0339 -2.2081  0.6623
 1406TIP3    H225634   2.298   3.333   3.147  0.2902 -2.1302  0.6494
 1407TIP3   OH225635   2.882   4.966   4.227 -0.2992 -0.3268  0.3763
 1407TIP3    H125636   2.865   4.944   4.136  2.0221  0.5398 -0.2794
 1407TIP3    H225637   2.853   4.888   4.276 -2.4063 -0.4310 -0.9842
 1408TIP3   OH225638   3.081   2.319  16.938 -0.3988 -0.1004 -0.3054
 1408TIP3    H125639   3.132   2.390  16.976  0.4033 -1.1005  0.5144
 1408TIP3    H225640   3.079   2.251  17.006 -2.4672 -0.2507 -0.4807
 1409TIP3   OH225641   4.803   1.926   1.366  0.1661 -0.4758  0.8497
 1409TIP3    H125642   4.889   1.953   1.334 -0.8788  0.9812 -0.8435
 1409TIP3    H225643   4.767   1.872   1.295 -0.2485 -1.2459  1.6335
 1410TIP3   OH225644   3.314   4.466  13.927  0.1046 -0.3816 -0.2499
 1410TIP3    H125645   3.262   4.385  13.928 -1.0154  0.3370 -0.2414
 1410TIP3    H225646   3.401   4.437  13.897 -0.0094 -1.7460  0.6553
 1411TIP3   OH225647   3.540   5.157  14.336 -0.0755  0.1390  0.2210
 1411TIP3    H125648   3.534   5.121  14.247 -0.5111  0.3212  0.1768
 1411TIP3    H225649   3.594   5.235  14.326 -0.9977  0.7561 -0.0742
 1412TIP3   OH225650   3.997   3.768  12.593 -0.6697 -0.1647  0.0069
 1412TIP3    H125651   3.963   3.685  12.560 -1.0257  0.2744 -0.7337
 1412TIP3    H225652   4.073   3.786  12.538  1.2145 -1.4823  2.0886
 1413TIP3   OH225653   3.183   5.790  15.336 -0.1460  0.5999 -0.2111
 1413TIP3    H125654   3.119   5.736  15.290  0.8783 -0.8371 -0.0054
 1413TIP3    H225655   3.135   5.824  15.412 -1.7785  2.8324 -2.1760
 1414TIP3   OH225656   2.837   6.227  16.088 -0.3942  0.4370 -0.0943
 1414TIP3    H125657   2.773   6.197  16.023 -3.3106  0.1884  2.8131
 1414TIP3    H225658   2.847   6.154  16.148 -0.2585  1.8352  1.6109
 1415TIP3   OH225659   6.037   5.287   5.208 -0.3615  0.4578  0.0550
 1415TIP3    H125660   5.956   5.242   5.187  0.3089 -0.2576 -1.0557
 1415TIP3    H225661   6.067   5.248   5.290 -0.2361 -0.4977 -0.4487
 1416TIP3   OH225662   5.443   0.934   6.208 -0.0118 -0.1365 -0.0855
 1416TIP3    H125663   5.458   1.028   6.216 -0.3799 -0.0791 -0.0695
 1416TIP3    H225664   5.496   0.908   6.133 -2.0959  0.5870 -1.8571
 1417TIP3   OH225665   6.356   2.396  11.943 -0.3647 -0.4535 -0.5650
 1417TIP3    H125666   6.270   2.429  11.917  0.2963  0.8630 -1.1246
 1417TIP3    H225667   6.353   2.303  11.924 -2.1254 -0.6669  0.6437
 1418TIP3   OH225668   0.876   1.730  17.145  0.2148  0.4857 -0.1860
 1418TIP3    H125669   0.922   1.713  17.227  1.9815  0.9613 -1.0735
 1418TIP3    H225670   0.793   1.770  17.172 -0.3637 -1.7488  1.4948
 1419TIP3   OH225671   0.347   3.443  15.714  0.3878 -0.6960 -0.0329
 1419TIP3    H125672   0.406   3.517  15.726  1.1045 -0.8827 -2.1157
 1419TIP3    H225673   0.405   3.367  15.710 -0.1860 -1.1488  0.1963
 1420TIP3   OH225674   5.055   0.757  16.201  0.1340  0.0747  0.0051
 1420TIP3    H125675   5.039   0.850  16.182 -1.7069 -0.2983 -0.3752
 1420TIP3    H225676   5.012   0.710  16.129  0.5241 -1.0880  0.5252
 1421TIP3   OH225677   1.927   0.306   2.633  0.5050  0.1603  0.8919
 1421TIP3    H125678   1.885   0.372   2.578 -2.0806 -2.3492 -0.3451
 1421TIP3    H225679   1.980   0.254   2.572  2.1976  0.8214  1.7767
 1422TIP3   OH225680   3.259   0.009   5.446  0.3338 -0.3322  0.0959
 1422TIP3    H125681   3.212  -0.025   5.522  3.4020  0.9153  2.6720
 1422TIP3    H225682   3.233   0.100   5.440  1.0674 -0.0922  0.4700
 1423TIP3   OH225683   3.169   0.295  17.055  0.0292  0.1519  0.2025
 1423TIP3    H125684   3.077   0.275  17.072  0.7850 -2.6064  1.3809
 1423TIP3    H225685   3.167   0.362  16.986 -2.8382 -1.7708 -1.7020
 1424TIP3   OH225686   2.394   6.784   4.132  0.1869  0.2361 -0.2655
 1424TIP3    H125687   2.397   6.694   4.166 -1.9493 -0.1919 -1.1238
 1424TIP3    H225688   2.381   6.838   4.209  2.0215 -0.1419  0.3215
 1425TIP3   OH225689   0.199   1.074   2.340  0.2798 -0.0802  0.0926
 1425TIP3    H125690   0.180   1.095   2.431 -0.0629  0.6066 -0.1399
 1425TIP3    H225691   0.186   1.156   2.293 -0.2796 -0.6161 -0.6873
 1426TIP3   OH225692   6.662   6.237  15.330  0.2084 -0.3357  0.1808
 1426TIP3    H125693   6.704   6.315  15.365  1.1703  1.2199 -4.0932
 1426TIP3    H225694   6.574   6.266  15.306 -0.2883 -1.2336  0.9140
 1427TIP3   OH225695   4.099   3.326  13.612  0.2226  0.0287  0.8914
 1427TIP3    H125696   4.021   3.320  13.668  0.8647 -0.5224  1.7260
 1427TIP3    H225697   4.154   3.253  13.639  1.7941  1.3977  1.4771
 1428TIP3   OH225698   0.240   3.237  11.478 -0.0718  0.0642 -0.0968
 1428TIP3    H125699   0.263   3.228  11.386  0.7702  2.4862 -0.1393
 1428TIP3    H225700   0.315   3.282  11.518 -0.9517  0.1394  1.5283
 1429TIP3   OH225701   5.811   1.398   0.044  0.0681 -0.4076 -0.2632
 1429TIP3    H125702   5.888   1.346   0.066 -0.7459 -2.1025 -1.3060
 1429TIP3    H225703   5.844   1.473  -0.004  1.3917  0.7423  2.3235
 1430TIP3   OH225704   1.353   5.532   3.609 -0.0489  0.2125 -0.1614
 1430TIP3    H125705   1.441   5.497   3.621 -0.8259 -1.4481  0.7947
 1430TIP3    H225706   1.317   5.481   3.536 -0.5225  0.2983  0.0117
 1431TIP3   OH225707   5.001   5.651  12.796 -0.4127 -0.4137 -0.1830
 1431TIP3    H125708   5.030   5.734  12.835  1.2546 -0.5188 -1.1207
 1431TIP3    H225709   4.976   5.675  12.707  1.1216 -1.0673 -0.8140
 1432TIP3   OH225710   5.953   2.418   1.028  0.0999  0.1417  0.2884
 1432TIP3    H125711   6.028   2.405   0.970  0.8487  2.3766  0.6834
 1432TIP3    H225712   5.883   2.451   0.971 -0.3453 -1.2172  0.0454
 1433TIP3   OH225713   3.030   2.441   2.326 -0.1500 -0.8165  0.1877
 1433TIP3    H125714   2.947   2.432   2.374 -0.1071  0.2444  0.4960
 1433TIP3    H225715   3.026   2.530   2.291 -0.3303 -1.6897 -2.0894
 1434TIP3   OH225716   2.074   4.123   1.883 -0.1428 -0.0512 -0.0945
 1434TIP3    H125717   2.116   4.142   1.800  1.3206  1.8649  1.0520
 1434TIP3    H225718   2.102   4.034   1.905 -1.0401 -0.8143 -1.8995
 1435TIP3   OH225719   1.247   3.075   2.451  0.2255 -0.2015 -0.0234
 1435TIP3    H125720   1.256   2.988   2.491  0.8695 -0.1858 -0.1202
 1435TIP3    H225721   1.178   3.118   2.501  0.2600 -0.5838  0.3551
 1436TIP3   OH225722   1.942   1.946   1.698  0.1526  0.1926  0.4289
 1436TIP3    H125723   1.998   1.979   1.768  0.5074 -0.8517  0.6461
 1436TIP3    H225724   1.988   1.970   1.617  3.2227 -4.4336  0.6188
 1437TIP3   OH225725   1.923   2.879  13.832 -0.2259 -0.0235  0.1581
 1437TIP3    H125726   2.008   2.901  13.793  0.9147 -2.1973  1.3630
 1437TIP3    H225727   1.911   2.945  13.901  1.6251 -1.1281  1.5779
 1438TIP3   OH225728   5.416   4.155   3.209  0.2442 -0.2539 -0.4840
 1438TIP3    H125729   5.350   4.096   3.245  0.6778 -0.7102 -0.4162
 1438TIP3    H225730   5.367   4.229   3.175 -0.3735 -0.9935 -1.2233
 1439TIP3   OH225731   0.879   1.901   3.979 -0.1216  0.4184  0.2160
 1439TIP3    H125732   0.898   1.818   4.023  0.2210  0.0428 -0.6285
 1439TIP3    H225733   0.809   1.880   3.918 -0.1054  0.7794  0.0726
 1440TIP3   OH225734   5.343   4.281  12.149  0.3794  0.4498  0.2567
 1440TIP3    H125735   5.356   4.217  12.219  0.3946  0.4111  0.2174
 1440TIP3    H225736   5.311   4.360  12.194  0.6141  0.5005  0.3333
 1441TIP3   OH225737   2.626   0.705  12.780  0.5766 -0.4786  0.1242
 1441TIP3    H125738   2.553   0.713  12.842 -0.0679  0.6846 -0.7471
 1441TIP3    H225739   2.593   0.647  12.712  0.7232 -0.5305  0.0969
 1442TIP3   OH225740   1.268   3.475   5.014 -0.3342 -0.2120  0.3724
 1442TIP3    H125741   1.174   3.457   5.010 -1.0843  3.3696  0.0090
 1442TIP3    H225742   1.281   3.518   5.098  1.0929 -1.1721  0.6577
 1443TIP3   OH225743   2.110   6.491  14.469 -0.0635  0.2757  0.2534
 1443TIP3    H125744   2.041   6.451  14.415  0.2092 -0.0476  0.1436
 1443TIP3    H225745   2.144   6.419  14.522  1.0829  0.1463 -0.6309
 1444TIP3   OH225746   5.024   2.345  16.573  0.6385  0.0960 -0.0608
 1444TIP3    H125747   5.052   2.435  16.554 -0.0887  0.5800  1.0905
 1444TIP3    H225748   4.981   2.316  16.492 -1.5439  1.7754  0.4382
 1445TIP3   OH225749   6.571   6.276   4.581  0.2154  0.2629  0.3327
 1445TIP3    H125750   6.506   6.233   4.635 -0.8892 -0.0057 -1.1740
 1445TIP3    H225751   6.601   6.208   4.520  2.0599  0.3220  1.1253
 1446TIP3   OH225752   5.107   2.155  11.795  0.0806 -0.3022  0.5212
 1446TIP3    H125753   5.088   2.076  11.744  1.8356  0.0564 -0.7218
 1446TIP3    H225754   5.037   2.216  11.772 -0.3177 -0.8914  0.1644
 1447TIP3   OH225755   0.591   4.800   0.543  0.6336  0.2878 -0.0057
 1447TIP3    H125756   0.651   4.871   0.567  1.3585  0.6339 -2.7049
 1447TIP3    H225757   0.520   4.807   0.606  2.4104  1.1738  1.9890
 1448TIP3   OH225758   0.417   1.128  11.619 -0.2610  0.0675  1.0870
 1448TIP3    H125759   0.481   1.088  11.560 -2.0590 -0.6320 -0.4152
 1448TIP3    H225760   0.438   1.221  11.618 -0.5455  0.1354 -1.0344
 1449TIP3   OH225761   0.095   0.910   6.175 -0.4864  0.2496  0.0515
 1449TIP3    H125762   0.038   0.836   6.155 -1.5025  1.2791 -0.9095
 1449TIP3    H225763   0.076   0.931   6.266 -1.4322  0.4065 -0.1803
 1450TIP3   OH225764   0.342   6.640  14.977  0.2411  0.4335 -0.3728
 1450TIP3    H125765   0.394   6.575  14.929 -0.4134 -0.0123 -0.4899
 1450TIP3    H225766   0.404   6.711  14.996  0.9618 -0.2152 -0.2610
 1451TIP3   OH225767   1.856   3.433  13.960 -0.1002  0.8041 -0.3430
 1451TIP3    H125768   1.849   3.348  14.004  0.1402  0.7283 -0.4470
 1451TIP3    H225769   1.843   3.412  13.867 -0.1043  0.8917 -0.3619
 1452TIP3   OH225770   2.386   2.036  15.967  0.4294 -0.2254  0.4483
 1452TIP3    H125771   2.302   2.074  15.992  0.1185 -1.3971  1.2214
 1452TIP3    H225772   2.362   1.959  15.914  0.9962 -0.8397  1.0745
 1453TIP3   OH225773   2.255   1.804   0.308  0.0815  0.0560 -0.2194
 1453TIP3    H125774   2.217   1.790   0.221  2.7451 -0.8340 -1.2822
 1453TIP3    H225775   2.286   1.895   0.306 -0.3126  0.1957 -0.0135
 1454TIP3   OH225776   1.802   1.050   5.447 -0.0239  0.0729 -0.3808
 1454TIP3    H125777   1.817   0.968   5.400 -2.3025  0.1568 -1.3206
 1454TIP3    H225778   1.743   1.026   5.519 -2.6373  1.2193 -2.0393
 1455TIP3   OH225779   4.833   4.812   3.340  0.0265 -0.1095 -0.5404
 1455TIP3    H125780   4.765   4.822   3.273  0.6757  1.6011 -0.9664
 1455TIP3    H225781   4.853   4.718   3.340 -1.0545 -0.3553 -1.6606
 1456TIP3   OH225782   3.573   6.090  14.883  0.4016  0.8001  0.0094
 1456TIP3    H125783   3.524   6.168  14.858  1.1853  0.8557 -1.4674
 1456TIP3    H225784   3.621   6.115  14.961  1.3492  2.1103 -0.9769
 1457TIP3   OH225785   3.826   0.050  13.892  0.4287 -0.3263  0.2761
 1457TIP3    H125786   3.883  -0.003  13.836  0.3317 -0.3610  0.2098
 1457TIP3    H225787   3.876   0.130  13.909 -0.4505  0.6760 -1.7323
 1458TIP3   OH225788   0.500   3.316  11.634 -0.9502  0.0329 -0.3798
 1458TIP3    H125789   0.578   3.350  11.678 -0.9844 -1.8039  1.1845
 1458TIP3    H225790   0.529   3.298  11.544 -0.1695  1.3879 -0.4064
 1459TIP3   OH225791   4.447   3.213   3.913  0.4328  0.4871 -0.2648
 1459TIP3    H125792   4.385   3.227   3.984  0.0581 -0.5078 -0.3824
 1459TIP3    H225793   4.444   3.294   3.862 -0.3633  0.6628  0.0495
 1460TIP3   OH225794   0.621   0.883  15.403 -0.0708  1.2441  0.2250
 1460TIP3    H125795   0.546   0.889  15.461  0.1512  1.6369  0.4704
 1460TIP3    H225796   0.583   0.873  15.315 -0.4030 -0.2986  0.5343
 1461TIP3   OH225797   2.646   5.098   5.584  0.0156 -0.6806 -0.2683
 1461TIP3    H125798   2.721   5.117   5.641  0.3683  0.1546 -1.0036
 1461TIP3    H225799   2.673   5.021   5.534  0.2275 -0.6189 -0.2484
 1462TIP3   OH225800   2.303   4.758   4.656  0.0551 -0.5744  0.2323
 1462TIP3    H125801   2.208   4.747   4.658 -0.1043  0.6328  0.2377
 1462TIP3    H225802   2.331   4.708   4.579 -0.8594  0.7220 -1.0002
 1463TIP3   OH225803   6.341   5.569  11.037  0.9406 -0.5967 -0.7814
 1463TIP3    H125804   6.357   5.623  11.114  0.3830 -1.5360  0.0071
 1463TIP3    H225805   6.417   5.585  10.980  1.1848  0.3625 -0.1908
 1464TIP3   OH225806   0.980   2.958  14.901 -0.1760 -0.3269  0.4773
 1464TIP3    H125807   0.891   2.975  14.931 -0.2965 -0.4777  0.2053
 1464TIP3    H225808   0.969   2.917  14.816  0.2440  3.2559 -1.3940
 1465TIP3   OH225809   5.927   5.030  17.190 -0.3339  0.0928 -0.0577
 1465TIP3    H125810   5.985   4.967  17.147 -1.4404 -0.7460 -0.3576
 1465TIP3    H225811   5.960   5.116  17.164 -0.2193 -0.3927 -1.5494
 1466TIP3   OH225812   5.182   6.417  12.089  0.5314 -0.2582 -0.3153
 1466TIP3    H125813   5.154   6.377  12.171 -0.0001 -0.0289 -0.3804
 1466TIP3    H225814   5.212   6.505  12.115  2.1226 -0.8405 -0.1076
 1467TIP3   OH225815   2.705   3.464  13.957  0.0398 -0.9466  0.1453
 1467TIP3    H125816   2.734   3.544  13.915 -0.2689 -0.8629  0.0901
 1467TIP3    H225817   2.781   3.432  14.005  0.1823 -0.6617  0.1045
 1468TIP3   OH225818   3.868   2.806   1.243 -0.2419  1.1737 -0.2023
 1468TIP3    H125819   3.896   2.744   1.309 -0.2920  1.4478  0.0767
 1468TIP3    H225820   3.927   2.792   1.169  1.0854  2.2384  0.6432
 1469TIP3   OH225821   0.391   2.569  10.491 -0.3830 -0.7382 -0.6203
 1469TIP3    H125822   0.451   2.589  10.563 -1.6003  0.2315  0.1547
 1469TIP3    H225823   0.447   2.538  10.420  1.2546  2.0592 -0.6114
 1470TIP3   OH225824   0.691   6.054   5.283  0.4064 -0.5837  0.2892
 1470TIP3    H125825   0.603   6.021   5.266 -0.0112  1.1232 -0.9942
 1470TIP3    H225826   0.708   6.030   5.374 -2.5170  1.5718  1.4574
 1471TIP3   OH225827   4.097   0.562  16.170  0.1449 -0.1455 -0.8665
 1471TIP3    H125828   4.040   0.495  16.131  0.2330 -2.5367  2.8790
 1471TIP3    H225829   4.166   0.575  16.106 -0.8786 -2.2991 -2.4761
 1472TIP3   OH225830   0.402   6.598  17.061  0.3141  0.3524  0.3527
 1472TIP3    H125831   0.415   6.593  17.155  2.3565 -2.3397 -0.0169
 1472TIP3    H225832   0.314   6.563  17.046 -0.3195  1.4927  1.2740
 1473TIP3   OH225833   2.110   4.996   5.576  0.2113  0.1492  0.0380
 1473TIP3    H125834   2.113   4.944   5.496 -0.6270  1.1558 -0.6431
 1473TIP3    H225835   2.124   4.932   5.646 -0.8410 -1.0038 -0.7925
 1474TIP3   OH225836   0.247   0.225  13.834  0.3685  0.5599 -0.2041
 1474TIP3    H125837   0.338   0.254  13.837  0.0642  1.4833  0.3445
 1474TIP3    H225838   0.196   0.304  13.854 -0.5459  0.0442 -0.4776
 1475TIP3   OH225839   3.637   3.860   2.317  0.4064  0.0559 -0.3041
 1475TIP3    H125840   3.712   3.913   2.345  1.0605 -1.2418  0.4033
 1475TIP3    H225841   3.642   3.861   2.221  0.7667  0.7655 -0.2857
 1476TIP3   OH225842   1.438   2.248  12.044 -0.2036 -0.3598 -0.0606
 1476TIP3    H125843   1.480   2.197  12.113 -1.4333  0.7079  1.5156
 1476TIP3    H225844   1.491   2.328  12.038 -0.7676  0.0475  0.4308
 1477TIP3   OH225845   3.389   6.554   5.670  0.4271  0.2740 -0.2686
 1477TIP3    H125846   3.407   6.523   5.582  1.7456  0.7749 -0.1851
 1477TIP3    H225847   3.375   6.648   5.660 -0.2480  0.2032 -0.0516
 1478TIP3   OH225848   5.951   4.640  15.569  0.0535  0.5479  0.3270
 1478TIP3    H125849   6.035   4.679  15.545  0.1234 -0.0038 -0.3157
 1478TIP3    H225850   5.968   4.598  15.654  0.3973  0.5234  0.2479
 1479TIP3   OH225851   1.385   2.081   2.815 -0.0907  0.4054 -0.7449
 1479TIP3    H125852   1.479   2.094   2.800 -0.1331  0.5857 -0.8562
 1479TIP3    H225853   1.345   2.101   2.730 -0.1575 -0.4615 -0.9273
 1480TIP3   OH225854   1.627   2.380  11.173 -0.1954  0.1952 -0.3762
 1480TIP3    H125855   1.594   2.401  11.086  1.7173 -2.1398 -1.7310
 1480TIP3    H225856   1.697   2.443  11.189  1.2182 -1.0217 -1.6747
 1481TIP3   OH225857   1.499   4.783  13.924 -0.6241 -0.2909 -0.0117
 1481TIP3    H125858   1.438   4.743  13.863 -1.1454 -0.1846  0.4309
 1481TIP3    H225859   1.582   4.788  13.876 -1.2413  0.5924 -1.0125
 1482TIP3   OH225860   0.150   0.470   4.067 -0.0613  0.4898  0.2455
 1482TIP3    H125861   0.204   0.420   4.006  0.5563 -0.2383  1.3857
 1482TIP3    H225862   0.060   0.456   4.035  0.4162  2.0979 -1.9315
 1483TIP3   OH225863   2.326   5.240   2.480  0.2856 -0.1991  0.2172
 1483TIP3    H125864   2.414   5.224   2.446  0.0693 -2.6964  0.7414
 1483TIP3    H225865   2.340   5.276   2.567  0.7873 -0.2959  0.1793
 1484TIP3   OH225866   5.102   3.189  14.475  0.4670 -0.2189 -0.1215
 1484TIP3    H125867   5.151   3.124  14.426  1.7259  0.7981 -0.2321
 1484TIP3    H225868   5.100   3.266  14.418 -2.7201 -0.7676 -0.8486
 1485TIP3   OH225869   6.530   6.504   2.025 -0.4896 -0.3158  0.3441
 1485TIP3    H125870   6.625   6.498   2.015 -0.4832 -1.2863  0.9368
 1485TIP3    H225871   6.517   6.529   2.116 -0.8095 -0.5408  0.3612
 1486TIP3   OH225872   4.515   0.727   3.463  0.4986 -0.1869  1.3182
 1486TIP3    H125873   4.486   0.759   3.549  0.5480  0.8368  0.9603
 1486TIP3    H225874   4.600   0.768   3.450  1.2009 -1.6052  1.4810
 1487TIP3   OH225875   2.339   4.794  11.473 -0.4703  0.0430 -0.0536
 1487TIP3    H125876   2.355   4.777  11.566 -1.7270 -0.5501  0.0607
 1487TIP3    H225877   2.287   4.875  11.472 -2.0872 -0.9808 -0.1266
 1488TIP3   OH225878   2.212   6.753   2.497 -0.5837  0.5423 -0.3774
 1488TIP3    H125879   2.273   6.801   2.441  0.3074 -1.4649 -1.1926
 1488TIP3    H225880   2.265   6.726   2.572 -0.9844  0.4960 -0.1103
 1489TIP3   OH225881   4.692   5.579   0.771  0.2759 -0.0583  0.4142
 1489TIP3    H125882   4.674   5.511   0.836  2.1969 -0.6826  0.3195
 1489TIP3    H225883   4.721   5.530   0.693 -1.5216  0.7017 -0.7783
 1490TIP3   OH225884   0.178   0.733  12.830  0.3699  0.4274 -0.6585
 1490TIP3    H125885   0.193   0.643  12.858  2.0350  1.4169  1.8150
 1490TIP3    H225886   0.089   0.753  12.858  1.0627  0.5019  1.6312
 1491TIP3   OH225887   1.982   1.948   2.214 -0.3258 -0.3101  0.4913
 1491TIP3    H125888   2.011   2.014   2.277 -1.0502  0.7816 -0.3016
 1491TIP3    H225889   2.018   1.866   2.247  2.0393  0.7188  0.5796
 1492TIP3   OH225890   2.887   2.823  14.894 -0.3790  0.4277  0.2939
 1492TIP3    H125891   2.948   2.785  14.957 -0.1488  1.0519  0.4421
 1492TIP3    H225892   2.938   2.887  14.846 -0.0843 -1.2543 -1.7217
 1493TIP3   OH225893   3.606   4.290  15.705 -0.1849 -0.5522  0.0079
 1493TIP3    H125894   3.547   4.290  15.781 -1.6370 -0.7613 -1.0955
 1493TIP3    H225895   3.648   4.205  15.707  0.7252 -0.0999  1.2702
 1494TIP3   OH225896   1.158   4.106   6.468 -0.1298 -0.4605  0.4623
 1494TIP3    H125897   1.239   4.064   6.497 -0.0951 -0.2340  0.6988
 1494TIP3    H225898   1.128   4.053   6.394  0.3690 -0.3916  0.2113
 1495TIP3   OH225899   3.754   1.522   2.546  0.4334  0.1479  0.1038
 1495TIP3    H125900   3.777   1.433   2.571  0.5634  0.5980  1.6497
 1495TIP3    H225901   3.781   1.575   2.620 -3.5741  0.9538  1.0939
 1496TIP3   OH225902   3.296   3.276   5.869 -0.4062  0.1383 -0.3227
 1496TIP3    H125903   3.219   3.300   5.817 -2.0604  1.7840  2.7229
 1496TIP3    H225904   3.275   3.191   5.906 -1.3152  1.0688  1.3903
 1497TIP3   OH225905   3.962   5.369   2.887  0.0552  0.6555  0.3643
 1497TIP3    H125906   4.009   5.419   2.820  0.9051  0.6980  0.9788
 1497TIP3    H225907   3.873   5.402   2.884 -0.3481 -0.6226 -1.9968
 1498TIP3   OH225908   5.947   1.321   1.174  0.1722  0.1372  0.5157
 1498TIP3    H125909   5.906   1.337   1.259  1.5134  1.1140  1.0044
 1498TIP3    H225910   6.041   1.326   1.192  0.5108 -1.8587 -0.6035
 1499TIP3   OH225911   4.623   6.125  16.264  0.3723  0.8916  0.0953
 1499TIP3    H125912   4.645   6.097  16.353 -0.2166  0.9661  0.2678
 1499TIP3    H225913   4.680   6.200  16.248  0.9152  0.5006  0.1823
 1500TIP3   OH225914   0.656   3.804  17.154 -0.0334  0.3133 -0.5168
 1500TIP3    H125915   0.606   3.867  17.103 -0.9271  0.6763  0.8002
 1500TIP3    H225916   0.595   3.772  17.220  0.8884 -0.7278 -0.1518
 1501TIP3   OH225917   1.560   6.143   0.981  0.1650  0.0890 -0.5103
 1501TIP3    H125918   1.483   6.164   1.033 -1.4240  0.9613 -3.1519
 1501TIP3    H225919   1.567   6.047   0.986 -0.3164  0.1117  0.7649
 1502TIP3   OH225920   3.599   3.104  17.064 -0.1666 -0.0395  0.1556
 1502TIP3    H125921   3.520   3.159  17.054  0.7276  1.1582 -0.4652
 1502TIP3    H225922   3.566   3.015  17.066 -1.7943  0.5510  2.4675
 1503TIP3   OH225923   3.792   2.098   0.238 -0.2380 -0.6276  0.4320
 1503TIP3    H125924   3.817   2.069   0.151 -0.4703  0.1966  0.0913
 1503TIP3    H225925   3.778   2.192   0.230 -3.2044 -0.9903  0.6477
 1504TIP3   OH225926   2.459   4.226   0.052 -0.1342 -0.5775  0.1214
 1504TIP3    H125927   2.409   4.279   0.114  0.1650 -0.0112 -0.1192
 1504TIP3    H225928   2.526   4.183   0.105 -1.1545 -1.7112  0.5245
 1505TIP3   OH225929   1.007   4.917  17.020 -0.1977  0.1598  0.0241
 1505TIP3    H125930   0.929   4.930  17.073 -0.6413  1.9438 -1.0344
 1505TIP3    H225931   0.975   4.878  16.939  0.4533 -2.3478  0.9185
 1506TIP3   OH225932   2.182   0.980  13.626 -0.0517  0.2448  0.0213
 1506TIP3    H125933   2.104   0.966  13.680  0.0181  1.3319  0.4016
 1506TIP3    H225934   2.162   1.058  13.575  0.0928 -0.4805 -1.1540
 1507TIP3   OH225935   1.513   4.680  11.214 -0.3442  0.0520 -0.3615
 1507TIP3    H125936   1.522   4.736  11.137  0.4427  2.6694  1.5866
 1507TIP3    H225937   1.462   4.605  11.183 -0.4749  1.3014 -3.2944
 1508TIP3   OH225938   4.307   4.831  15.614  0.1788 -0.5757 -0.4522
 1508TIP3    H125939   4.396   4.865  15.601  0.0819 -0.8893 -2.1084
 1508TIP3    H225940   4.258   4.865  15.539 -1.1550 -0.2581  0.5419
 1509TIP3   OH225941   2.395   5.036  11.321  0.2364 -0.0010  0.0113
 1509TIP3    H125942   2.452   5.113  11.326  1.5553 -0.9243 -0.7486
 1509TIP3    H225943   2.374   5.027  11.228  1.4147 -1.5173 -0.1218
 1510TIP3   OH225944   3.071   3.011  11.905  0.3105 -0.1408  0.2460
 1510TIP3    H125945   3.082   2.974  11.993  2.2141 -2.0159 -0.7179
 1510TIP3    H225946   3.090   3.104  11.915 -1.0339 -0.0487  2.0999
 1511TIP3   OH225947   2.290   2.227   1.923 -0.2384 -0.3643 -0.1841
 1511TIP3    H125948   2.281   2.149   1.977 -1.3803 -0.2471 -0.1804
 1511TIP3    H225949   2.376   2.219   1.882 -0.1672 -1.4001  0.1624
 1512TIP3   OH225950   5.067   2.972   0.913  0.3200  0.5317 -0.3563
 1512TIP3    H125951   5.134   2.968   0.981 -2.0348 -0.3582  1.9869
 1512TIP3    H225952   4.996   2.918   0.946 -0.6522 -0.4677 -3.8522
 1513TIP3   OH225953   5.807   6.725   5.898 -0.8937 -0.1828 -0.0203
 1513TIP3    H125954   5.815   6.718   5.994  0.8979  1.3038 -0.0374
 1513TIP3    H225955   5.730   6.673   5.877 -2.6943  1.3547  2.4875
 1514TIP3   OH225956   0.573   2.910  12.647 -0.0088  0.1832  0.4444
 1514TIP3    H125957   0.520   2.849  12.596  0.6530 -0.7387  0.8449
 1514TIP3    H225958   0.581   2.869  12.733  0.1864  0.9768  0.8074
 1515TIP3   OH225959   5.891   6.663  16.377 -0.4370  0.2850  0.1422
 1515TIP3    H125960   5.961   6.651  16.440 -1.9488 -0.1863  1.7680
 1515TIP3    H225961   5.819   6.610  16.411 -1.6693  0.9715 -1.3488
 1516TIP3   OH225962   2.214   1.113  16.836  0.4014  0.5733 -0.6022
 1516TIP3    H125963   2.237   1.031  16.793  0.4645  0.6439 -0.7011
 1516TIP3    H225964   2.238   1.181  16.773  0.9640  0.7050 -0.2531
 1517TIP3   OH225965   2.933   6.716  13.476 -0.0283  0.0107  0.4122
 1517TIP3    H125966   2.871   6.644  13.476 -1.1639  0.9627  0.0445
 1517TIP3    H225967   2.934   6.747  13.385  0.9734  0.0122  0.4191
 1518TIP3   OH225968   1.480   4.187  16.520 -0.3814  0.3793 -0.7047
 1518TIP3    H125969   1.389   4.219  16.517 -0.0661  1.2673 -0.8224
 1518TIP3    H225970   1.527   4.254  16.570  0.4568  0.5387 -1.7007
 1519TIP3   OH225971   2.437   4.425   1.975 -0.3803 -0.2046 -0.1973
 1519TIP3    H125972   2.378   4.500   1.961  0.2332  0.2440 -0.4039
 1519TIP3    H225973   2.482   4.415   1.891  1.3040  0.7384  0.5737
 1520TIP3   OH225974   5.159   4.211   6.188 -0.7198 -0.0294  0.1713
 1520TIP3    H125975   5.085   4.268   6.211 -1.3241 -0.5691 -0.3971
 1520TIP3    H225976   5.201   4.255   6.114  0.5669  1.1505  1.5979
 1521TIP3   OH225977   1.528   5.064   5.062 -0.3863 -0.8251 -0.5286
 1521TIP3    H125978   1.510   5.057   4.968  1.9937  2.5536 -1.3200
 1521TIP3    H225979   1.580   4.986   5.082  2.1703  0.2280 -2.8493
 1522TIP3   OH225980   0.905   5.709  14.841 -0.1525 -0.2613 -0.3344
 1522TIP3    H125981   0.829   5.763  14.861 -0.6516 -1.3903  0.9141
 1522TIP3    H225982   0.877   5.620  14.861  0.2286 -1.1664 -3.5257
 1523TIP3   OH225983   1.335   4.777  12.699 -0.3207  0.2442  0.0688
 1523TIP3    H125984   1.274   4.772  12.625 -0.2701 -1.3639  0.1188
 1523TIP3    H225985   1.279   4.790  12.775 -0.3653  2.0247 -0.2610
 1524TIP3   OH225986   5.250   6.183  13.301 -0.2268 -0.4705  0.6257
 1524TIP3    H125987   5.258   6.159  13.209  0.5015  1.3490  0.1862
 1524TIP3    H225988   5.307   6.121  13.347  0.7202 -0.3356 -0.3441
 1525TIP3   OH225989   4.607   3.236   5.105  0.4203  0.1686  0.3102
 1525TIP3    H125990   4.676   3.247   5.040  1.9093 -0.7292  1.6839
 1525TIP3    H225991   4.639   3.284   5.182  0.7799 -2.4619  1.8594
 1526TIP3   OH225992   1.077   5.308   2.140  0.1865  0.2636  0.6831
 1526TIP3    H125993   1.052   5.217   2.120  1.8441 -0.1236  0.2740
 1526TIP3    H225994   1.072   5.353   2.056 -0.7942  0.5964  0.9164
 1527TIP3   OH225995   2.843   6.201   1.588 -0.1397  0.7440  1.3352
 1527TIP3    H125996   2.847   6.117   1.543 -0.1300  1.6813 -0.4518
 1527TIP3    H225997   2.935   6.227   1.599 -0.1679  1.2850  0.3858
 1528TIP3   OH225998   5.932   3.756   4.669  0.2109  0.0077  0.2650
 1528TIP3    H125999   5.888   3.786   4.749 -0.4482  0.8080 -0.3798
 1528TIP3    H226000   6.025   3.768   4.687 -0.0475  2.7280 -0.0715
 1529TIP3   OH226001   4.624   0.110  16.280 -0.2598 -0.3701 -0.1175
 1529TIP3    H126002   4.567   0.060  16.222  2.0188 -1.7878 -1.2338
 1529TIP3    H226003   4.665   0.175  16.223  1.3319 -1.1925  0.0561
 1530TIP3   OH226004   3.070   5.751  16.301  0.1978 -0.0259  0.0084
 1530TIP3    H126005   2.991   5.701  16.283  0.8393 -1.6060  1.4167
 1530TIP3    H226006   3.074   5.817  16.231 -0.1042 -2.6142 -2.5444
 1531TIP3   OH226007   2.314   4.014   1.447 -0.5663 -0.1837  0.0428
 1531TIP3    H126008   2.390   3.959   1.425 -0.8999  0.0309 -1.7800
 1531TIP3    H226009   2.239   3.967   1.411 -1.0606  0.5592  0.0915
 1532TIP3   OH226010   0.837   4.601  16.611 -0.0269 -0.4485  0.1608
 1532TIP3    H126011   0.785   4.586  16.532  1.1884  2.3751 -1.2676
 1532TIP3    H226012   0.912   4.652  16.580  1.2982 -0.6667  2.9001
 1533TIP3   OH226013   6.274   3.919  13.081 -0.2912  0.1200 -0.2230
 1533TIP3    H126014   6.193   3.913  13.132  0.3702 -0.0847  0.8181
 1533TIP3    H226015   6.267   4.004  13.037 -1.5518 -0.3648 -0.9967
 1534TIP3   OH226016   2.076   2.814   2.065  0.8168  0.4715  0.0660
 1534TIP3    H126017   2.137   2.883   2.093  0.8082 -1.0427  3.9667
 1534TIP3    H226018   1.999   2.862   2.035  1.9678  2.2311 -0.1978
 1535TIP3   OH226019   6.670   4.445   0.758 -0.5746  0.1251 -0.4081
 1535TIP3    H126020   6.727   4.459   0.683 -1.1659 -0.0898 -0.8997
 1535TIP3    H226021   6.730   4.429   0.831 -0.0148 -1.5852 -1.2077
 1536TIP3   OH226022   4.253   6.197  13.691 -0.0494  0.0178  0.4650
 1536TIP3    H126023   4.263   6.184  13.785  0.2435 -0.1312  0.4146
 1536TIP3    H226024   4.324   6.257  13.667  1.3965 -1.8344 -0.0721
 1537TIP3   OH226025   1.285   5.308   4.976  0.4227  0.1451  0.4096
 1537TIP3    H126026   1.189   5.316   4.973  0.4675  0.9825  1.0141
 1537TIP3    H226027   1.308   5.334   5.065  1.0552 -1.8939  0.8806
 1538TIP3   OH226028   4.768   0.014  11.172 -0.3079 -0.5403 -0.6669
 1538TIP3    H126029   4.677  -0.016  11.178 -0.4493 -0.1355 -0.7755
 1538TIP3    H226030   4.761   0.105  11.142  0.1538 -0.6746 -1.1816
 1539TIP3   OH226031   4.266   0.178  15.893 -0.3582  0.1163 -0.6460
 1539TIP3    H126032   4.202   0.177  15.965 -0.9572 -0.2444 -1.1870
 1539TIP3    H226033   4.344   0.138  15.930 -0.9934 -0.9915 -0.5045
 1540TIP3   OH226034   3.322   4.019   3.500 -0.2064  0.0427 -0.6675
 1540TIP3    H126035   3.368   4.061   3.573 -0.3491 -2.0770  0.6967
 1540TIP3    H226036   3.382   3.950   3.471 -1.5618 -1.3035 -0.3286
 1541TIP3   OH226037   2.411   1.411  13.391  0.4118  0.0414 -0.1755
 1541TIP3    H126038   2.506   1.404  13.400  0.3699  0.2487  0.4298
 1541TIP3    H226039   2.384   1.464  13.466 -0.2249 -0.3374 -0.1423
 1542TIP3   OH226040   2.828   2.813  13.275  0.4202 -0.4038  0.0676
 1542TIP3    H126041   2.851   2.720  13.281  1.1319 -0.2267  0.1592
 1542TIP3    H226042   2.742   2.814  13.233 -0.5706 -1.2249  1.9932
 1543TIP3   OH226043   5.154   2.772  15.759 -0.2821 -0.2078  0.1135
 1543TIP3    H126044   5.155   2.746  15.851  1.3794  0.1606  0.2151
 1543TIP3    H226045   5.233   2.825  15.748 -0.6038 -0.0242 -1.4656
 1544TIP3   OH226046   0.167   4.868  15.946 -0.2630  0.3800  0.4124
 1544TIP3    H126047   0.206   4.853  16.032 -1.2678 -2.4983  0.4038
 1544TIP3    H226048   0.080   4.828  15.951  0.0421 -0.7250 -2.2452
 1545TIP3   OH226049   4.562   0.593   3.875  0.0443 -0.6256 -0.1425
 1545TIP3    H126050   4.499   0.537   3.921  0.3092  0.8440  2.0589
 1545TIP3    H226051   4.644   0.544   3.878 -0.3994 -1.4170 -0.7908
 1546TIP3   OH226052   2.466   1.919   5.148 -0.0212  0.4695  0.6366
 1546TIP3    H126053   2.446   1.986   5.082 -0.8887  1.4854  1.9076
 1546TIP3    H226054   2.524   1.858   5.103 -0.7935  1.0093 -1.1513
 1547TIP3   OH226055   2.218   3.699  13.903 -0.3125  0.6344  0.1810
 1547TIP3    H126056   2.198   3.770  13.842 -2.7988  0.7444  1.0693
 1547TIP3    H226057   2.183   3.729  13.987  2.5485  0.2335  1.5672
 1548TIP3   OH226058   4.625   0.370  11.678  0.0433  0.8933 -0.0334
 1548TIP3    H126059   4.698   0.317  11.710 -0.8004 -0.4494 -0.2981
 1548TIP3    H226060   4.654   0.401  11.592  0.1903  0.1125 -0.2682
 1549TIP3   OH226061   5.978   6.161  15.111 -0.2442 -0.2995  0.2675
 1549TIP3    H126062   5.968   6.157  15.206 -0.7868 -0.7354  0.1988
 1549TIP3    H226063   5.951   6.250  15.088 -1.0549 -0.4993  0.4242
 1550TIP3   OH226064   0.108   5.215  13.860 -0.0788  0.2111 -0.0235
 1550TIP3    H126065   0.174   5.151  13.889 -0.1322  0.9069  1.7171
 1550TIP3    H226066   0.025   5.179  13.889 -0.3210  0.0747 -0.8744
 1551TIP3   OH226067   5.006   2.252  15.550  0.0366 -0.3211  0.5579
 1551TIP3    H126068   4.996   2.201  15.470  0.2682  0.2498  0.1693
 1551TIP3    H226069   5.063   2.198  15.605  0.2548 -0.5001  0.1589
 1552TIP3   OH226070   1.886   2.219   0.552 -0.1021 -0.2386  0.3351
 1552TIP3    H126071   1.966   2.167   0.539  0.1286 -0.3891  2.1762
 1552TIP3    H226072   1.898   2.260   0.637 -2.0989 -0.4686  0.7570
 1553TIP3   OH226073   5.362   2.592   3.088 -0.1767  0.8099  0.1817
 1553TIP3    H126074   5.394   2.503   3.072 -0.8531  0.2927  1.6276
 1553TIP3    H226075   5.377   2.607   3.181  0.7728  2.5713 -0.2434
 1554TIP3   OH226076   3.768   3.490   2.599  0.1656  0.8097  0.1993
 1554TIP3    H126077   3.793   3.407   2.560 -0.6363  1.4196 -1.6884
 1554TIP3    H226078   3.848   3.523   2.639  0.4987 -0.8415  0.9294
 1555TIP3   OH226079   1.602   2.999  14.247 -0.3874 -0.0338  0.8397
 1555TIP3    H126080   1.528   2.985  14.188  1.0791 -0.4714 -0.9394
 1555TIP3    H226081   1.563   3.037  14.326 -2.4284  0.2110 -0.2597
 1556TIP3   OH226082   3.850   2.779  13.136  0.3242  0.2651  0.3131
 1556TIP3    H126083   3.856   2.799  13.043  0.4684 -1.1389  0.0039
 1556TIP3    H226084   3.932   2.734  13.157  0.0775  0.1177  0.9962
 1557TIP3   OH226085   1.935   0.400  16.628 -0.2713 -0.3824  0.7672
 1557TIP3    H126086   1.985   0.348  16.691  0.3255 -0.6883  0.0390
 1557TIP3    H226087   1.997   0.466  16.597 -0.7684  0.2141  1.0220
 1558TIP3   OH226088   0.453   5.974  11.674 -0.6497  0.4416  0.5862
 1558TIP3    H126089   0.529   5.986  11.732  0.6939 -1.8855 -0.6069
 1558TIP3    H226090   0.464   6.040  11.606  0.9467 -0.6081 -0.2016
 1559TIP3   OH226091   0.488   6.444   2.142 -0.3518  0.1248 -0.2645
 1559TIP3    H126092   0.503   6.419   2.051 -1.3314 -0.0229 -0.3903
 1559TIP3    H226093   0.442   6.528   2.137 -0.0435  0.3194  0.1036
 1560TIP3   OH226094   4.523   4.449  14.709 -0.4277  0.2781  0.3042
 1560TIP3    H126095   4.449   4.432  14.652  0.0200 -0.3208 -0.1100
 1560TIP3    H226096   4.600   4.434  14.653 -0.0079  1.4989  0.5533
 1561TIP3   OH226097   3.910   6.619  16.614  0.1722 -0.3493  0.0840
 1561TIP3    H126098   3.841   6.609  16.548 -0.1705 -1.6057  0.6328
 1561TIP3    H226099   3.877   6.574  16.691  1.7490 -1.2584  0.2424
 1562TIP3   OH226100   0.430   1.600   5.342  0.4359  0.7963  0.6038
 1562TIP3    H126101   0.476   1.617   5.260 -1.4215  2.4328 -0.1261
 1562TIP3    H226102   0.484   1.643   5.409  0.6994  1.5426 -0.0788
 1563TIP3   OH226103   1.375   1.520   5.246  0.2901  0.2718  0.5172
 1563TIP3    H126104   1.378   1.530   5.341 -0.4236  0.5099  0.5239
 1563TIP3    H226105   1.432   1.590   5.213  0.6372  0.1097  0.7739
 1564TIP3   OH226106   2.710   0.289  14.582  0.3137  0.0233  0.0015
 1564TIP3    H126107   2.706   0.305  14.676  0.1430  0.6316 -0.1089
 1564TIP3    H226108   2.658   0.209  14.569  1.3121 -0.7264  0.5735
 1565TIP3   OH226109   2.764   5.900   1.507  0.3888 -0.4846 -0.5193
 1565TIP3    H126110   2.824   5.870   1.575 -0.2640  0.1634  0.3541
 1565TIP3    H226111   2.715   5.821   1.483  2.3506 -1.2635 -2.0469
 1566TIP3   OH226112   3.541   2.406   5.649  0.0356 -0.1616 -0.3949
 1566TIP3    H126113   3.481   2.479   5.635 -0.3831  0.2635  3.2237
 1566TIP3    H226114   3.618   2.445   5.690  0.2373 -1.5918  0.6279
 1567TIP3   OH226115   0.826   2.537  12.716 -0.5000  0.0539  0.3380
 1567TIP3    H126116   0.795   2.571  12.632  1.7271 -0.9084 -0.9216
 1567TIP3    H226117   0.747   2.526  12.768 -1.8704  1.1843 -1.4437
 1568TIP3   OH226118   2.195   0.636  12.460  0.0699  0.0092  0.5024
 1568TIP3    H126119   2.201   0.571  12.530 -0.3893 -1.5810 -0.9045
 1568TIP3    H226120   2.259   0.608  12.395  1.2872  2.1108  0.7610
 1569TIP3   OH226121   1.618   2.215  14.187  0.1649 -0.1619 -0.0856
 1569TIP3    H126122   1.654   2.278  14.125  0.4774  1.0372  1.2723
 1569TIP3    H226123   1.531   2.195  14.152  0.2097  0.7381 -0.7336
 1570TIP3   OH226124   1.589   1.262  12.704 -0.2973 -0.3980 -0.0890
 1570TIP3    H126125   1.632   1.178  12.718  1.5745  0.5675  0.1963
 1570TIP3    H226126   1.528   1.246  12.632 -1.6925 -2.5525  1.5146
 1571TIP3   OH226127   6.228   3.329   2.433 -0.1500  0.5046 -0.2753
 1571TIP3    H126128   6.238   3.328   2.528 -2.0176  1.5224 -0.0355
 1571TIP3    H226129   6.246   3.239   2.406 -1.0077 -0.1492  1.2250
 1572TIP3   OH226130   1.767   2.584  16.998 -0.1183  0.6231  0.3169
 1572TIP3    H126131   1.681   2.563  16.962  0.0882 -2.6851  1.5996
 1572TIP3    H226132   1.749   2.609  17.089  0.1731  0.8284  0.3160
 1573TIP3   OH226133   2.623   2.234  16.715 -0.0456 -0.2293 -0.0606
 1573TIP3    H126134   2.712   2.206  16.735 -0.6189  0.3826  3.8934
 1573TIP3    H226135   2.582   2.159  16.673  1.4885 -1.5434  0.7693
 1574TIP3   OH226136   2.171   5.102   2.233 -0.1380 -0.0370  0.1731
 1574TIP3    H126137   2.226   5.120   2.157 -1.3335 -0.9730 -0.9377
 1574TIP3    H226138   2.199   5.166   2.299  1.8241 -0.0884 -0.5838
 1575TIP3   OH226139   0.069   4.054   1.075  0.3751 -0.3067  0.2450
 1575TIP3    H126140   0.136   3.984   1.078 -0.8626 -1.5463 -0.5490
 1575TIP3    H226141   0.100   4.119   1.138  2.1972 -0.9962  0.0941
 1576TIP3   OH226142   4.825   4.091   3.324  0.9212 -0.5715 -0.3918
 1576TIP3    H126143   4.779   4.168   3.358  0.0371 -0.6441 -1.3900
 1576TIP3    H226144   4.772   4.016   3.352 -0.1312 -0.5988 -2.3545
 1577TIP3   OH226145   2.154   0.292   4.182 -0.3128 -0.4259 -0.0738
 1577TIP3    H126146   2.191   0.360   4.125  1.3664 -1.6229 -0.4624
 1577TIP3    H226147   2.165   0.327   4.271  0.1839 -0.0122 -0.2931
 1578TIP3   OH226148   0.966   1.702   4.163  0.2996  0.1624  0.1302
 1578TIP3    H126149   0.978   1.640   4.235  0.7275 -1.2515 -1.1230
 1578TIP3    H226150   1.037   1.765   4.174 -1.2335  1.5378  2.4855
 1579TIP3   OH226151   1.542   5.645   2.053  0.3038  0.2758  0.2284
 1579TIP3    H126152   1.476   5.648   1.984  0.3115  0.6090  0.2362
 1579TIP3    H226153   1.622   5.619   2.007 -0.1113 -1.4369  0.4347
 1580TIP3   OH226154   3.243   6.763  10.459  0.3633  0.0678  0.2595
 1580TIP3    H126155   3.160   6.733  10.497  0.1985  0.1226 -0.0508
 1580TIP3    H226156   3.229   6.758  10.364  0.7206  0.0652  0.2070
 1581TIP3   OH226157   2.888   2.256   4.178  0.4321 -0.3597  0.4375
 1581TIP3    H126158   2.836   2.333   4.201  0.6847 -0.3632  1.0124
 1581TIP3    H226159   2.867   2.192   4.246  1.3335 -0.2983  0.7751
 1582TIP3   OH226160   2.791   5.230  14.822  0.2041 -0.1478 -0.1185
 1582TIP3    H126161   2.762   5.217  14.732 -0.4596  1.2683 -0.1200
 1582TIP3    H226162   2.882   5.259  14.815  0.1058  0.1051 -0.3507
 1583TIP3   OH226163   1.435   3.833  16.445 -0.2088  0.7531 -0.3608
 1583TIP3    H126164   1.345   3.800  16.442  0.2305 -0.5430  0.4590
 1583TIP3    H226165   1.425   3.928  16.455 -1.4864  0.6732 -0.8124
 1584TIP3   OH226166   1.752   1.066   5.929 -0.2359  0.0714  0.4486
 1584TIP3    H126167   1.812   1.133   5.962 -0.8803  1.7091 -1.5978
 1584TIP3    H226168   1.806   0.987   5.921  1.0397  0.8810  0.9243
 1585TIP3   OH226169   6.076   5.607  12.479  0.0335 -0.2861 -0.3198
 1585TIP3    H126170   6.027   5.667  12.535 -0.6170 -1.0460 -0.0479
 1585TIP3    H226171   6.162   5.647  12.469 -0.0909  0.2247  0.6283
 1586TIP3   OH226172   6.334   0.909   1.828  0.1705 -0.6256  0.6818
 1586TIP3    H126173   6.287   0.830   1.857 -0.1504  0.3766  2.9302
 1586TIP3    H226174   6.271   0.980   1.840  0.9212  0.1852 -0.0962
 1587TIP3   OH226175   5.278   4.388  16.669 -0.7166 -0.4408 -0.1123
 1587TIP3    H126176   5.348   4.325  16.689 -0.8419 -0.5350  0.0327
 1587TIP3    H226177   5.324   4.471  16.657 -0.3692 -0.8977 -2.0200
 1588TIP3   OH226178   2.826   6.716   1.099 -0.2359  0.4073  0.2570
 1588TIP3    H126179   2.777   6.649   1.052 -0.9612  1.6721 -0.8323
 1588TIP3    H226180   2.767   6.746   1.167 -0.4360  0.9165 -0.1395
 1589TIP3   OH226181   6.678   2.857  15.552  0.2106  0.4241  0.5172
 1589TIP3    H126182   6.633   2.881  15.471  0.2439  1.3578  0.7662
 1589TIP3    H226183   6.695   2.763  15.544 -1.9165  0.0211  0.4682
 1590TIP3   OH226184   2.095   6.313  11.601 -0.6746 -0.1279 -0.6451
 1590TIP3    H126185   2.022   6.302  11.661 -0.6620 -0.3488 -0.6679
 1590TIP3    H226186   2.055   6.320  11.515 -0.7684  1.3833 -0.4956
 1591TIP3   OH226187   6.372   5.088   4.951 -0.5921 -0.0749 -0.6021
 1591TIP3    H126188   6.300   5.088   5.014  0.0732 -0.3251  0.1604
 1591TIP3    H226189   6.363   5.171   4.904 -1.4943 -0.1954 -0.6464
 1592TIP3   OH226190   3.880   6.384  14.160 -0.0894  0.0724  0.8127
 1592TIP3    H126191   3.880   6.475  14.188 -1.6594 -0.1366  1.5676
 1592TIP3    H226192   3.924   6.337  14.231 -0.7656  0.0311  1.2098
 1593TIP3   OH226193   1.733   6.142  16.726  0.6582  0.1134 -0.0799
 1593TIP3    H126194   1.650   6.135  16.678  0.2012  1.5620  0.4440
 1593TIP3    H226195   1.787   6.072  16.691  0.1734  0.8309 -2.4064
 1594TIP3   OH226196   3.041   4.626   1.286  0.2817 -0.5139 -0.0025
 1594TIP3    H126197   3.059   4.595   1.197 -1.7449 -2.2856  0.1828
 1594TIP3    H226198   2.949   4.653   1.284  0.1516 -0.7788  1.6172
 1595TIP3   OH226199   2.815   2.013   0.946  0.4748  0.4530  0.0509
 1595TIP3    H126200   2.780   2.052   1.026 -0.9941  0.0084 -0.3532
 1595TIP3    H226201   2.756   1.940   0.927  0.7571  0.5990 -1.4681
 1596TIP3   OH226202   2.568   4.858  13.296  0.5317 -0.0290 -0.1998
 1596TIP3    H126203   2.603   4.948  13.290  4.2733 -1.4311 -0.8655
 1596TIP3    H226204   2.625   4.815  13.360  0.6390 -2.7393 -2.0741
 1597TIP3   OH226205   4.610   3.338  14.350 -0.5311 -0.1093  0.3715
 1597TIP3    H126206   4.614   3.433  14.355 -0.4262 -0.2098  2.6841
 1597TIP3    H226207   4.535   3.314  14.403 -0.1687 -1.3653  0.3344
 1598TIP3   OH226208   6.781   2.421   5.150  0.1195  0.4280 -0.7513
 1598TIP3    H126209   6.710   2.435   5.212 -1.5261 -0.5470 -2.3419
 1598TIP3    H226210   6.855   2.468   5.186 -1.4922  1.8922  0.7025
 1599TIP3   OH226211   2.733   6.490   4.728 -0.4520  0.6463  0.0494
 1599TIP3    H126212   2.733   6.515   4.636  1.4167  0.3502 -0.0490
 1599TIP3    H226213   2.762   6.398   4.728 -1.1876  0.4045  0.8722
 1600TIP3   OH226214   2.786   6.446   0.718 -0.1500  0.1206  0.1561
 1600TIP3    H126215   2.756   6.467   0.806  0.0772  2.8918 -0.3615
 1600TIP3    H226216   2.880   6.464   0.720 -0.2337  0.7036 -0.7759
 1601TIP3   OH226217   5.010   3.486   4.500  0.3965 -0.0254 -0.6987
 1601TIP3    H126218   4.926   3.528   4.484  0.3488  0.1898  0.0871
 1601TIP3    H226219   5.003   3.400   4.458  0.2885  0.5206 -1.8194
 1602TIP3   OH226220   5.644   4.400   5.159  0.5707  0.0245 -0.0631
 1602TIP3    H126221   5.579   4.466   5.184  0.8028  1.5049 -3.0052
 1602TIP3    H226222   5.725   4.427   5.204  0.2191  0.7263  0.1506
 1603TIP3   OH226223   5.973   1.923  15.250 -0.0646 -0.4979  0.1530
 1603TIP3    H126224   6.043   1.860  15.262 -0.3663 -0.5801  1.5509
 1603TIP3    H226225   6.017   2.004  15.223  0.6769 -0.1863  2.2754
 1604TIP3   OH226226   3.621   0.751   6.495  0.6923  0.0000 -0.0657
 1604TIP3    H126227   3.588   0.803   6.421 -1.6449  0.0118  0.9393
 1604TIP3    H226228   3.615   0.811   6.570 -0.6056 -1.2124  0.8230
 1605TIP3   OH226229   0.510   4.147  11.348 -0.0436 -1.2224 -0.3536
 1605TIP3    H126230   0.505   4.128  11.254 -0.5384  1.8544 -0.9919
 1605TIP3    H226231   0.421   4.176  11.370  0.9176  1.3721  0.2673
 1606TIP3   OH226232   4.226   1.308   0.451 -0.3991 -0.2861  0.4218
 1606TIP3    H126233   4.170   1.244   0.407  0.6206  0.5537 -2.2146
 1606TIP3    H226234   4.199   1.392   0.415  1.7888  0.2348 -0.0629
 1607TIP3   OH226235   0.981   3.463   3.088  0.3572 -0.4109 -0.2831
 1607TIP3    H126236   0.927   3.516   3.146 -1.3347 -1.0836 -1.2288
 1607TIP3    H226237   1.031   3.528   3.038  0.9318  0.1937  1.0515
 1608TIP3   OH226238   3.575   6.378  10.532  0.1564 -0.1077  0.3906
 1608TIP3    H126239   3.604   6.444  10.595 -1.3967 -2.6887  4.0183
 1608TIP3    H226240   3.622   6.298  10.558  0.1399 -1.0307 -2.3159
 1609TIP3   OH226241   6.053   5.662  13.463 -0.8811 -0.1988 -0.4315
 1609TIP3    H126242   5.981   5.718  13.492  1.9385  2.8927  0.8308
 1609TIP3    H226243   6.093   5.630  13.544  0.3326 -0.3861 -1.0971
 1610TIP3   OH226244   2.367   4.413   3.117  0.0314  0.0995  0.4141
 1610TIP3    H126245   2.371   4.482   3.051  2.2096 -1.3975 -1.1011
 1610TIP3    H226246   2.442   4.428   3.173  0.6171 -1.1060 -0.0234
 1611TIP3   OH226247   6.058   0.919  12.933  0.3150 -0.0732  0.5443
 1611TIP3    H126248   6.074   0.992  12.993  0.9063  2.3937 -2.4829
 1611TIP3    H226249   5.981   0.947  12.882  0.1909 -1.8314 -0.2553
 1612TIP3   OH226250   5.552   2.243   4.112 -0.2336 -0.4267  0.6056
 1612TIP3    H126251   5.643   2.215   4.116  0.0130  0.6637  3.2380
 1612TIP3    H226252   5.508   2.197   4.184 -1.6555 -0.4605 -0.2428
 1613TIP3   OH226253   4.964   2.909   1.616  0.3313  0.3049 -0.0250
 1613TIP3    H126254   4.906   2.905   1.540 -0.1776 -1.5057  0.4454
 1613TIP3    H226255   5.046   2.945   1.581 -0.3005  0.6809 -1.1594
 1614TIP3   OH226256   3.273   5.152  13.993 -0.1479  0.2557 -0.4057
 1614TIP3    H126257   3.328   5.074  14.004 -1.1482 -0.6617 -1.6571
 1614TIP3    H226258   3.267   5.190  14.081 -1.4289 -2.3381  0.6843
 1615TIP3   OH226259   1.753   2.620   0.849 -0.2941 -0.8266 -0.4056
 1615TIP3    H126260   1.680   2.649   0.904 -0.2874 -1.0688 -0.2723
 1615TIP3    H226261   1.822   2.684   0.866 -0.9285  0.1969 -1.5411
 1616TIP3   OH226262   5.275   1.777  11.512  0.1059 -0.5311  0.5986
 1616TIP3    H126263   5.335   1.841  11.475  1.2224 -0.7974  1.9051
 1616TIP3    H226264   5.230   1.740  11.436  1.0475  0.2062 -0.3411
 1617TIP3   OH226265   2.082   4.471  16.258  0.0787  0.0727  0.8297
 1617TIP3    H126266   2.122   4.401  16.207  0.5915  0.2790  0.9430
 1617TIP3    H226267   2.144   4.486  16.330 -0.7667 -0.4059  1.6690
 1618TIP3   OH226268   3.353   5.630   3.325 -0.5958 -0.0450 -0.1526
 1618TIP3    H126269   3.424   5.676   3.370 -0.4878 -0.1511 -0.2146
 1618TIP3    H226270   3.286   5.618   3.392 -1.2155  1.4514 -0.4850
 1619TIP3   OH226271   5.420   5.143  14.501  0.2980  0.1990 -0.2143
 1619TIP3    H126272   5.498   5.124  14.449  0.5875 -0.4921  0.4517
 1619TIP3    H226273   5.453   5.194  14.575  0.3270 -1.2331  0.7670
 1620TIP3   OH226274   0.251   5.953   4.296 -0.8255  0.0158 -0.0584
 1620TIP3    H126275   0.296   5.956   4.381  0.5930  1.9283 -0.8555
 1620TIP3    H226276   0.158   5.951   4.319 -0.4561  0.4308  1.5384
 1621TIP3   OH226277   0.586   4.311   5.356  0.0824 -0.9655  0.0139
 1621TIP3    H126278   0.577   4.382   5.420 -1.2437 -1.9799  0.9733
 1621TIP3    H226279   0.565   4.352   5.272  0.8750  0.1468  0.3404
 1622TIP3   OH226280   2.778   6.508   1.943 -0.1840 -0.0003  0.3235
 1622TIP3    H126281   2.817   6.433   1.989  1.0507  0.7905  0.5882
 1622TIP3    H226282   2.837   6.525   1.870 -0.4407  0.7310  0.2827
 1623TIP3   OH226283   0.666   3.309  14.845 -0.0060  0.0777 -0.2408
 1623TIP3    H126284   0.615   3.293  14.924  0.8826  1.0479  0.5452
 1623TIP3    H226285   0.676   3.404  14.842 -1.4160  0.1785 -2.4196
 1624TIP3   OH226286   2.199   5.083   6.000 -0.1240  0.4701 -0.3031
 1624TIP3    H126287   2.167   5.071   6.089 -0.1706  1.6516 -0.1589
 1624TIP3    H226288   2.287   5.117   6.010  0.7567 -1.5942 -0.7090
 1625TIP3   OH226289   2.647   3.400   3.028  0.5905  0.3962 -0.0603
 1625TIP3    H126290   2.695   3.476   3.061  0.7065 -0.0148  0.7314
 1625TIP3    H226291   2.568   3.396   3.082 -0.1403  0.8281 -1.0871
 1626TIP3   OH226292   2.916   5.016  14.614 -0.1812 -0.0432  0.2590
 1626TIP3    H126293   2.951   4.927  14.623  1.5044  0.5114 -0.6524
 1626TIP3    H226294   2.845   5.008  14.551  0.4456 -0.6287 -0.3801
 1627TIP3   OH226295   5.135   5.116   4.386  0.0123  0.4045  0.2923
 1627TIP3    H126296   5.211   5.058   4.375 -0.6139 -0.2962 -0.4145
 1627TIP3    H226297   5.137   5.172   4.308 -0.6797 -0.1908 -0.1629
 1628TIP3   OH226298   4.914   0.954   5.149  0.4130  0.0022 -0.0239
 1628TIP3    H126299   4.855   0.990   5.083 -0.1843 -0.1775  0.4089
 1628TIP3    H226300   4.952   0.876   5.107 -0.4913 -0.5093  0.0861
 1629TIP3   OH226301   4.976   0.099  16.811  0.1624  0.0764  0.1450
 1629TIP3    H126302   5.006   0.101  16.902 -0.4557  2.3090  0.3181
 1629TIP3    H226303   4.906   0.163  16.807 -2.7493 -3.0093 -0.9563
 1630TIP3   OH226304   3.386   4.390   3.667  0.7389 -0.5500 -0.0082
 1630TIP3    H126305   3.460   4.362   3.721  0.4491 -0.6619  0.3325
 1630TIP3    H226306   3.311   4.386   3.726  0.4579 -0.4640 -0.3621
 1631TIP3   OH226307   2.672   4.946  14.463  1.1938  0.1125 -0.6961
 1631TIP3    H126308   2.682   5.040  14.445  0.3846  0.3464  0.0435
 1631TIP3    H226309   2.578   4.933  14.474  1.3513 -0.6908 -0.2616
 1632TIP3   OH226310   4.796   2.877  14.932  0.1316 -0.0653  0.3497
 1632TIP3    H126311   4.818   2.836  14.848  0.6645 -1.2327  1.0508
 1632TIP3    H226312   4.730   2.943  14.910  1.9506  1.2587 -1.3121
 1633TIP3   OH226313   2.176   0.689   5.515  0.2021  0.7650  0.2571
 1633TIP3    H126314   2.263   0.690   5.474  0.0084 -0.8333 -0.2190
 1633TIP3    H226315   2.169   0.603   5.555 -0.6919  1.3376  1.3673
 1634TIP3   OH226316   5.452   2.938  12.174 -0.3349 -0.1824 -0.0831
 1634TIP3    H126317   5.502   2.860  12.153 -1.5367 -0.9405 -0.2117
 1634TIP3    H226318   5.389   2.909  12.240  0.3301  1.0808  1.1426
 1635TIP3   OH226319   1.368   3.666  14.198 -0.1945 -0.0601  0.0459
 1635TIP3    H126320   1.449   3.677  14.148 -0.1435 -0.5950  0.0130
 1635TIP3    H226321   1.379   3.583  14.244 -0.8018 -0.2293 -0.1089
 1636TIP3   OH226322   4.364   2.360  16.658 -0.5047  0.2899 -0.3036
 1636TIP3    H126323   4.401   2.403  16.581 -1.9477  0.9585 -0.6620
 1636TIP3    H226324   4.350   2.270  16.630 -0.9242  0.5035 -0.8028
 1637TIP3   OH226325   2.908   5.758   4.524 -0.1827  0.5670  0.3019
 1637TIP3    H126326   2.893   5.759   4.618  0.3388 -0.9740  0.4012
 1637TIP3    H226327   2.964   5.682   4.508 -1.7255 -0.2361 -1.4830
 1638TIP3   OH226328   1.956   3.956   1.102 -0.2862  0.1225  0.6550
 1638TIP3    H126329   2.020   4.010   1.148 -2.2713  0.7637  2.7699
 1638TIP3    H226330   1.919   3.899   1.170 -0.3207 -1.8557 -0.9801
 1639TIP3   OH226331   4.700   4.893  13.039  0.7582 -0.1013  0.1527
 1639TIP3    H126332   4.780   4.919  12.994  1.1486 -0.2498  0.7604
 1639TIP3    H226333   4.722   4.896  13.132  0.0804 -0.2161  0.3232
 1640TIP3   OH226334   6.549   1.225  13.738 -0.1157  0.8010  0.2666
 1640TIP3    H126335   6.468   1.267  13.765 -0.5164  1.5417 -1.9645
 1640TIP3    H226336   6.618   1.277  13.778 -0.6916  1.7133  0.0799
 1641TIP3   OH226337   2.189   5.993  14.296 -0.0261 -0.0366 -0.9468
 1641TIP3    H126338   2.094   5.978  14.300 -0.4232  2.0023 -2.1144
 1641TIP3    H226339   2.203   6.034  14.211  1.8922 -0.0664 -0.6642
 1642TIP3   OH226340   5.114   5.360  16.773  0.3725  0.4663  0.0380
 1642TIP3    H126341   5.128   5.447  16.811 -0.1215  0.4196  0.3219
 1642TIP3    H226342   5.198   5.338  16.732  0.0799  1.6634 -1.2453
 1643TIP3   OH226343   1.543   4.362   4.144 -0.0480  0.0840  0.3151
 1643TIP3    H126344   1.459   4.326   4.173 -0.0564  0.1760  0.4062
 1643TIP3    H226345   1.607   4.296   4.169 -0.1866 -0.3730 -0.5141
 1644TIP3   OH226346   3.305   0.559  14.817 -0.4011 -0.1748 -0.3256
 1644TIP3    H126347   3.274   0.488  14.761 -0.9660 -0.2663  0.1010
 1644TIP3    H226348   3.258   0.547  14.899 -0.2646  0.5127 -0.1457
 1645TIP3   OH226349   2.867   5.372  12.964  0.1777  0.2384 -0.0572
 1645TIP3    H126350   2.830   5.337  12.883  1.5088 -0.6966 -0.2679
 1645TIP3    H226351   2.865   5.299  13.025  0.0020  0.6902  0.4818
 1646TIP3   OH226352   0.982   5.332   2.717 -0.0309  0.4019  0.2400
 1646TIP3    H126353   1.024   5.262   2.767  1.9898  3.3463  2.8823
 1646TIP3    H226354   1.014   5.321   2.627  1.6744 -0.9995  0.9918
 1647TIP3   OH226355   0.113   1.989  13.540 -0.8988  0.0860  0.9492
 1647TIP3    H126356   0.154   1.943  13.467 -1.9329 -0.7317  0.8540
 1647TIP3    H226357   0.186   2.023  13.591 -0.1616  0.4192 -0.3068
 1648TIP3   OH226358   3.304   6.345   4.910  0.5643 -0.0028  0.7294
 1648TIP3    H126359   3.210   6.360   4.900  0.5499 -0.8615 -0.4696
 1648TIP3    H226360   3.343   6.432   4.899  0.1261 -0.0748 -1.5227
 1649TIP3   OH226361   6.550   3.944   5.396  0.0207  0.4917 -0.3279
 1649TIP3    H126362   6.592   3.986   5.321 -1.0343  0.7365 -0.7911
 1649TIP3    H226363   6.456   3.953   5.379 -0.2286 -0.9586  0.1722
 1650TIP3   OH226364   5.327   2.881  16.719 -0.2478  0.2380 -0.2870
 1650TIP3    H126365   5.288   2.933  16.789  0.2435  0.2708 -0.0376
 1650TIP3    H226366   5.387   2.821  16.764  0.2154  0.3950 -0.6992
 1651TIP3   OH226367   4.512   0.811  13.124  0.7105 -0.3155  0.5604
 1651TIP3    H126368   4.478   0.869  13.192 -1.2939 -2.4383  1.4368
 1651TIP3    H226369   4.471   0.842  13.044 -0.9478 -0.9703  1.1434
 1652TIP3   OH226370   1.668   4.557  15.072 -0.1934 -0.4268 -0.0095
 1652TIP3    H126371   1.660   4.652  15.060 -0.8495 -0.0566  3.0792
 1652TIP3    H226372   1.600   4.520  15.015 -3.6585  1.2784  2.7940
 1653TIP3   OH226373   5.828   5.860   6.089  0.3099 -0.6490 -0.3756
 1653TIP3    H126374   5.883   5.815   6.025  1.6533 -0.3985  0.5867
 1653TIP3    H226375   5.841   5.811   6.170 -0.7686 -0.4819 -0.0931
 1654TIP3   OH226376   0.318   3.862  10.253  1.4147  0.1270 -0.4471
 1654TIP3    H126377   0.270   3.916  10.316  0.8602  0.8280 -1.4640
 1654TIP3    H226378   0.276   3.777  10.258  0.6750  0.4781 -0.6429
 1655TIP3   OH226379   2.291   3.738   2.148  0.1620  0.1618  0.3177
 1655TIP3    H126380   2.256   3.651   2.167 -0.4525  0.3752  0.1565
 1655TIP3    H226381   2.379   3.737   2.186  0.0054 -0.3917  0.6681
 1656TIP3   OH226382   0.694   3.853  15.881  0.1004  0.0635 -0.2377
 1656TIP3    H126383   0.659   3.875  15.967  2.7687  0.5910  0.7557
 1656TIP3    H226384   0.654   3.916  15.821  0.4525  1.5893  1.1091
 1657TIP3   OH226385   3.237   5.633   4.704 -0.3120 -0.3594 -0.2020
 1657TIP3    H126386   3.236   5.691   4.779 -1.0154 -1.3057  0.5372
 1657TIP3    H226387   3.327   5.601   4.698 -0.5248 -1.1912  0.9570
 1658TIP3   OH226388   2.024   0.116  13.486 -0.2919 -0.1679  0.4615
 1658TIP3    H126389   2.102   0.155  13.446  0.8072  0.3888  3.0662
 1658TIP3    H226390   2.051   0.027  13.510 -1.4027 -1.0176 -1.2911
 1659TIP3   OH226391   5.040   2.484  11.871  0.2375  0.0303  0.1452
 1659TIP3    H126392   4.975   2.420  11.899 -0.2853  0.6590  0.3826
 1659TIP3    H226393   5.103   2.488  11.943 -0.2750  0.5111  0.5838
 1660TIP3   OH226394   2.430   2.856  16.790  0.2889 -0.4794 -0.0618
 1660TIP3    H126395   2.346   2.816  16.769  0.6854 -0.7568 -1.1440
 1660TIP3    H226396   2.483   2.842  16.712  1.2878 -0.1680  0.5556
 1661TIP3   OH226397   4.151   5.454  13.428 -0.0527 -0.1348 -0.1938
 1661TIP3    H126398   4.241   5.483  13.440  0.0108  0.1432 -1.3390
 1661TIP3    H226399   4.131   5.406  13.509  1.2806 -0.6220 -0.1410
 1662TIP3   OH226400   4.414   1.755  12.058 -0.0354 -0.5619  0.7872
 1662TIP3    H126401   4.398   1.668  12.023 -0.4649 -0.4426  0.6850
 1662TIP3    H226402   4.341   1.808  12.026  0.4738 -0.0570  0.4585
 1663TIP3   OH226403   0.913   2.759  15.653  0.1328  0.1943 -1.0358
 1663TIP3    H126404   0.968   2.834  15.677 -0.3013  0.6652 -1.4942
 1663TIP3    H226405   0.910   2.761  15.558  1.4675 -1.3943 -1.1108
 1664TIP3   OH226406   5.019   1.955  12.467  0.2892  0.1400  0.1750
 1664TIP3    H126407   5.075   1.887  12.504  0.1465  0.1910  0.4870
 1664TIP3    H226408   5.012   2.021  12.536 -2.2263 -1.0652  1.1325
 1665TIP3   OH226409   1.583   1.429   0.192 -0.4856 -0.4882  0.7477
 1665TIP3    H126410   1.563   1.346   0.149 -0.2327 -1.4051  2.3298
 1665TIP3    H226411   1.501   1.453   0.236 -0.8017  0.5379 -0.3740
 1666TIP3   OH226412   5.253   0.706   6.421 -0.3799  0.2685  0.8140
 1666TIP3    H126413   5.183   0.738   6.366  1.3522  0.9729 -1.0470
 1666TIP3    H226414   5.223   0.622   6.454 -2.2365  0.7627  0.3901
 1667TIP3   OH226415   6.695   1.418  10.626 -0.0136 -0.0334  0.3485
 1667TIP3    H126416   6.631   1.486  10.644 -2.0618 -1.8761  0.2139
 1667TIP3    H226417   6.689   1.358  10.700  2.5290  0.4405  1.0044
 1668TIP3   OH226418   2.294   5.728   5.384  0.0887  0.4050 -0.0078
 1668TIP3    H126419   2.342   5.761   5.460 -0.2197  0.6506  0.0858
 1668TIP3    H226420   2.255   5.646   5.414  0.3772  0.2497 -0.0568
 1669TIP3   OH226421   2.690   4.871  16.421 -0.0139  0.1139 -0.2063
 1669TIP3    H126422   2.727   4.946  16.375  2.5438 -1.2999 -0.5576
 1669TIP3    H226423   2.694   4.800  16.357 -0.9183 -0.7128  0.6494
 1670TIP3   OH226424   1.873   5.651   0.922 -0.0795 -0.4718  0.1263
 1670TIP3    H126425   1.818   5.729   0.929 -1.6915 -1.5709  0.0607
 1670TIP3    H226426   1.908   5.638   1.010  2.6035  1.9766 -0.4858
 1671TIP3   OH226427   0.188   5.966  14.366 -0.3387  0.4628  0.1063
 1671TIP3    H126428   0.233   6.010  14.294  0.7822  1.1629  1.2215
 1671TIP3    H226429   0.111   6.020  14.383 -0.0789  0.8397  0.0914
 1672TIP3   OH226430   4.987   1.492   4.236  0.2486 -0.4117  0.0044
 1672TIP3    H126431   4.899   1.482   4.271  0.5040 -0.9918  0.4780
 1672TIP3    H226432   4.992   1.430   4.163  1.1242 -2.2925  1.6133
 1673TIP3   OH226433   3.330   2.479  15.482  0.2397 -0.4958 -0.1614
 1673TIP3    H126434   3.342   2.505  15.573 -0.2891 -0.0048 -0.2325
 1673TIP3    H226435   3.408   2.511  15.437  1.0706 -1.7693  0.3329
 1674TIP3   OH226436   6.555   6.661   1.287 -0.0076 -0.8235 -0.1854
 1674TIP3    H126437   6.470   6.703   1.300  1.0615  1.3175  0.0742
 1674TIP3    H226438   6.558   6.594   1.356 -0.5901  0.5369  1.2065
 1675TIP3   OH226439   2.025   5.388   6.213  0.0801 -0.0550  0.1742
 1675TIP3    H126440   1.939   5.377   6.172 -0.7547  0.6075  1.6678
 1675TIP3    H226441   2.071   5.306   6.195 -0.9393 -0.5054 -0.4654
 1676TIP3   OH226442   4.559   4.165   2.300 -0.0120  0.4959  0.7813
 1676TIP3    H126443   4.629   4.218   2.337  1.4586 -1.1250  0.3911
 1676TIP3    H226444   4.499   4.150   2.372 -0.5365  2.7976  0.8591
 1677TIP3   OH226445   2.950   4.060   1.511 -0.7814 -0.5067 -0.0726
 1677TIP3    H126446   2.892   4.036   1.583 -1.9313  0.7620 -0.5578
 1677TIP3    H226447   2.899   4.041   1.432 -0.2891 -0.0039 -0.5187
 1678TIP3   OH226448   4.078   5.367  15.451 -0.1950 -0.1413 -0.5756
 1678TIP3    H126449   4.118   5.388  15.535  1.1843 -0.9974 -1.0045
 1678TIP3    H226450   4.152   5.354  15.391 -1.0961 -1.6096 -1.4124
 1679TIP3   OH226451   6.068   4.601   4.644 -0.5000  0.1328 -0.0354
 1679TIP3    H126452   6.035   4.595   4.734  1.3678  0.6618  0.7036
 1679TIP3    H226453   6.035   4.684   4.612 -1.1266 -0.0278  0.1794
 1680TIP3   OH226454   3.103   4.273  13.944  0.3892  0.4200  0.5887
 1680TIP3    H126455   3.113   4.286  13.850  0.3967  1.8095  0.7816
 1680TIP3    H226456   3.052   4.192  13.951 -0.8694  1.0995 -0.6269
 1681TIP3   OH226457   1.222   3.094   1.360  0.0890 -0.1207  0.7374
 1681TIP3    H126458   1.247   3.059   1.274  2.5544  0.8698  1.0348
 1681TIP3    H226459   1.142   3.046   1.382  0.3521 -1.6004 -1.3523
 1682TIP3   OH226460   5.089   5.131  11.716  0.3908  0.7891 -0.1291
 1682TIP3    H126461   5.159   5.151  11.654  0.7170  0.4143  0.1147
 1682TIP3    H226462   5.119   5.051  11.761 -1.0979 -0.5199 -1.4133
 1683TIP3   OH226463   5.920   0.530   3.593  0.2634 -0.1702  0.1713
 1683TIP3    H126464   5.986   0.586   3.635  0.8888  0.6092 -1.7999
 1683TIP3    H226465   5.842   0.585   3.587 -0.0684 -0.5417  0.9941
 1684TIP3   OH226466   2.355   5.766  16.109 -0.6830 -0.6590 -0.5546
 1684TIP3    H126467   2.439   5.770  16.155 -1.2430  2.3945  0.2891
 1684TIP3    H226468   2.379   5.758  16.017  0.5551  0.6318 -0.3661
 1685TIP3   OH226469   0.901   5.934  15.166 -0.4236  0.3383  0.4452
 1685TIP3    H126470   0.899   5.986  15.246  0.1859  1.5268 -0.2923
 1685TIP3    H226471   0.970   5.870  15.180 -0.0718  0.7768  0.7282
 1686TIP3   OH226472   4.756   4.198  11.577 -0.7699 -0.3959  0.6064
 1686TIP3    H126473   4.684   4.135  11.584 -0.7571 -0.5300 -0.4136
 1686TIP3    H226474   4.818   4.157  11.516  0.0489 -0.1579  1.2578
 1687TIP3   OH226475   5.111   4.052   4.346  0.1284 -0.1325  0.3392
 1687TIP3    H126476   5.134   4.112   4.416  1.6212  0.4032 -0.5689
 1687TIP3    H226477   5.115   4.105   4.266 -0.5560 -0.9548 -0.2629
 1688TIP3   OH226478   1.677   1.077  16.358  0.0156 -0.1357  0.0599
 1688TIP3    H126479   1.655   1.168  16.334 -0.3948  0.2389  1.8130
 1688TIP3    H226480   1.771   1.071  16.343 -0.3714 -0.2574 -2.6888
 1689TIP3   OH226481   4.587   0.569  15.574  0.0526 -0.0221 -0.6518
 1689TIP3    H126482   4.602   0.648  15.627  1.4530 -0.4893 -0.3511
 1689TIP3    H226483   4.552   0.505  15.636  1.3650 -0.4576 -0.3420
 1690TIP3   OH226484   3.691   3.199   2.510  0.5800  0.5358 -0.6445
 1690TIP3    H126485   3.737   3.119   2.487 -0.1418 -0.6392  1.8668
 1690TIP3    H226486   3.650   3.227   2.428 -1.2266 -3.0237 -1.0290
 1691TIP3   OH226487   6.653   1.767   6.418 -0.0682  1.0393  0.2059
 1691TIP3    H126488   6.747   1.784   6.409  0.1722  0.0458  0.7807
 1691TIP3    H226489   6.632   1.797   6.506 -0.0640  0.2343  0.4804
 1692TIP3   OH226490   0.949   0.528   2.211  0.1607 -0.2856 -0.2236
 1692TIP3    H126491   0.988   0.615   2.202  0.2739 -0.3762 -0.6482
 1692TIP3    H226492   1.011   0.470   2.168 -0.1394 -0.5137 -0.3474
 1693TIP3   OH226493   1.409   5.259   2.616 -0.1108  0.5626  0.8997
 1693TIP3    H126494   1.402   5.274   2.521 -1.2451  0.2067  0.9218
 1693TIP3    H226495   1.338   5.311   2.653 -0.4103 -0.2378  1.4557
 1694TIP3   OH226496   2.741   5.947  15.197  0.3180 -0.5579 -0.1686
 1694TIP3    H126497   2.685   6.018  15.228  1.5143  0.4362 -0.2418
 1694TIP3    H226498   2.739   5.955  15.102  2.0739  0.6518 -0.1070
 1695TIP3   OH226499   2.544   3.394  16.156  0.0537 -0.4857  0.6795
 1695TIP3    H126500   2.556   3.323  16.219  3.2129  0.6270  1.4199
 1695TIP3    H226501   2.540   3.351  16.071  1.0683 -1.6503  1.2059
 1696TIP3   OH226502   2.315   5.414   2.217 -0.3606  0.6117 -0.2684
 1696TIP3    H126503   2.258   5.453   2.284 -1.4040 -1.1036 -0.1415
 1696TIP3    H226504   2.393   5.387   2.265 -0.9216 -0.2138  0.1822
 1697TIP3   OH226505   1.349   4.987  16.135 -0.1359 -0.6159  0.6648
 1697TIP3    H126506   1.402   5.060  16.168  2.8315 -2.1726 -0.4213
 1697TIP3    H226507   1.406   4.944  16.071 -2.6518 -2.5793 -0.3208
 1698TIP3   OH226508   6.710   1.803   1.134  0.4619 -0.3630 -0.0177
 1698TIP3    H126509   6.626   1.844   1.155  0.8917  0.2831  0.4616
 1698TIP3    H226510   6.687   1.719   1.094 -0.4184  0.2448 -0.7980
 1699TIP3   OH226511   3.185   2.492  16.082  0.5859  0.1819 -0.3153
 1699TIP3    H126512   3.251   2.452  16.138 -0.2359  0.8954  1.1776
 1699TIP3    H226513   3.205   2.586  16.084  0.1571  0.2842 -0.6999
 1700TIP3   OH226514   6.070   4.954  14.584  0.1278  0.0204  0.0794
 1700TIP3    H126515   6.156   4.946  14.623  0.2045  0.6831  0.0537
 1700TIP3    H226516   6.033   5.034  14.622 -1.2320 -1.2545  1.5355
 1701TIP3   OH226517   0.237   2.152   1.275  0.3274  0.3608  0.0864
 1701TIP3    H126518   0.307   2.096   1.241 -0.5130 -0.2254 -0.7072
 1701TIP3    H226519   0.281   2.209   1.338  1.3921 -0.4765  0.1238
 1702TIP3   OH226520   3.469   6.542  17.086  1.1377  0.6398  0.4764
 1702TIP3    H126521   3.470   6.620  17.030 -0.6799 -0.6286 -1.4012
 1702TIP3    H226522   3.420   6.568  17.164 -0.7488  0.9688 -0.8042
 1703TIP3   OH226523   3.708   5.659   0.185  0.2364  0.1444 -0.6171
 1703TIP3    H126524   3.720   5.567   0.161  1.2711  0.3067 -0.7742
 1703TIP3    H226525   3.752   5.707   0.115  0.5180  0.7239 -0.0402
 1704TIP3   OH226526   1.394   0.191   1.578 -0.3408 -0.5116  0.2978
 1704TIP3    H126527   1.477   0.205   1.623 -0.4010  1.7016 -0.2515
 1704TIP3    H226528   1.344   0.271   1.592 -1.1932 -0.6017 -1.8883
 1705TIP3   OH226529   0.245   0.176   6.431 -0.2782 -0.2965  0.0404
 1705TIP3    H126530   0.259   0.084   6.411 -4.0987 -0.8164 -0.7054
 1705TIP3    H226531   0.270   0.223   6.352  1.1012 -0.7514  0.2090
 1706TIP3   OH226532   2.963   2.344   2.032 -0.2975 -0.0330 -0.2031
 1706TIP3    H126533   2.991   2.355   2.123  2.2449  1.6676 -1.1451
 1706TIP3    H226534   2.931   2.430   2.005  0.2377 -0.1805 -1.3439
 1707TIP3   OH226535   2.789   2.437  16.192 -0.3615 -0.4076 -0.9837
 1707TIP3    H126536   2.745   2.364  16.150  0.3038 -0.7469 -1.0916
 1707TIP3    H226537   2.719   2.485  16.237 -0.6518 -1.7236 -0.0054
 1708TIP3   OH226538   3.569   0.452  11.985  0.3451 -0.0631 -0.5810
 1708TIP3    H126539   3.662   0.429  11.978  0.8974  1.9158 -0.0017
 1708TIP3    H226540   3.529   0.375  12.026  1.8936 -0.5379  0.0992
 1709TIP3   OH226541   4.932   2.768   6.573 -0.3684  0.7622 -0.1781
 1709TIP3    H126542   4.868   2.734   6.510 -0.4948 -0.0504  0.3790
 1709TIP3    H226543   4.918   2.716   6.652  0.0247  1.5450  0.4099
 1710TIP3   OH226544   0.797   2.136  11.902  0.2456 -0.5477 -0.3745
 1710TIP3    H126545   0.807   2.058  11.847  0.5740 -0.7924  0.0274
 1710TIP3    H226546   0.868   2.129  11.966  0.7977  0.5143 -0.8551
 1711TIP3   OH226547   3.700   6.096  12.069  0.4936 -0.2394 -0.4435
 1711TIP3    H126548   3.692   6.029  12.001 -0.3700 -0.2845 -0.3111
 1711TIP3    H226549   3.752   6.055  12.137  2.9204  0.4340 -1.8418
 1712TIP3   OH226550   4.646   5.232  11.146 -0.0175  0.1074 -0.0560
 1712TIP3    H126551   4.692   5.265  11.069 -0.3025  1.0964  0.1908
 1712TIP3    H226552   4.619   5.311  11.194 -0.7207 -0.4797  0.5341
 1713TIP3   OH226553   1.877   3.645  11.738 -0.4303  0.2302  0.1089
 1713TIP3    H126554   1.837   3.705  11.801  0.1222  0.7818 -0.0572
 1713TIP3    H226555   1.830   3.563  11.750 -1.4411  0.7984  0.0895
 1714TIP3   OH226556   0.903   3.779   2.822  0.2857  0.0771 -0.2612
 1714TIP3    H126557   0.948   3.803   2.741  1.1913 -0.1371  0.1708
 1714TIP3    H226558   0.816   3.751   2.794  0.6087 -0.0385 -1.1658
 1715TIP3   OH226559   3.046   6.588  14.270  0.2041 -0.0631 -0.0028
 1715TIP3    H126560   2.967   6.537  14.285  0.1843 -0.0061  0.0859
 1715TIP3    H226561   3.116   6.523  14.266  0.0452 -0.1829 -0.9124
 1716TIP3   OH226562   0.935   0.051  14.295  0.2946  0.2168 -0.2294
 1716TIP3    H126563   0.861   0.016  14.246  0.0652  0.2018  0.1227
 1716TIP3    H226564   0.895   0.098  14.368  0.6108  1.0523 -0.5914
 1717TIP3   OH226565   1.605   4.189   4.833 -0.3170 -0.4237  0.0561
 1717TIP3    H126566   1.640   4.143   4.909  2.7723  1.0002 -0.4549
 1717TIP3    H226567   1.645   4.275   4.836 -2.3299  0.6254 -1.6629
 1718TIP3   OH226568   4.728   3.791  11.444  0.1292 -0.3773 -0.0973
 1718TIP3    H126569   4.736   3.700  11.416  2.6671 -1.5164  3.9559
 1718TIP3    H226570   4.815   3.828  11.433 -0.8977  1.6531 -1.8056
 1719TIP3   OH226571   4.336   3.396  12.078 -0.3270 -0.6596  0.1460
 1719TIP3    H126572   4.410   3.378  12.020  0.0791  1.6523 -0.0983
 1719TIP3    H226573   4.282   3.317  12.073  2.0950 -2.3943  0.3411
 1720TIP3   OH226574   4.238   2.718  13.565 -0.0387  0.1664  0.9307
 1720TIP3    H126575   4.144   2.735  13.554  0.0890  1.7318  2.2186
 1720TIP3    H226576   4.245   2.623  13.556 -1.1477  0.3591 -3.4602
 1721TIP3   OH226577   3.962   4.595   3.967  0.5267  0.3503 -0.4969
 1721TIP3    H126578   4.053   4.587   3.994 -0.1451 -1.8612  1.1784
 1721TIP3    H226579   3.913   4.606   4.048 -0.7326  1.6984 -1.3838
 1722TIP3   OH226580   3.593   0.567   3.713  0.3675 -0.1342 -0.0612
 1722TIP3    H126581   3.506   0.605   3.701  1.7475  3.2110 -0.0195
 1722TIP3    H226582   3.605   0.510   3.637 -1.0958  0.8943 -1.0896
 1723TIP3   OH226583   2.327   0.136   5.842  0.1399  0.1990 -0.1111
 1723TIP3    H126584   2.359   0.051   5.813  0.1810 -0.3874  1.6588
 1723TIP3    H226585   2.402   0.178   5.883 -0.5009  0.1369  1.1276
 1724TIP3   OH226586   2.230   5.714  15.794 -0.1434 -0.2633 -0.3065
 1724TIP3    H126587   2.325   5.717  15.805  0.1439 -2.0661 -1.9773
 1724TIP3    H226588   2.216   5.654  15.720 -2.4868  1.5853 -1.4280
 1725TIP3   OH226589   0.902   1.051   5.436  0.6492  0.3511  0.0379
 1725TIP3    H126590   0.937   1.093   5.516 -1.6044  0.1062  1.1803
 1725TIP3    H226591   0.813   1.085   5.428  0.0520 -1.4288 -1.0636
 1726TIP3   OH226592   4.319   2.647  15.692  0.4731 -0.0348 -0.1983
 1726TIP3    H126593   4.406   2.607  15.684  0.0525 -0.5987 -2.0890
 1726TIP3    H226594   4.281   2.639  15.605 -0.1514  3.2793 -0.2876
 1727TIP3   OH226595   2.315   1.504  13.908  0.3144 -0.3027  0.0482
 1727TIP3    H126596   2.280   1.439  13.848  0.8524 -0.6391  0.0920
 1727TIP3    H226597   2.381   1.457  13.959  0.3699  0.1577  0.4088
 1728TIP3   OH226598   5.713   4.815  10.579  0.2093  0.7245  0.2191
 1728TIP3    H126599   5.631   4.863  10.564 -0.1698 -0.6012 -2.3105
 1728TIP3    H226600   5.781   4.882  10.580 -0.5779  1.5507 -0.8601
 1729TIP3   OH226601   4.010   3.184  10.666  0.6688  0.0764  0.0875
 1729TIP3    H126602   3.977   3.273  10.680  0.9395  0.1941 -0.0134
 1729TIP3    H226603   3.932   3.129  10.668  0.4106  0.4118 -0.6939
 1730TIP3   OH226604   1.346   0.047  13.176 -0.4506  0.0137 -0.4711
 1730TIP3    H126605   1.435   0.065  13.209 -0.1885  0.0358 -1.1870
 1730TIP3    H226606   1.355   0.051  13.081 -0.5256 -3.3119 -0.6585
 1731TIP3   OH226607   4.545   6.524   0.884 -0.1890 -0.3155 -0.3015
 1731TIP3    H126608   4.460   6.493   0.915 -0.7738 -0.1833 -1.7629
 1731TIP3    H226609   4.527   6.567   0.801  0.7553  3.0986  1.1967
 1732TIP3   OH226610   2.275   0.736   1.101  0.2756 -0.0120  0.2390
 1732TIP3    H126611   2.323   0.654   1.103  1.5391  0.7057 -0.0180
 1732TIP3    H226612   2.342   0.804   1.102 -0.7434  1.0242  0.4241
 1733TIP3   OH226613   2.220   5.673  13.307 -0.5241  0.3460  0.0187
 1733TIP3    H126614   2.294   5.722  13.270  0.4503 -1.7065 -0.8725
 1733TIP3    H226615   2.148   5.689  13.246  0.5066 -1.3543 -1.6979
 1734TIP3   OH226616   6.637   0.046   4.852  0.2328  0.4718  0.3221
 1734TIP3    H126617   6.720   0.005   4.828 -0.0154 -0.4150  0.9756
 1734TIP3    H226618   6.648   0.070   4.944 -0.1805  0.4930  0.3674
 1735TIP3   OH226619   5.369   2.952  12.968 -0.3302 -0.6830 -0.1973
 1735TIP3    H126620   5.405   2.964  13.056 -0.0844 -0.1865 -0.3648
 1735TIP3    H226621   5.393   2.863  12.945 -1.5480 -1.2808  0.7664
 1736TIP3   OH226622   4.421   2.528  13.748 -0.4590  0.0572 -0.2584
 1736TIP3    H126623   4.468   2.609  13.765 -4.2101  2.3493 -0.2184
 1736TIP3    H226624   4.373   2.510  13.829 -1.2290 -1.0731 -0.9389
 1737TIP3   OH226625   6.642   5.391  13.415  0.1922  0.0700  0.1255
 1737TIP3    H126626   6.585   5.454  13.458  1.1908  0.9649  0.1552
 1737TIP3    H226627   6.690   5.349  13.487  1.2992  1.0175 -0.0457
 1738TIP3   OH226628   4.270   0.015   6.301 -0.0312  0.3642 -0.1403
 1738TIP3    H126629   4.214  -0.013   6.374  0.5541 -1.0904 -0.2295
 1738TIP3    H226630   4.341   0.063   6.342 -0.0522  0.1140  0.1963
 1739TIP3   OH226631   0.684   1.294   1.236 -0.3449  0.2597  0.4481
 1739TIP3    H126632   0.764   1.290   1.184  0.6405 -0.6003  1.9733
 1739TIP3    H226633   0.614   1.310   1.173  0.8037 -0.7971 -1.1090
 1740TIP3   OH226634   6.456   4.778   1.954  0.2860 -0.1775  0.3360
 1740TIP3    H126635   6.507   4.786   1.873 -1.0189  0.3954 -0.4338
 1740TIP3    H226636   6.400   4.702   1.940  0.3049 -0.2827  0.8334
 1741TIP3   OH226637   6.144   5.763   1.230 -0.1957  0.3257 -0.6661
 1741TIP3    H126638   6.137   5.677   1.271 -2.2836  1.2500  1.0080
 1741TIP3    H226639   6.212   5.808   1.280 -0.1243  0.1694 -0.6225
 1742TIP3   OH226640   0.142   1.379  16.956  0.7049  0.3501 -0.4653
 1742TIP3    H126641   0.060   1.362  17.002  0.7007  0.9418 -0.2581
 1742TIP3    H226642   0.115   1.393  16.865  0.5936  0.3909 -0.4270
 1743TIP3   OH226643   5.830   4.875  15.412  0.4325 -0.0665 -0.2291
 1743TIP3    H126644   5.917   4.872  15.372  0.2936 -1.7982 -0.4342
 1743TIP3    H226645   5.831   4.807  15.479 -2.1345 -3.2534 -3.1767
 1744TIP3   OH226646   0.982   0.148  11.574  0.2248  0.1512  0.3009
 1744TIP3    H126647   1.073   0.121  11.589  0.8433  1.8565 -0.3057
 1744TIP3    H226648   0.933   0.108  11.645  1.9045  1.6274  2.3412
 1745TIP3   OH226649   5.404   3.035   5.624 -0.1561  0.2296  0.0685
 1745TIP3    H126650   5.315   3.024   5.659 -0.2234 -0.6723 -0.3687
 1745TIP3    H226651   5.455   2.966   5.668 -0.3414 -1.2166 -1.9283
 1746TIP3   OH226652   1.255   5.612  12.098  0.7140 -0.5852  0.0404
 1746TIP3    H126653   1.288   5.702  12.104 -0.4053 -0.2553  1.6366
 1746TIP3    H226654   1.304   5.573  12.026  0.0153  1.8196 -1.7916
 1747TIP3   OH226655   1.748   4.495  15.800 -0.2578  0.2008  0.0460
 1747TIP3    H126656   1.754   4.558  15.728  2.5824  0.2639  0.2879
 1747TIP3    H226657   1.767   4.410  15.761  0.8859  0.1784  0.6273
 1748TIP3   OH226658   2.660   1.052  14.845 -0.3280 -0.0818  0.0922
 1748TIP3    H126659   2.732   1.048  14.782 -0.6140  0.6759 -0.2884
 1748TIP3    H226660   2.703   1.069  14.929  0.0569 -1.1517  0.1146
 1749TIP3   OH226661   3.769   0.632   1.815  0.5533 -0.4176 -0.0991
 1749TIP3    H126662   3.693   0.684   1.842  1.1847 -0.3430  1.5740
 1749TIP3    H226663   3.744   0.541   1.833 -0.5782 -0.7485 -3.0911
 1750TIP3   OH226664   4.220   0.869  10.892 -0.2892  0.2867 -0.3685
 1750TIP3    H126665   4.153   0.807  10.921 -0.2521  0.5299  0.2427
 1750TIP3    H226666   4.185   0.906  10.811 -2.0850  2.2756  1.2314
 1751TIP3   OH226667   4.971   1.273  11.477 -0.0565  0.2094 -0.0269
 1751TIP3    H126668   4.971   1.221  11.558  1.2568  0.1123 -0.0740
 1751TIP3    H226669   4.903   1.339  11.490  0.4343  0.4549  1.3263
 1752TIP3   OH226670   2.715   6.127  12.701  0.4576  0.0664  0.7201
 1752TIP3    H126671   2.740   6.050  12.652  1.4173 -0.5010  2.0619
 1752TIP3    H226672   2.729   6.103  12.793 -0.6991  1.2983  1.2425
 1753TIP3   OH226673   4.344   1.503  13.721 -0.2949  0.0313  0.3606
 1753TIP3    H126674   4.394   1.436  13.676  0.1774 -0.1568  1.1599
 1753TIP3    H226675   4.305   1.458  13.796 -2.3024 -0.0131 -0.6677
 1754TIP3   OH226676   0.652   5.557  14.381  0.2471 -0.5613  0.4871
 1754TIP3    H126677   0.721   5.496  14.354  0.7528 -0.1323  0.7972
 1754TIP3    H226678   0.643   5.617  14.307  0.9701  0.0370  0.8711
 1755TIP3   OH226679   1.962   5.647   1.188  0.1147 -0.0435 -0.3824
 1755TIP3    H126680   1.916   5.729   1.203 -3.1429 -1.9143  0.4839
 1755TIP3    H226681   2.048   5.659   1.229 -0.4372  2.7478  0.0591
 1756TIP3   OH226682   6.024   6.025  13.533  0.1333 -0.0239  0.2530
 1756TIP3    H126683   5.930   6.043  13.521  0.0096 -0.7117  0.1650
 1756TIP3    H226684   6.063   6.049  13.449 -0.0047 -0.0046  0.1923
 1757TIP3   OH226685   3.796   1.076  12.562 -0.3102 -0.1932  0.0306
 1757TIP3    H126686   3.733   1.146  12.551 -1.7377 -1.1311  1.8562
 1757TIP3    H226687   3.827   1.086  12.652  1.4587 -0.3284 -0.5342
 1758TIP3   OH226688   3.870   1.184  14.620 -0.0883 -0.6881 -0.4454
 1758TIP3    H126689   3.906   1.221  14.701 -1.7047  0.7820 -0.3670
 1758TIP3    H226690   3.937   1.202  14.554 -0.5477  1.8621 -0.2748
 1759TIP3   OH226691   0.469   3.665   1.737  0.3219 -0.4082 -0.6441
 1759TIP3    H126692   0.537   3.725   1.767 -0.1707 -0.8445  1.4231
 1759TIP3    H226693   0.516   3.587   1.709  0.7453 -0.3830 -0.0203
 1760TIP3   OH226694   6.479   1.186  15.038  0.0864 -0.3693  0.4742
 1760TIP3    H126695   6.427   1.118  15.082  2.3404 -1.5442  1.4043
 1760TIP3    H226696   6.509   1.145  14.958 -0.8543  0.5047 -0.3450
 1761TIP3   OH226697   4.857   2.930  11.564  0.4391 -0.0371 -0.2466
 1761TIP3    H126698   4.894   2.900  11.647  1.4693  1.3423 -0.1766
 1761TIP3    H226699   4.901   2.877  11.498  0.4834 -0.3327  0.0175
 1762TIP3   OH226700   2.452   0.987   2.171  0.3201 -0.0274 -0.0570
 1762TIP3    H126701   2.513   0.917   2.196 -1.9987 -1.7528  1.0828
 1762TIP3    H226702   2.406   0.952   2.094 -0.7129  0.3001  0.3974
 1763TIP3   OH226703   0.484   5.225  11.662  0.0373  0.0916  0.0686
 1763TIP3    H126704   0.490   5.174  11.581  0.9353  0.8910 -0.3786
 1763TIP3    H226705   0.543   5.181  11.723 -0.6160 -0.4922  0.2962
 1764TIP3   OH226706   2.548   0.882  15.485  0.0036  0.7932 -0.6184
 1764TIP3    H126707   2.586   0.818  15.424 -0.3783 -0.1149  0.0935
 1764TIP3    H226708   2.604   0.879  15.562  0.4056  1.8475 -0.8590
 1765TIP3   OH226709   4.086   3.131  12.960  0.0905  0.1371 -0.1051
 1765TIP3    H126710   4.050   3.154  12.875  1.8541 -0.9409 -1.1899
 1765TIP3    H226711   4.119   3.213  12.995 -0.7293  0.6053 -0.4188
 1766TIP3   OH226712   3.112   4.741  12.107 -0.3044  0.0684 -0.0035
 1766TIP3    H126713   3.078   4.752  12.018 -2.6164 -0.1365  0.8270
 1766TIP3    H226714   3.120   4.646  12.117 -0.7558  0.0590  0.2652
 1767TIP3   OH226715   2.788   6.000  14.355 -0.9906  0.4196 -0.0636
 1767TIP3    H126716   2.812   5.919  14.401  1.3140 -0.0155 -1.9029
 1767TIP3    H226717   2.776   6.065  14.424 -1.9379 -1.2507  1.3891
 1768TIP3   OH226718   4.914   6.312   4.727  0.0819 -0.9685 -0.2478
 1768TIP3    H126719   4.861   6.335   4.802  0.8836 -0.1730  0.0809
 1768TIP3    H226720   4.936   6.396   4.686 -1.9051 -1.4556 -2.4693
 1769TIP3   OH226721   4.729   0.136   0.593 -0.5860 -0.2458  0.5205
 1769TIP3    H126722   4.810   0.141   0.645  0.7680  0.8127 -1.6324
 1769TIP3    H226723   4.673   0.205   0.631  0.7616  1.1791 -0.0063
 1770TIP3   OH226724   3.874   1.900   0.040 -0.1376  0.3237 -0.1730
 1770TIP3    H126725   3.800   1.869   0.092  1.3047 -0.3330  1.5746
 1770TIP3    H226726   3.928   1.821   0.027  1.0445  1.0992 -0.0526
 1771TIP3   OH226727   3.056   3.317  14.951 -0.4916  0.4009 -0.0668
 1771TIP3    H126728   3.148   3.330  14.925 -0.8072 -0.7626 -1.8661
 1771TIP3    H226729   3.051   3.354  15.039  2.4463 -2.2358  1.2857
 1772TIP3   OH226730   5.203   4.364   0.754 -0.5763  0.2792  0.1111
 1772TIP3    H126731   5.186   4.458   0.754  0.0302  0.4122 -1.9561
 1772TIP3    H226732   5.295   4.356   0.780 -0.3311  0.3309 -0.7298
 1773TIP3   OH226733   2.969   5.114  13.747  0.1872 -0.0256 -0.2192
 1773TIP3    H126734   3.049   5.166  13.742  1.0814 -1.2971  0.4876
 1773TIP3    H226735   2.946   5.115  13.840 -1.4543  1.5358 -0.6190
 1774TIP3   OH226736   5.448   3.970  14.045 -0.6040 -0.0304  0.2757
 1774TIP3    H126737   5.450   3.948  14.139 -3.5071  1.9912  0.8563
 1774TIP3    H226738   5.394   3.901  14.006 -0.3028 -0.2568  0.2562
 1775TIP3   OH226739   2.327   1.548  11.421 -0.1249 -0.3735 -0.2369
 1775TIP3    H126740   2.260   1.616  11.421  0.1500 -0.0909 -1.2956
 1775TIP3    H226741   2.397   1.583  11.366  0.5893 -0.9597  0.2832
 1776TIP3   OH226742   5.233   4.918   3.452 -0.0875 -0.0100 -0.0096
 1776TIP3    H126743   5.240   4.894   3.544  1.7861 -0.2609 -0.2124
 1776TIP3    H226744   5.322   4.943   3.426 -0.5295 -0.2427 -1.8329
 1777TIP3   OH226745   6.018   4.183  12.366  0.1332 -0.5219  0.4091
 1777TIP3    H126746   5.941   4.191  12.422 -0.1044  0.2209 -0.0177
 1777TIP3    H226747   6.018   4.092  12.337 -0.5754 -0.5223  0.4204
 1778TIP3   OH226748   0.184   2.717   6.614  0.4756  0.7688  0.4856
 1778TIP3    H126749   0.159   2.760   6.532  0.8180  0.2975  0.1309
 1778TIP3    H226750   0.125   2.641   6.620  0.9022  0.4218  0.3309
 1779TIP3   OH226751   6.114   2.699  12.198 -0.2384 -0.2749  0.1112
 1779TIP3    H126752   6.103   2.792  12.217  0.1353 -0.1245 -0.3918
 1779TIP3    H226753   6.054   2.655  12.258 -1.9121  0.3973 -1.0031
 1780TIP3   OH226754   5.537   3.774   6.301 -0.9700 -0.1805 -0.3275
 1780TIP3    H126755   5.544   3.706   6.369 -0.6242 -0.4613 -0.6449
 1780TIP3    H226756   5.572   3.733   6.222 -1.4963  0.1035 -0.7129
 1781TIP3   OH226757   3.897   2.917   4.770  0.2527  0.2525 -0.2482
 1781TIP3    H126758   3.884   2.833   4.814 -0.1575  0.0904 -0.6651
 1781TIP3    H226759   3.960   2.964   4.824  0.2162 -0.1871  0.1751
 1782TIP3   OH226760   2.164   3.118   2.477 -0.1676  0.1869 -0.1063
 1782TIP3    H126761   2.119   3.184   2.530  1.2718  0.6717  0.5344
 1782TIP3    H226762   2.257   3.139   2.487  0.2162 -0.9677 -1.1911
 1783TIP3   OH226763   4.766   3.769   5.612  0.4550  0.3761 -0.0024
 1783TIP3    H126764   4.860   3.750   5.615  1.2441  3.6605 -1.5207
 1783TIP3    H226765   4.752   3.833   5.681 -0.1622  1.7127 -1.3281
 1784TIP3   OH226766   2.017   1.928   5.484 -0.0237  0.1673  0.0714
 1784TIP3    H126767   1.938   1.946   5.432  0.3325 -2.3172 -1.3739
 1784TIP3    H226768   1.991   1.857   5.543  0.7818  0.2595  0.5393
 1785TIP3   OH226769   4.650   1.495   3.124  0.2904 -0.4007 -0.2301
 1785TIP3    H126770   4.710   1.570   3.125  1.6713 -1.4817 -0.2679
 1785TIP3    H226771   4.681   1.438   3.195 -1.9905 -0.0118  1.1585
 1786TIP3   OH226772   0.393   0.076   0.003 -0.5364  0.4939 -0.0884
 1786TIP3    H126773   0.383   0.026   0.084 -2.3715  1.0202  0.0187
 1786TIP3    H226774   0.310   0.066  -0.043  1.1461 -1.4117 -2.8895
 1787TIP3   OH226775   6.594   6.766  11.798  0.2487  0.6364 -0.2441
 1787TIP3    H126776   6.507   6.732  11.820 -0.2956  1.5979 -0.8586
 1787TIP3    H226777   6.598   6.759  11.703  0.6826  0.9768 -0.2490
 1788TIP3   OH226778   4.164   0.970   0.520  0.2840  0.2586 -0.3819
 1788TIP3    H126779   4.159   1.065   0.512 -0.3749  0.2659  0.0764
 1788TIP3    H226780   4.078   0.939   0.492 -0.2847 -0.0405  1.6447
 1789TIP3   OH226781   1.533   2.822   3.260  0.4929 -0.3312 -0.8578
 1789TIP3    H126782   1.513   2.916   3.255 -3.0520 -0.9373  0.7448
 1789TIP3    H226783   1.597   2.808   3.189 -1.2746  2.6913 -3.2047
 1790TIP3   OH226784   3.437   2.900  10.983  0.0112  0.8700  0.6478
 1790TIP3    H126785   3.423   2.982  10.934 -0.4079  1.4492  1.7185
 1790TIP3    H226786   3.423   2.831  10.918  0.8121  1.6525 -0.3765
 1791TIP3   OH226787   1.756   5.196   3.147 -0.2839  0.2604 -0.2289
 1791TIP3    H126788   1.707   5.198   3.229 -2.6234 -0.7226 -1.5533
 1791TIP3    H226789   1.835   5.146   3.169 -1.0475 -0.3212  1.3471
 1792TIP3   OH226790   2.446   4.420  14.030 -0.2335  0.0408 -0.1625
 1792TIP3    H126791   2.454   4.454  13.941 -2.2285 -0.6315 -0.6209
 1792TIP3    H226792   2.406   4.492  14.080  0.6858  0.3414  0.1529
 1793TIP3   OH226793   5.051   3.500   3.604 -0.0265  0.2329  0.0740
 1793TIP3    H126794   5.098   3.470   3.526 -0.3029 -0.8129  0.3078
 1793TIP3    H226795   5.030   3.592   3.586  2.9941  1.0549  0.3695
 1794TIP3   OH226796   3.583   1.737   2.250 -0.0754 -0.0743 -0.0155
 1794TIP3    H126797   3.572   1.723   2.156  1.6676 -0.0363 -0.2532
 1794TIP3    H226798   3.541   1.662   2.291 -0.7899 -0.1235 -0.8297
 1795TIP3   OH226799   3.472   3.387   2.920 -0.3673 -0.0215  0.1147
 1795TIP3    H126800   3.492   3.410   2.829 -0.1087 -1.0858 -0.0996
 1795TIP3    H226801   3.556   3.359   2.956 -0.8281 -1.3791  0.1500
 1796TIP3   OH226802   6.564   5.825  15.423 -0.2476 -0.3946 -0.1530
 1796TIP3    H126803   6.561   5.916  15.451  0.8512  0.1684 -1.8073
 1796TIP3    H226804   6.572   5.775  15.505  0.9007  1.0908  0.6659
 1797TIP3   OH226805   2.204   0.023  15.400  0.0130 -0.3437 -0.2155
 1797TIP3    H126806   2.205  -0.056  15.346  0.6438 -0.8768  0.5566
 1797TIP3    H226807   2.268   0.081  15.358 -0.3045 -0.3193 -0.6688
 1798TIP3   OH226808   0.155   1.086   3.649  0.0680  0.2013 -0.3959
 1798TIP3    H126809   0.248   1.096   3.625  0.3162 -0.3357  0.3387
 1798TIP3    H226810   0.152   1.004   3.697 -0.3915  1.3947  1.6390
 1799TIP3   OH226811   0.141   4.402  11.359  0.2432 -0.0584 -0.4066
 1799TIP3    H126812   0.221   4.393  11.307  1.3739 -0.5334  1.3785
 1799TIP3    H226813   0.136   4.495  11.379 -0.3711  0.1776 -1.6163
 1800TIP3   OH226814   4.299   0.044  14.517 -0.3291 -0.2383  0.0944
 1800TIP3    H126815   4.317  -0.047  14.538  0.0518 -0.3211 -0.5585
 1800TIP3    H226816   4.358   0.094  14.573 -0.4195 -0.4017  0.3339
 1801TIP3   OH226817   3.892   4.399   0.035 -0.0488  0.1202 -0.4117
 1801TIP3    H126818   3.909   4.389  -0.059  1.1306  0.5145 -0.2509
 1801TIP3    H226819   3.799   4.380   0.045  0.0845 -1.1418 -1.4824
 1802TIP3   OH226820   1.436   5.463   2.231  0.4744  0.2136  0.9371
 1802TIP3    H126821   1.474   5.476   2.317  0.3568  1.4151  0.8183
 1802TIP3    H226822   1.480   5.528   2.175  2.7590 -2.5594 -0.5972
 1803TIP3   OH226823   3.017   0.335   0.763 -0.3502 -0.4270 -0.0222
 1803TIP3    H126824   2.968   0.262   0.799 -1.1055  0.0244 -0.1338
 1803TIP3    H226825   3.021   0.400   0.834 -1.5831  0.3375 -0.6394
 1804TIP3   OH226826   2.696   6.416   2.243  0.5476  0.1081 -0.2496
 1804TIP3    H126827   2.764   6.439   2.307 -1.4564  0.1737  1.9398
 1804TIP3    H226828   2.622   6.472   2.266 -0.6981 -0.8760 -1.7687
 1805TIP3   OH226829   4.765   5.549  16.129  0.4434 -0.5117 -0.8995
 1805TIP3    H126830   4.844   5.515  16.087  1.7637  1.5459 -0.1738
 1805TIP3    H226831   4.744   5.486  16.198  3.4516  0.5894  1.1118
 1806TIP3   OH226832   4.080   1.312   2.757 -0.2773 -0.0591  0.1196
 1806TIP3    H126833   3.988   1.303   2.733 -0.7475 -1.7218  2.3721
 1806TIP3    H226834   4.090   1.257   2.834  2.2801  1.2730  0.7925
 1807TIP3   OH226835   2.379   2.522  14.395 -0.5445  0.2019  0.1444
 1807TIP3    H126836   2.415   2.582  14.460 -0.6686  0.7045 -0.2432
 1807TIP3    H226837   2.439   2.448  14.394 -0.5418  0.1940  0.8282
 1808TIP3   OH226838   5.971   6.360  16.284  0.3999 -0.1241 -0.5379
 1808TIP3    H126839   5.971   6.327  16.374  1.9628 -0.6518 -0.7087
 1808TIP3    H226840   6.051   6.413  16.279  1.2671 -1.5476 -2.1107
 1809TIP3   OH226841   4.379   2.338   5.191 -0.0051  0.6170 -0.6081
 1809TIP3    H126842   4.371   2.243   5.195 -0.6323  0.6092 -1.8247
 1809TIP3    H226843   4.432   2.361   5.267 -0.9675 -0.5714  0.4388
 1810TIP3   OH226844   0.096   6.696   0.154 -0.4328  0.2821  0.4098
 1810TIP3    H126845   0.064   6.606   0.159  0.4046 -0.0703 -0.4523
 1810TIP3    H226846   0.096   6.717   0.061 -0.3267  1.0689  0.5802
 1811TIP3   OH226847   5.315   4.061   5.543  0.0568  0.2355  0.2707
 1811TIP3    H126848   5.326   4.038   5.635 -0.9521 -0.5191  0.2125
 1811TIP3    H226849   5.387   4.121   5.525 -0.0483  0.8207  1.6915
 1812TIP3   OH226850   0.509   6.757  14.379 -0.1795 -0.3155 -0.9631
 1812TIP3    H126851   0.516   6.848  14.407  1.2479  0.6329 -4.1310
 1812TIP3    H226852   0.415   6.740  14.376 -0.5168  1.5803 -1.8754
 1813TIP3   OH226853   4.845   3.044   5.460 -0.2501  0.1722 -0.2624
 1813TIP3    H126854   4.929   3.077   5.429  0.5815 -1.0860  0.6085
 1813TIP3    H226855   4.806   3.003   5.383  0.2897  0.0540 -0.4765
 1814TIP3   OH226856   6.507   5.608  17.106 -0.3760  0.4401  0.0995
 1814TIP3    H126857   6.486   5.686  17.157 -2.0630  1.4227 -2.0010
 1814TIP3    H226858   6.441   5.543  17.132 -0.0050  0.2698  0.6159
 1815TIP3   OH226859   1.719   4.441  11.835 -1.0415 -0.0589 -0.5073
 1815TIP3    H126860   1.748   4.439  11.744 -0.4778 -1.4748 -0.3144
 1815TIP3    H226861   1.751   4.525  11.868 -1.5353  0.6172 -1.6853
 1816TIP3   OH226862   4.289   3.126  12.668  0.5663 -0.1963 -0.7369
 1816TIP3    H126863   4.212   3.166  12.628 -0.0316 -0.1622  0.4183
 1816TIP3    H226864   4.336   3.199  12.709 -0.3199 -0.6123  1.0397
 1817TIP3   OH226865   3.935   2.171  10.867  0.0666 -0.4309 -0.4682
 1817TIP3    H126866   3.904   2.249  10.819  0.6694 -0.6586 -1.2358
 1817TIP3    H226867   4.030   2.180  10.867  0.0855 -0.6700  0.2998
 1818TIP3   OH226868   4.185   3.538  12.848 -0.3062 -0.2339  0.1316
 1818TIP3    H126869   4.098   3.538  12.889 -0.2955 -1.3294  0.1766
 1818TIP3    H226870   4.223   3.622  12.874 -0.9457 -0.1962  0.9816
 1819TIP3   OH226871   5.448   3.119   4.806  0.4998  0.5040 -0.3328
 1819TIP3    H126872   5.367   3.159   4.837  0.4595  0.1797 -0.0237
 1819TIP3    H226873   5.515   3.151   4.867  0.5702  0.5973 -0.4588
 1820TIP3   OH226874   1.228   6.648  17.070 -0.2751 -0.1037 -0.1876
 1820TIP3    H126875   1.260   6.609  17.152 -1.7546  0.4241  0.6653
 1820TIP3    H226876   1.303   6.695  17.035  0.3465 -0.2461  0.9373
 1821TIP3   OH226877   6.529   2.610   3.795 -0.0667  0.4783  0.5264
 1821TIP3    H126878   6.476   2.655   3.728 -0.6042  0.5299  0.9800
 1821TIP3    H226879   6.618   2.644   3.782  0.3048 -1.3014 -1.7081
 1822TIP3   OH226880   6.557   1.211   4.826  0.0936 -0.6257  0.1936
 1822TIP3    H126881   6.491   1.200   4.895 -0.2864 -0.2476 -0.1014
 1822TIP3    H226882   6.573   1.305   4.824 -1.7885 -0.2973 -1.9359
 1823TIP3   OH226883   6.146   3.200   6.216 -0.2144 -0.2091  0.6217
 1823TIP3    H126884   6.213   3.246   6.166 -0.0605 -1.1015 -0.0157
 1823TIP3    H226885   6.180   3.198   6.306 -0.5301  1.4722  0.7837
 1824TIP3   OH226886   5.791   5.775   1.731  0.0585  0.0516  0.0438
 1824TIP3    H126887   5.761   5.859   1.764  0.2869  0.0848  0.1602
 1824TIP3    H226888   5.798   5.787   1.636  0.2836  0.2201  0.0829
 1825TIP3   OH226889   1.092   4.289   4.765 -0.1613  0.1199  0.2135
 1825TIP3    H126890   1.187   4.292   4.760 -0.2165 -0.3643 -1.3481
 1825TIP3    H226891   1.063   4.273   4.675 -1.7528  1.1717  0.5010
 1826TIP3   OH226892   5.130   1.529  12.256  0.1214 -0.4938  0.4924
 1826TIP3    H126893   5.142   1.623  12.269 -2.8584 -0.3787  3.2727
 1826TIP3    H226894   5.200   1.489  12.306 -0.6497  0.2650  2.2427
 1827TIP3   OH226895   0.332   1.435  16.393  0.2446  0.2628  0.1127
 1827TIP3    H126896   0.297   1.356  16.434  1.3272 -0.4450 -0.3029
 1827TIP3    H226897   0.296   1.507  16.445  0.1299 -0.5540  1.1781
 1828TIP3   OH226898   4.739   6.547   5.250 -0.0461  0.8062  0.1623
 1828TIP3    H126899   4.832   6.568   5.247  0.5462 -1.6395  0.7989
 1828TIP3    H226900   4.735   6.452   5.263 -2.6267  0.9359  0.7061
 1829TIP3   OH226901   1.272   0.597  13.247  0.3486  0.1531  0.3248
 1829TIP3    H126902   1.201   0.642  13.293 -0.7350 -1.8781  0.7189
 1829TIP3    H226903   1.249   0.603  13.155  1.6735  2.8131  0.1371
 1830TIP3   OH226904   4.923   6.354   3.083 -0.5385 -0.3830 -0.5019
 1830TIP3    H126905   4.933   6.345   2.988 -2.4959 -1.6803 -0.6117
 1830TIP3    H226906   4.884   6.271   3.111 -1.3306  0.5480  1.2081
 1831TIP3   OH226907   1.957   4.699   1.950 -0.2384 -0.1744  0.0554
 1831TIP3    H126908   1.880   4.697   2.006  0.0037  0.3565  0.4107
 1831TIP3    H226909   2.011   4.770   1.985  0.3263 -0.4200 -0.2993
 1832TIP3   OH226910   6.554   5.309   5.047 -0.2666  0.0962 -0.0915
 1832TIP3    H126911   6.631   5.338   5.096 -0.4595 -0.6578  0.6617
 1832TIP3    H226912   6.500   5.264   5.111 -1.7494  1.3494 -0.4285
 1833TIP3   OH226913   1.305   4.456   0.830  0.2205  0.6349 -0.2739
 1833TIP3    H126914   1.332   4.452   0.921 -0.5374  0.7352 -0.0465
 1833TIP3    H226915   1.376   4.413   0.782  0.5818  0.5185  0.3642
 1834TIP3   OH226916   1.204   3.465  10.607 -0.2760  0.4198 -0.0257
 1834TIP3    H126917   1.144   3.418  10.549 -1.1415  0.9764  0.4073
 1834TIP3    H226918   1.278   3.406  10.619 -1.1048 -0.6029  0.0700
 1835TIP3   OH226919   1.373   5.887   3.290 -0.1490 -0.7049 -0.1837
 1835TIP3    H126920   1.323   5.805   3.291 -2.4651  0.6094  3.3496
 1835TIP3    H226921   1.437   5.877   3.360 -2.0479  1.3179  1.9428
 1836TIP3   OH226922   4.386   1.169   2.796  0.2532 -0.2194 -0.7444
 1836TIP3    H126923   4.316   1.143   2.855  0.0821 -0.5813 -1.1059
 1836TIP3    H226924   4.462   1.184   2.853 -0.1218  0.1878 -0.3561
 1837TIP3   OH226925   4.879   5.486  12.969  0.3492  0.2603  0.3421
 1837TIP3    H126926   4.952   5.440  13.011 -0.6576 -1.2184  0.4950
 1837TIP3    H226927   4.922   5.552  12.914  1.7208  1.2396  2.4877
 1838TIP3   OH226928   2.909   1.979   5.266  0.0184 -0.1808  0.3328
 1838TIP3    H126929   2.863   1.905   5.306  2.9522 -1.6111  1.2031
 1838TIP3    H226930   2.987   1.990   5.319  0.8488  1.9993 -1.2734
 1839TIP3   OH226931   5.405   3.426  14.411 -0.4778 -0.2114 -0.2320
 1839TIP3    H126932   5.380   3.465  14.495  0.6695  0.2123 -0.0845
 1839TIP3    H226933   5.364   3.484  14.346 -0.3130  0.1890  0.0144
 1840TIP3   OH226934   1.561   4.107  12.023 -0.1916  0.3572 -0.1204
 1840TIP3    H126935   1.489   4.144  11.972 -1.7331 -3.0833 -0.6070
 1840TIP3    H226936   1.632   4.096  11.960 -0.9700 -0.8402 -0.8034
 1841TIP3   OH226937   6.028   1.058  15.131  0.1737  0.0763  0.0975
 1841TIP3    H126938   5.988   1.059  15.044 -0.6412  0.9632  0.4754
 1841TIP3    H226939   6.013   1.146  15.165  1.6744  0.1512  0.5963
 1842TIP3   OH226940   3.342   4.962  13.561  0.1891  0.2979  0.5222
 1842TIP3    H126941   3.402   4.892  13.535 -0.6811 -0.8559  1.5789
 1842TIP3    H226942   3.396   5.023  13.610  0.3188 -1.2228  2.2978
 1843TIP3   OH226943   1.037   6.047   5.947  0.3667 -0.3347  0.1632
 1843TIP3    H126944   1.081   5.978   5.998 -0.5913  0.3524  1.9519
 1843TIP3    H226945   1.056   6.128   5.995 -0.5041  0.3349 -0.6190
 1844TIP3   OH226946   3.369   2.780  10.680 -0.2472 -0.1375 -0.6512
 1844TIP3    H126947   3.425   2.855  10.660  0.4726 -0.5380 -0.1580
 1844TIP3    H226948   3.367   2.730  10.598  2.1385 -1.4120  0.0324
 1845TIP3   OH226949   6.047   0.057   4.950 -0.0461  0.6982 -0.0920
 1845TIP3    H126950   5.984  -0.012   4.930  1.6175 -0.4573 -1.4222
 1845TIP3    H226951   6.066   0.046   5.043 -0.6566  0.1262 -0.0312
 1846TIP3   OH226952   6.247   3.941   5.367 -0.6405 -0.1001 -0.1479
 1846TIP3    H126953   6.241   3.854   5.405  2.2366  0.8348  2.6748
 1846TIP3    H226954   6.260   3.926   5.273  1.2164 -2.7701  0.4906
 1847TIP3   OH226955   0.240   4.675  11.723 -0.0473  0.2342  0.2159
 1847TIP3    H126956   0.273   4.719  11.801 -0.7245  1.3372 -0.1057
 1847TIP3    H226957   0.245   4.582  11.744  2.9164  0.3452  0.3227
 1848TIP3   OH226958   4.100   5.801  12.667 -0.1992 -0.0161 -0.5978
 1848TIP3    H126959   4.091   5.759  12.581 -2.6501  0.0997 -0.4609
 1848TIP3    H226960   4.021   5.854  12.675 -0.3842 -0.6134  2.0479
 1849TIP3   OH226961   2.727   0.882  16.805  0.1880 -1.1431 -0.2735
 1849TIP3    H126962   2.686   0.964  16.777 -0.1391 -1.4003 -0.5588
 1849TIP3    H226963   2.772   0.904  16.886  0.3043 -0.6243 -0.4742
 1850TIP3   OH226964   3.460   4.791  15.330  0.0723 -0.7040 -0.1534
 1850TIP3    H126965   3.554   4.803  15.325  0.2057 -0.1081  3.1594
 1850TIP3    H226966   3.441   4.724  15.264  2.4037  1.0567 -2.7546
 1851TIP3   OH226967   3.247   2.014  13.175  0.4687 -0.1257 -0.0543
 1851TIP3    H126968   3.293   2.049  13.252  1.2676  2.0779 -1.4878
 1851TIP3    H226969   3.316   1.977  13.120  0.2209  0.6839 -0.9235
 1852TIP3   OH226970   0.563   5.540  15.298  0.0306  0.1738  0.3063
 1852TIP3    H126971   0.478   5.524  15.256 -0.3678  1.3132  0.6540
 1852TIP3    H226972   0.594   5.621  15.257  1.0855 -0.3805 -0.0167
 1853TIP3   OH226973   6.337   4.262   0.531  0.3289 -0.1847 -0.0953
 1853TIP3    H126974   6.397   4.311   0.475 -0.9174  1.4356 -0.0440
 1853TIP3    H226975   6.391   4.230   0.603  1.4895 -0.3518 -1.0393
 1854TIP3   OH226976   2.479   0.854   0.016 -0.4329 -0.2601  0.4323
 1854TIP3    H126977   2.416   0.802  -0.034  0.0700  0.4773 -1.0257
 1854TIP3    H226978   2.559   0.800   0.016 -0.6523 -0.5921  1.1043
 1855TIP3   OH226979   2.989   2.721  16.896  0.3632  0.3632  0.1064
 1855TIP3    H126980   3.041   2.799  16.882 -0.4108  0.6865 -1.0502
 1855TIP3    H226981   2.902   2.754  16.920  0.7410 -0.1637  2.2675
 1856TIP3   OH226982   4.462   5.109   0.903 -0.0946 -0.2070  0.1740
 1856TIP3    H126983   4.404   5.037   0.877  0.6685 -0.6341 -0.3770
 1856TIP3    H226984   4.550   5.076   0.883  0.1762  1.5242 -1.6018
 1857TIP3   OH226985   1.345   2.955  14.083 -0.7614 -0.2803 -0.4031
 1857TIP3    H126986   1.290   2.885  14.047 -0.8931  0.2571 -1.2642
 1857TIP3    H226987   1.285   3.028  14.095 -0.6784 -0.3968  0.7477
 1858TIP3   OH226988   6.155   5.620  14.232  0.6101 -0.0250  0.0251
 1858TIP3    H126989   6.217   5.678  14.189 -1.7295  2.2665 -0.4138
 1858TIP3    H226990   6.158   5.645  14.325 -1.4969  1.9357 -0.3914
 1859TIP3   OH226991   0.253   0.876   9.578  0.4326 -0.0233  0.7321
 1859TIP3    H126992   0.176   0.892   9.632  0.7511 -0.4832  1.3399
 1859TIP3    H226993   0.269   0.959   9.532 -0.3072  0.1244  0.7454
 1860TIP3   OH226994   4.438   4.640   4.313  0.4790 -0.1092  0.5505
 1860TIP3    H126995   4.445   4.623   4.407 -1.1816 -0.6578  0.5922
 1860TIP3    H226996   4.464   4.731   4.303  0.1714  0.1045  1.6294
 1861TIP3   OH226997   5.055   0.263  13.114 -0.1235  0.0596 -0.1101
 1861TIP3    H126998   5.144   0.250  13.147  0.5716  2.6766 -0.8767
 1861TIP3    H226999   5.029   0.176  13.083  2.9411 -0.3620 -1.7291
 1862TIP3   OH227000   1.456   0.139  11.785  0.0064 -0.4742  0.6427
 1862TIP3    H127001   1.547   0.148  11.813 -0.0852 -0.7844  1.0606
 1862TIP3    H227002   1.407   0.199  11.841 -0.0468 -0.3294  0.4404
 1863TIP3   OH227003   2.790   4.033  14.609  0.4155  0.1173  0.0786
 1863TIP3    H127004   2.696   4.036  14.590  0.2081  0.0675  1.0813
 1863TIP3    H227005   2.803   4.100  14.677  1.2321  0.6537 -0.5905
 1864TIP3   OH227006   5.757   6.702  13.358  0.5636  0.1450  0.1159
 1864TIP3    H127007   5.796   6.685  13.444  0.3783  0.7557  0.3246
 1864TIP3    H227008   5.798   6.783  13.328  0.2715  0.1954 -0.1516
 1865TIP3   OH227009   3.178   1.133  13.821 -0.2950  0.4961 -1.0598
 1865TIP3    H127010   3.237   1.137  13.746 -1.2102 -1.0099 -1.8766
 1865TIP3    H227011   3.213   1.064  13.876 -2.1672 -1.5303 -2.3408
 1866TIP3   OH227012   2.768   1.745   1.937 -0.4475 -0.0573 -0.1529
 1866TIP3    H127013   2.706   1.802   1.981 -0.3261 -1.8223  2.4251
 1866TIP3    H227014   2.715   1.674   1.901 -0.1547 -0.5124  0.3036
 1867TIP3   OH227015   5.544   0.980   5.160 -0.0504  0.3504 -0.0086
 1867TIP3    H127016   5.482   0.983   5.233  0.4705 -2.4860  0.6198
 1867TIP3    H227017   5.490   0.998   5.083 -1.0059  1.2913  0.8513
 1868TIP3   OH227018   2.823   3.067  16.120  0.1745 -0.2907  0.1978
 1868TIP3    H127019   2.793   2.978  16.135 -1.3985  0.4210  1.4752
 1868TIP3    H227020   2.752   3.109  16.072  1.1029  0.1501 -0.8065
 1869TIP3   OH227021   5.087   1.775   4.256 -0.3724 -0.0297 -0.7357
 1869TIP3    H127022   5.041   1.694   4.280 -0.2087 -0.3710 -1.5414
 1869TIP3    H227023   5.089   1.774   4.160  0.6799  0.3359 -0.7283
 1870TIP3   OH227024   2.333   0.101  16.128 -0.1594 -0.2602  0.0297
 1870TIP3    H127025   2.400   0.156  16.087  0.1456 -1.5471 -1.2414
 1870TIP3    H227026   2.299   0.154  16.201  1.0381  1.0716 -0.3660
 1871TIP3   OH227027   1.370   4.291   0.370 -0.0131 -0.3209 -0.1365
 1871TIP3    H127028   1.362   4.236   0.448  0.9702  0.3374  0.4369
 1871TIP3    H227029   1.439   4.353   0.391 -2.6553  2.6514  0.1772
 1872TIP3   OH227030   4.292   3.161  10.567 -0.1041 -0.4064  0.0288
 1872TIP3    H127031   4.204   3.175  10.603  0.1873  0.4606  0.4215
 1872TIP3    H227032   4.280   3.093  10.501 -0.9654 -0.7240  0.5016
 1873TIP3   OH227033   0.050   5.072   2.536 -0.0416  0.8589  0.3807
 1873TIP3    H127034   0.078   4.993   2.491  3.3072  1.2982  1.5297
 1873TIP3    H227035  -0.027   5.102   2.488  0.6380 -1.2579 -2.1018
 1874TIP3   OH227036   3.514   0.499   4.073  0.4691 -0.4526  0.2566
 1874TIP3    H127037   3.579   0.431   4.057  0.0615 -0.9205  0.5949
 1874TIP3    H227038   3.561   0.581   4.056  0.9211 -0.8199 -0.2766
 1875TIP3   OH227039   4.115   3.197  11.994 -0.1625 -0.1376 -0.2680
 1875TIP3    H127040   4.034   3.147  12.004 -0.0480 -0.1987  0.3659
 1875TIP3    H227041   4.088   3.288  11.993 -0.3516 -0.1941 -1.2280
 1876TIP3   OH227042   4.109   4.687  15.742  0.1962 -0.6155 -0.3857
 1876TIP3    H127043   4.168   4.735  15.683  1.3737 -2.3570 -0.6406
 1876TIP3    H227044   4.021   4.708  15.710  0.7380  0.3367 -1.2915
 1877TIP3   OH227045   0.737   2.775  13.609 -0.3234 -0.1800  0.2264
 1877TIP3    H127046   0.781   2.740  13.686  0.2936 -1.8414 -0.8657
 1877TIP3    H227047   0.775   2.727  13.536 -1.3450  0.9512 -1.0643
 1878TIP3   OH227048   5.762   2.646  14.828  0.4011  0.2399 -0.4826
 1878TIP3    H127049   5.852   2.618  14.810  1.0752  0.9246  1.5403
 1878TIP3    H227050   5.763   2.669  14.922 -1.6913  0.9716 -0.6081
 1879TIP3   OH227051   3.254   6.063   5.050 -0.1044 -0.6035 -0.0748
 1879TIP3    H127052   3.294   6.150   5.052 -1.5148  0.0392  1.4736
 1879TIP3    H227053   3.203   6.058   5.131 -0.8371 -2.4944 -0.6213
 1880TIP3   OH227054   5.642   5.078  11.541  0.2495 -0.0900 -0.5229
 1880TIP3    H127055   5.662   5.059  11.449  0.6089  1.2617 -0.7418
 1880TIP3    H227056   5.722   5.120  11.574  0.3049 -1.0196  0.5567
 1881TIP3   OH227057   4.516   3.967  15.604  0.3032 -0.1803  0.2961
 1881TIP3    H127058   4.542   3.905  15.672  2.6515  0.5908  0.1488
 1881TIP3    H227059   4.592   3.972  15.546  0.1282  2.7624  0.2690
 1882TIP3   OH227060   0.528   0.766   1.479 -0.1661 -0.2082 -0.3863
 1882TIP3    H127061   0.612   0.734   1.445  0.3209  0.6538 -0.0175
 1882TIP3    H227062   0.535   0.861   1.472 -0.1619 -0.0206  1.8825
 1883TIP3   OH227063   1.681   3.325   4.247 -0.3710  0.1112  0.3146
 1883TIP3    H127064   1.751   3.384   4.218 -0.9372 -0.0000 -1.2869
 1883TIP3    H227065   1.646   3.368   4.326  1.4184  0.2126  1.0947
 1884TIP3   OH227066   1.275   2.880  13.669  0.4717 -0.0547  0.3580
 1884TIP3    H127067   1.218   2.809  13.700 -0.0338  1.1565  2.2658
 1884TIP3    H227068   1.239   2.959  13.709  1.5777  1.1664 -1.0191
 1885TIP3   OH227069   5.962   1.544  16.575  0.1243  0.1224  0.0694
 1885TIP3    H127070   5.973   1.494  16.494 -1.5341 -1.0069  0.5055
 1885TIP3    H227071   5.868   1.557  16.582  0.4203  1.9053  0.8291
 1886TIP3   OH227072   0.338   5.441  15.143 -0.4994 -0.3407 -0.2406
 1886TIP3    H127073   0.264   5.437  15.083  0.0057 -2.3099 -0.7565
 1886TIP3    H227074   0.334   5.359  15.193  1.6451 -0.7384 -0.6730
 1887TIP3   OH227075   1.155   1.213   1.020  0.2102  0.1928 -0.6683
 1887TIP3    H127076   1.153   1.304   0.992 -0.2514  0.6860  0.9289
 1887TIP3    H227077   1.246   1.186   1.007  0.3415  0.8624 -1.1596
 1888TIP3   OH227078   6.664   0.757   5.993 -0.0035  0.0963  0.6690
 1888TIP3    H127079   6.578   0.769   5.953 -0.3670  1.9506  1.9859
 1888TIP3    H227080   6.724   0.805   5.936 -0.3013  1.4415  1.4757
 1889TIP3   OH227081   3.993   2.378  12.223 -0.3944 -0.2946 -0.3735
 1889TIP3    H127082   4.033   2.305  12.175 -2.6500 -1.6846 -0.2032
 1889TIP3    H227083   3.986   2.346  12.313  0.2097  0.8235  0.0865
 1890TIP3   OH227084   4.490   6.761   5.357  0.1486 -0.0236  0.0570
 1890TIP3    H127085   4.505   6.719   5.272 -0.2877  3.3873 -1.7679
 1890TIP3    H227086   4.578   6.785   5.387  0.1791  0.0357 -0.0811
 1891TIP3   OH227087   3.643   0.009  12.063  1.1165 -0.2780 -0.1300
 1891TIP3    H127088   3.603  -0.000  11.976  0.2998 -2.7445  0.4896
 1891TIP3    H227089   3.691   0.092  12.058 -1.3259  1.0910 -1.9800
 1892TIP3   OH227090   4.363   6.066  13.127 -0.1990 -0.4255  0.0618
 1892TIP3    H127091   4.413   6.036  13.203 -0.6715 -1.3006  0.0243
 1892TIP3    H227092   4.330   5.986  13.087 -2.7564  0.2148  0.8291
 1893TIP3   OH227093   5.800   0.381  13.037 -0.3399  0.2984  0.0601
 1893TIP3    H127094   5.758   0.348  12.958 -1.3078  1.6203 -0.0082
 1893TIP3    H227095   5.893   0.381  13.016 -0.6140  1.0238 -1.2498
 1894TIP3   OH227096   3.588   3.479  13.575  0.6234  0.0488 -0.2412
 1894TIP3    H127097   3.683   3.480  13.580  0.5507  2.8651  1.9471
 1894TIP3    H227098   3.561   3.562  13.616 -2.6724  0.4000 -2.8849
 1895TIP3   OH227099   3.943   3.014   1.455 -0.0175 -0.1300 -0.6418
 1895TIP3    H127100   4.037   3.023   1.472  0.4593  2.5916 -4.2139
 1895TIP3    H227101   3.938   2.953   1.382 -1.1680 -1.1583  0.2612
 1896TIP3   OH227102   1.997   0.646   3.259  0.2408  0.3557  0.2051
 1896TIP3    H127103   1.908   0.637   3.225  0.7253  0.9839 -1.2642
 1896TIP3    H227104   2.032   0.724   3.215  1.9217 -0.5674 -0.1446
 1897TIP3   OH227105   6.213   1.472  16.645  0.2610  0.1794 -0.0083
 1897TIP3    H127106   6.120   1.493  16.647  0.1476 -0.0951 -1.5816
 1897TIP3    H227107   6.251   1.521  16.718 -1.3102 -0.6801  1.4149
 1898TIP3   OH227108   6.408   6.163  16.202 -0.6093  0.1173  0.6146
 1898TIP3    H127109   6.362   6.181  16.121 -0.5741  0.9230  0.7711
 1898TIP3    H227110   6.341   6.130  16.262 -0.6173 -0.5604  0.2337
 1899TIP3   OH227111   4.458   4.821   5.662  0.3567  0.0233  0.5876
 1899TIP3    H127112   4.493   4.732   5.660  2.2860  0.7803  0.0041
 1899TIP3    H227113   4.376   4.816   5.613  1.2434 -1.0959 -0.7916
 1900TIP3   OH227114   4.344   4.068   1.967 -0.1554  0.3284 -0.2188
 1900TIP3    H127115   4.311   4.107   2.048  0.2614 -0.4747  0.3384
 1900TIP3    H227116   4.403   4.135   1.931  0.7694  0.1195  0.8829
 1901TIP3   OH227117   0.078   0.613  14.193  0.0542 -0.1238  0.1424
 1901TIP3    H127118   0.001   0.637  14.142  0.1962 -0.6144 -0.3168
 1901TIP3    H227119   0.146   0.674  14.166 -0.1385  0.2300  0.4567
 1902TIP3   OH227120   5.663   6.236  15.476  0.0665 -0.2330 -0.1522
 1902TIP3    H127121   5.728   6.182  15.431  2.2751  1.8779  0.3812
 1902TIP3    H227122   5.641   6.187  15.555  2.1897 -0.3193  0.4212
 1903TIP3   OH227123   4.879   1.603   4.675 -0.4244 -0.4992  0.4335
 1903TIP3    H127124   4.912   1.523   4.634  1.1653  0.3206  0.1085
 1903TIP3    H227125   4.843   1.573   4.759  1.9643 -1.2968  1.2173
 1904TIP3   OH227126   4.818   5.634  12.192  0.7837 -0.3672 -0.0225
 1904TIP3    H127127   4.903   5.666  12.161  1.5736 -2.1667  0.2224
 1904TIP3    H227128   4.767   5.714  12.208  2.3457  0.7306 -0.3671
 1905TIP3   OH227129   0.666   6.046  14.394 -0.3103 -0.2309  0.2544
 1905TIP3    H127130   0.657   5.981  14.464 -0.2046  1.0143  1.4593
 1905TIP3    H227131   0.759   6.070  14.395 -0.2600 -0.4010 -0.4866
 1906TIP3   OH227132   4.734   1.095   5.551 -0.0700  0.2323  0.2670
 1906TIP3    H127133   4.804   1.097   5.487 -0.0946 -0.3974  0.2147
 1906TIP3    H227134   4.659   1.057   5.504  0.4458 -1.9609  1.1748
 1907TIP3   OH227135   4.417   2.743   2.944  0.3725 -0.2482 -0.0330
 1907TIP3    H127136   4.506   2.707   2.951  0.4678 -0.1061 -0.5169
 1907TIP3    H227137   4.410   2.804   3.018  1.2373  0.9368 -0.9093
 1908TIP3   OH227138   5.725   2.088  13.805 -0.2278  0.2145  0.4501
 1908TIP3    H127139   5.666   2.013  13.811  1.8034 -1.4580 -0.0651
 1908TIP3    H227140   5.720   2.129  13.891  0.3863 -1.8451  1.4885
 1909TIP3   OH227141   4.701   2.227  14.422 -0.0028  0.1268 -0.0874
 1909TIP3    H127142   4.754   2.306  14.431  0.4835 -0.0737 -1.0552
 1909TIP3    H227143   4.684   2.198  14.511  1.5853  0.1526  0.2276
 1910TIP3   OH227144   0.294   5.147   4.052  0.2827 -0.4631 -0.3792
 1910TIP3    H127145   0.362   5.140   3.984 -0.0306 -0.9293 -0.6435
 1910TIP3    H227146   0.212   5.137   4.005 -0.0373  1.5213 -0.2597
 1911TIP3   OH227147   5.803   2.798  14.555  0.1281  0.1354  0.4377
 1911TIP3    H127148   5.878   2.771  14.502  1.4533  1.9505  1.3438
 1911TIP3    H227149   5.769   2.875  14.510 -0.6489 -0.1629  0.5204
 1912TIP3   OH227150   1.302   1.910  16.025 -0.1941  0.4190 -0.1403
 1912TIP3    H127151   1.207   1.898  16.024 -0.3124  1.2070  0.5720
 1912TIP3    H227152   1.328   1.880  16.112  0.2645 -0.1268 -0.4635
 1913TIP3   OH227153   2.590   2.945   4.425  0.8643 -0.4183  0.2307
 1913TIP3    H127154   2.624   3.007   4.361  1.8468 -0.2970  0.8574
 1913TIP3    H227155   2.502   2.924   4.394  0.2450  1.8057  0.3837
 1914TIP3   OH227156   0.320   2.324   0.249  0.4742  0.3787 -0.9890
 1914TIP3    H127157   0.401   2.372   0.268  0.2637 -0.2505  1.7267
 1914TIP3    H227158   0.346   2.254   0.189  2.8158 -2.2747  2.9039
 1915TIP3   OH227159   1.453   3.209  13.607 -0.5223  0.5246 -0.1085
 1915TIP3    H127160   1.435   3.282  13.667 -0.0862  0.2114  0.4130
 1915TIP3    H227161   1.440   3.130  13.661  1.9650  0.2709  0.1840
 1916TIP3   OH227162   2.386   2.673   2.222 -0.4323 -0.6068  0.2779
 1916TIP3    H127163   2.307   2.688   2.170 -0.8097 -1.6297  0.5570
 1916TIP3    H227164   2.428   2.759   2.226 -1.5566 -0.0428  0.1654
 1917TIP3   OH227165   4.744   3.287   5.552  1.1094 -0.0875  0.5669
 1917TIP3    H127166   4.793   3.218   5.507  0.8752  0.6030 -0.7780
 1917TIP3    H227167   4.669   3.242   5.590  0.9174 -0.5653 -0.3626
 1918TIP3   OH227168   2.131   3.596   3.411 -0.6587 -0.0341  0.2615
 1918TIP3    H127169   2.093   3.598   3.499 -1.1666  3.1070  0.0022
 1918TIP3    H227170   2.223   3.619   3.424 -0.9170  1.2301 -0.1017
 1919TIP3   OH227171   0.806   4.766  15.441  0.3361 -0.4195 -0.6671
 1919TIP3    H127172   0.830   4.788  15.351  2.7346 -1.0411 -0.2131
 1919TIP3    H227173   0.886   4.783  15.492 -1.0199  0.0186  1.3614
 1920TIP3   OH227174   3.611   4.852  14.147 -0.3550 -0.3543  0.2304
 1920TIP3    H127175   3.652   4.902  14.217  0.6626  0.4044 -0.8699
 1920TIP3    H227176   3.539   4.805  14.189 -0.6345  1.1742  1.5085
 1921TIP3   OH227177   3.407   4.896  14.988 -0.2921  0.3155 -0.5611
 1921TIP3    H127178   3.439   4.903  14.898 -0.6451 -0.3870 -0.7413
 1921TIP3    H227179   3.472   4.842  15.033  1.3245  2.8715  0.3093
 1922TIP3   OH227180   5.723   2.732   5.806  0.0700 -0.1072 -0.1112
 1922TIP3    H127181   5.733   2.826   5.823  0.2220  0.1662 -1.6772
 1922TIP3    H227182   5.702   2.726   5.713 -0.7032 -1.5842  0.1388
 1923TIP3   OH227183   5.500   4.558  14.994 -0.3315 -0.5729  0.4030
 1923TIP3    H127184   5.527   4.596  15.078 -0.9153  1.2896 -0.2384
 1923TIP3    H227185   5.566   4.588  14.932 -2.3922  1.8415 -0.6765
 1924TIP3   OH227186   5.154   6.346  15.086 -0.0633  0.5580  0.2165
 1924TIP3    H127187   5.163   6.435  15.119 -0.1273 -0.0058  1.7923
 1924TIP3    H227188   5.180   6.290  15.160 -1.2129 -0.7520 -0.3499
 1925TIP3   OH227189   0.705   6.668  10.794 -0.4050  0.1915 -0.2623
 1925TIP3    H127190   0.631   6.729  10.787  0.2123  1.1256  1.1680
 1925TIP3    H227191   0.731   6.652  10.703 -2.1666  0.0834 -0.7691
 1926TIP3   OH227192   5.983   2.870   4.261  0.1133 -0.5447 -0.1997
 1926TIP3    H127193   6.075   2.880   4.238  0.1407  1.4773  0.6226
 1926TIP3    H227194   5.984   2.840   4.352 -0.0413  0.2167  0.0555
 1927TIP3   OH227195   3.177   3.368   0.543 -0.7904 -0.6865 -0.3510
 1927TIP3    H127196   3.216   3.297   0.491 -0.4535  0.4100 -1.6386
 1927TIP3    H227197   3.194   3.343   0.634 -0.8835 -2.3709 -0.7749
 1928TIP3   OH227198   1.531   3.493  10.398 -0.7661  0.0011  0.1594
 1928TIP3    H127199   1.579   3.458  10.323  0.1764 -1.1143  1.2632
 1928TIP3    H227200   1.447   3.447  10.396 -1.8480  1.9639 -1.7787
 1929TIP3   OH227201   3.154   5.542  16.495 -0.3576 -0.6184  0.1672
 1929TIP3    H127202   3.174   5.594  16.417  2.4906 -0.0170  1.2442
 1929TIP3    H227203   3.109   5.465  16.461 -1.5515  0.8928 -1.7949
 1930TIP3   OH227204   1.752   4.122  14.413  0.0458  0.0070 -0.5505
 1930TIP3    H127205   1.770   4.154  14.324  0.5395  1.8732  0.1880
 1930TIP3    H227206   1.717   4.199  14.459  2.0705 -0.2573  1.5383
 1931TIP3   OH227207   2.658   6.196   4.363  0.1276  0.1892  0.5205
 1931TIP3    H127208   2.634   6.139   4.436 -1.1130  1.4727  1.1223
 1931TIP3    H227209   2.751   6.180   4.350  0.7152  1.0584  3.3886
 1932TIP3   OH227210   4.031   2.230  15.712 -0.2284 -0.0930 -0.5273
 1932TIP3    H127211   3.996   2.317  15.733 -1.2361 -0.0243 -2.3979
 1932TIP3    H227212   3.955   2.172  15.715 -0.1249 -0.3520 -2.3276
 1933TIP3   OH227213   4.969   3.225   2.629  0.1185  1.1091  0.0466
 1933TIP3    H127214   4.971   3.177   2.712  0.7233  3.1845  1.2917
 1933TIP3    H227215   5.039   3.290   2.638  1.1464  0.4500 -2.6861
 1934TIP3   OH227216   2.465   3.760  16.853  0.1742 -0.3217 -0.3110
 1934TIP3    H127217   2.437   3.765  16.944 -2.1549 -1.0621 -0.9718
 1934TIP3    H227218   2.422   3.682  16.818  1.8858 -0.6444 -1.7746
 1935TIP3   OH227219   3.534   0.165  10.502  0.3880 -0.5274 -0.2232
 1935TIP3    H127220   3.570   0.127  10.422  0.8050  0.6725 -0.6275
 1935TIP3    H227221   3.591   0.239  10.521 -0.1414 -0.3715  0.7814
 1936TIP3   OH227222   5.496   6.295   1.130  0.1593 -0.0217  0.0764
 1936TIP3    H127223   5.412   6.327   1.163 -0.4201  0.4450 -1.8180
 1936TIP3    H227224   5.481   6.203   1.112 -0.0518  0.1440 -0.5977
 1937TIP3   OH227225   3.344   0.465   0.723  0.0023 -0.1367  0.6029
 1937TIP3    H127226   3.353   0.489   0.815  0.5080 -0.1454  0.5549
 1937TIP3    H227227   3.433   0.453   0.692 -0.2211 -2.1273  0.6315
 1938TIP3   OH227228   1.064   5.277   3.918 -0.4197 -0.4364 -0.0794
 1938TIP3    H127229   1.132   5.229   3.965  0.6456  0.8199 -0.2984
 1938TIP3    H227230   1.092   5.368   3.922 -2.3416  0.1737  0.2272
 1939TIP3   OH227231   4.207   1.866   5.952 -0.3671 -0.1014 -0.2379
 1939TIP3    H127232   4.291   1.911   5.948  0.6468 -1.9634 -0.5955
 1939TIP3    H227233   4.191   1.853   6.045  0.6284 -1.3054 -0.2200
 1940TIP3   OH227234   3.764   4.239   5.607 -0.4576 -0.3537 -0.1519
 1940TIP3    H127235   3.849   4.232   5.562  0.0515  2.0357  0.3425
 1940TIP3    H227236   3.761   4.163   5.665  0.9717 -0.9247 -0.8001
 1941TIP3   OH227237   3.736   1.073   4.175  0.4095  0.3038 -0.4413
 1941TIP3    H127238   3.659   1.042   4.223  1.3601 -0.5109  0.6077
 1941TIP3    H227239   3.745   1.165   4.200 -0.6439  0.6168 -1.1610
 1942TIP3   OH227240   5.345   1.501  16.542  0.3513 -0.7466  0.2514
 1942TIP3    H127241   5.352   1.574  16.604 -0.2649 -1.3779  1.0656
 1942TIP3    H227242   5.404   1.434  16.577  0.4051 -0.9013 -0.1316
 1943TIP3   OH227243   4.536   1.108   1.132 -0.1044  1.0477  0.2667
 1943TIP3    H127244   4.476   1.063   1.191 -2.5164  2.5006 -1.0075
 1943TIP3    H227245   4.614   1.052   1.131 -1.6461 -1.2293  1.4554
 1944TIP3   OH227246   0.266   4.947  13.143  0.5757  0.5009 -0.2027
 1944TIP3    H127247   0.217   4.896  13.079  2.0606 -0.5153 -0.5537
 1944TIP3    H227248   0.239   5.038  13.127 -0.8988 -0.0044 -0.6183
 1945TIP3   OH227249   4.018   3.978  14.579  0.2565  0.0132 -0.1876
 1945TIP3    H127250   3.964   3.922  14.634  0.2182 -0.9489 -1.1899
 1945TIP3    H227251   4.037   3.926  14.501  1.1353  0.9880 -0.6568
 1946TIP3   OH227252   0.478   5.099  12.306  0.5207 -0.1788 -0.5066
 1946TIP3    H127253   0.407   5.135  12.359  1.5980  1.2855 -0.0012
 1946TIP3    H227254   0.470   5.144  12.222  1.2572  0.5456 -0.2078
 1947TIP3   OH227255   5.479   6.370   3.196 -0.0580 -0.0631  0.2969
 1947TIP3    H127256   5.398   6.319   3.190 -0.5151  0.6780 -0.0236
 1947TIP3    H227257   5.541   6.312   3.240  0.8247 -2.6161 -4.0479
 1948TIP3   OH227258   1.959   5.633   6.108  0.2650  0.0749  0.5120
 1948TIP3    H127259   1.973   5.693   6.182 -1.7184  0.0908  0.8935
 1948TIP3    H227260   1.998   5.550   6.137 -0.1887  0.1782  1.4347
 1949TIP3   OH227261   1.148   2.689   0.135 -0.5899 -0.7046 -0.0810
 1949TIP3    H127262   1.055   2.669   0.146 -1.0247  0.6679 -1.1805
 1949TIP3    H227263   1.149   2.774   0.091  1.1483 -1.6027 -1.8297
 1950TIP3   OH227264   5.410   5.877   0.760 -0.1041  0.1695  0.2920
 1950TIP3    H127265   5.357   5.934   0.704  1.0444 -0.8808 -1.9623
 1950TIP3    H227266   5.474   5.837   0.699  1.1611 -1.0475  2.3603
 1951TIP3   OH227267   1.770   6.375   4.029  0.1237  0.0067  0.0552
 1951TIP3    H127268   1.710   6.312   3.989  0.2359  0.5651 -1.0218
 1951TIP3    H227269   1.850   6.368   3.977 -0.7445  2.9308 -1.8098
 1952TIP3   OH227270   3.369   1.556  13.580  0.0943  0.1588 -0.1614
 1952TIP3    H127271   3.366   1.532  13.488  1.3364  1.5221 -0.5717
 1952TIP3    H227272   3.312   1.632  13.587  1.4566  1.2009 -0.1811
 1953TIP3   OH227273   4.381   5.901   1.567  0.4759 -0.1889 -0.0625
 1953TIP3    H127274   4.374   5.982   1.516  1.3827 -1.0077 -1.5089
 1953TIP3    H227275   4.362   5.831   1.504 -0.5673 -1.0969  1.2341
 1954TIP3   OH227276   4.820   2.468  14.399 -0.2461  1.0089  0.0424
 1954TIP3    H127277   4.774   2.486  14.318 -0.5573 -0.0565 -0.0248
 1954TIP3    H227278   4.899   2.522  14.395 -0.1692  0.8214 -1.0487
 1955TIP3   OH227279   5.691   3.702  12.435 -0.2739  0.3793  0.6381
 1955TIP3    H127280   5.660   3.748  12.513  0.4728  0.1210  1.0945
 1955TIP3    H227281   5.621   3.714  12.371 -0.4872  1.3738  1.0453
 1956TIP3   OH227282   2.582   6.547  11.669 -0.1490  0.1847 -0.1261
 1956TIP3    H127283   2.646   6.616  11.651  0.4244 -0.2490  0.2662
 1956TIP3    H227284   2.498   6.593  11.667  0.0175  0.4609 -2.2876
 1957TIP3   OH227285   0.868   1.253  15.153 -0.0547 -0.0729  0.2194
 1957TIP3    H127286   0.867   1.346  15.175 -0.2827  0.0723 -0.3999
 1957TIP3    H227287   0.872   1.208  15.238  0.7584  0.5103  0.4896
 1958TIP3   OH227288   4.081   2.444  14.331 -0.4692 -0.7110 -0.9051
 1958TIP3    H127289   3.990   2.473  14.326 -0.0189  0.9426  0.3064
 1958TIP3    H227290   4.089   2.405  14.418 -0.4195 -2.3383 -1.6075
 1959TIP3   OH227291   4.917   1.406  16.840  0.1985  0.6067  0.0867
 1959TIP3    H127292   4.933   1.491  16.799  0.4038 -0.1083 -1.3632
 1959TIP3    H227293   4.821   1.399  16.845  0.1533  0.3395 -1.0699
 1960TIP3   OH227294   2.312   3.936  12.871  0.5019  0.1399  0.0586
 1960TIP3    H127295   2.398   3.978  12.870  0.8141 -0.4711  0.6287
 1960TIP3    H227296   2.331   3.843  12.885 -0.3198  0.2913  2.5198
 1961TIP3   OH227297   4.595   0.544   1.974  0.6520  0.2898 -1.1465
 1961TIP3    H127298   4.508   0.516   1.945  0.0465 -0.2756  1.0949
 1961TIP3    H227299   4.615   0.487   2.047  0.7665  3.5760  1.5169
 1962TIP3   OH227300   1.699   5.046  13.834  0.5116 -0.0287 -0.3930
 1962TIP3    H127301   1.608   5.068  13.855  0.7292 -0.3171  0.8519
 1962TIP3    H227302   1.736   5.012  13.916  1.6724 -0.1471 -0.9528
 1963TIP3   OH227303   3.755   5.008   4.959  0.1667  0.5892 -0.2604
 1963TIP3    H127304   3.732   4.964   4.877 -2.4137  0.7489  0.3543
 1963TIP3    H227305   3.845   4.978   4.977 -0.0283 -1.1663 -2.0029
 1964TIP3   OH227306   2.908   4.150   5.256 -0.4260  0.7491 -0.1846
 1964TIP3    H127307   2.876   4.236   5.231  1.8440  1.2161 -1.6738
 1964TIP3    H227308   2.898   4.097   5.177 -0.2457  0.1227  0.2063
 1965TIP3   OH227309   3.458   6.120  13.260  0.1918 -0.2875  0.0101
 1965TIP3    H127310   3.432   6.208  13.235 -0.5932  0.2783  2.5865
 1965TIP3    H227311   3.377   6.079  13.293  0.5677 -1.9250 -1.0344
 1966TIP3   OH227312   5.229   1.233   2.120 -0.9461  0.3941  0.1744
 1966TIP3    H127313   5.278   1.178   2.059 -0.2531  2.1605 -0.9210
 1966TIP3    H227314   5.292   1.258   2.187 -0.9707  0.6911  0.0900
 1967TIP3   OH227315   5.112   0.414   2.798  0.0416 -0.0918  0.7185
 1967TIP3    H127316   5.187   0.392   2.742  0.2345  2.3410 -0.0390
 1967TIP3    H227317   5.063   0.479   2.748 -1.8567 -0.6350  1.8013
 1968TIP3   OH227318   6.427   5.415  14.334  0.5955  0.3952 -0.1657
 1968TIP3    H127319   6.339   5.451  14.327  0.9534  1.6588  1.5581
 1968TIP3    H227320   6.422   5.353  14.407  0.7502 -0.7427 -1.1075
 1969TIP3   OH227321   6.772   4.737   3.502 -0.1767  0.2360  0.2518
 1969TIP3    H127322   6.798   4.767   3.415  0.6570 -0.3248  0.3034
 1969TIP3    H227323   6.689   4.693   3.487  0.7648 -1.3211 -0.5433
 1970TIP3   OH227324   2.596   6.441  16.423 -0.0115 -0.2311 -0.1015
 1970TIP3    H127325   2.598   6.354  16.462 -2.5176 -0.9530 -1.4850
 1970TIP3    H227326   2.546   6.494  16.485 -0.8602 -0.4737 -0.5705
 1971TIP3   OH227327   3.540   6.726   1.013  0.4384 -0.0996  0.3477
 1971TIP3    H127328   3.494   6.644   0.995 -0.2795 -0.1238  2.1979
 1971TIP3    H227329   3.481   6.794   0.980 -0.1394 -0.2160  1.1270
 1972TIP3   OH227330   6.396   6.112  14.853  0.2967 -0.3774 -0.7450
 1972TIP3    H127331   6.387   6.016  14.858 -0.2735 -0.3282 -0.7301
 1972TIP3    H227332   6.375   6.133  14.762 -0.1329 -0.2152 -0.6107
 1973TIP3   OH227333   2.046   0.671   0.555 -0.1190 -0.7556 -0.0135
 1973TIP3    H127334   2.140   0.673   0.573 -0.3646  3.4034  1.2295
 1973TIP3    H227335   2.009   0.623   0.630  0.8190 -0.9241  0.3546
 1974TIP3   OH227336   3.713   1.744  16.790 -0.1760  0.2419  0.8634
 1974TIP3    H127337   3.769   1.768  16.864  1.4404 -1.4170  0.1946
 1974TIP3    H227338   3.722   1.817  16.729  3.1816 -1.0716 -0.2913
 1975TIP3   OH227339   4.628   0.954   2.587 -0.4088 -0.2741  0.5433
 1975TIP3    H127340   4.654   0.938   2.497 -0.8602  0.3215  0.3046
 1975TIP3    H227341   4.537   0.924   2.591 -0.5373  0.1292  0.6768
 1976TIP3   OH227342   4.938   1.740  14.331  0.2971 -0.2543  0.4438
 1976TIP3    H127343   4.924   1.646  14.318  1.5234 -0.7414  2.3988
 1976TIP3    H227344   4.866   1.767  14.388  0.6783 -0.2945  0.9497
 1977TIP3   OH227345   4.989   4.113   5.907  0.0202 -0.1111  0.1699
 1977TIP3    H127346   5.005   4.066   5.988  1.6483 -0.3585 -0.2840
 1977TIP3    H227347   4.960   4.046   5.846 -1.4228  0.1107  0.6012
 1978TIP3   OH227348   0.750   2.269  15.966 -0.2157 -0.2835  0.4144
 1978TIP3    H127349   0.738   2.267  16.060  0.3547  0.5769  0.5072
 1978TIP3    H227350   0.831   2.318  15.952  0.0969 -1.0307 -0.4829
 1979TIP3   OH227351   5.451   0.167   5.760 -0.1948  0.1829  0.3736
 1979TIP3    H127352   5.504   0.205   5.690  2.5602 -0.1610  2.1637
 1979TIP3    H227353   5.425   0.242   5.814 -0.7376  0.2503  0.0217
 1980TIP3   OH227354   0.911   1.254   6.532 -0.0630 -0.1270  0.1724
 1980TIP3    H127355   0.868   1.210   6.606 -1.0167  1.3343  0.5120
 1980TIP3    H227356   0.919   1.345   6.560  2.9562 -0.2635 -0.0306
 1981TIP3   OH227357   0.844   4.705  14.276  0.4537 -0.2071 -0.2839
 1981TIP3    H127358   0.928   4.720  14.231 -0.1906 -1.7243 -2.0192
 1981TIP3    H227359   0.801   4.637  14.225 -2.3630  1.3663 -0.0865
 1982TIP3   OH227360   2.314   0.794  13.470  0.1140 -0.0411  0.1425
 1982TIP3    H127361   2.221   0.811  13.489  0.2930  0.6869  0.3627
 1982TIP3    H227362   2.328   0.705  13.502 -0.1365  0.3864  1.4732
 1983TIP3   OH227363   5.123   6.309   5.247 -0.0381  0.1452 -0.4068
 1983TIP3    H127364   5.186   6.311   5.318 -0.5509 -0.6337  0.0893
 1983TIP3    H227365   5.093   6.399   5.238  0.6155  0.3873 -0.1708
 1984TIP3   OH227366   4.398   1.629   5.840 -0.1533  0.3465  0.5841
 1984TIP3    H127367   4.326   1.632   5.903  1.1828  0.6297  2.1206
 1984TIP3    H227368   4.385   1.705   5.784  0.0228  1.4758  2.0652
 1985TIP3   OH227369   6.272   5.066  12.226  0.0168 -0.4888 -0.2934
 1985TIP3    H127370   6.204   5.134  12.221  2.0722  1.4222 -3.2673
 1985TIP3    H227371   6.256   5.011  12.150 -0.3461 -2.1567  0.9662
 1986TIP3   OH227372   1.208   4.141   5.864  0.0404 -0.8417 -0.4980
 1986TIP3    H127373   1.183   4.216   5.918 -2.8510 -0.5434 -2.1470
 1986TIP3    H227374   1.220   4.069   5.927  0.6686  0.4613  0.8956
 1987TIP3   OH227375   4.456   4.590  16.253 -0.6669 -0.0975 -0.4659
 1987TIP3    H127376   4.462   4.686  16.255  2.8305 -0.1932 -1.7617
 1987TIP3    H227377   4.499   4.565  16.172 -0.6932 -2.8194  0.3048
 1988TIP3   OH227378   6.422   4.052  15.039 -0.4677 -0.2066  0.4141
 1988TIP3    H127379   6.428   4.091  15.126  1.6645 -0.7627  0.5440
 1988TIP3    H227380   6.481   4.104  14.985  0.9785 -2.0758  0.1552
 1989TIP3   OH227381   0.472   5.141   3.420 -0.6403 -0.1826  0.2074
 1989TIP3    H127382   0.386   5.173   3.445 -0.1039 -1.3017  3.7389
 1989TIP3    H227383   0.534   5.195   3.469  0.6212 -0.6450 -0.8191
 1990TIP3   OH227384   1.967   6.436   1.048  0.1835  0.0363  0.4885
 1990TIP3    H127385   2.003   6.423   0.960  1.4439 -1.6750  1.2377
 1990TIP3    H227386   1.971   6.531   1.061  2.0868  0.1151 -0.4411
 1991TIP3   OH227387   5.735   5.850  12.427  0.4388 -0.2813 -0.6911
 1991TIP3    H127388   5.760   5.921  12.486  1.3772 -1.6637  0.6203
 1991TIP3    H227389   5.642   5.837  12.443  0.5812 -0.3144  0.1710
 1992TIP3   OH227390   6.129   4.096   1.805  0.1204 -0.1481  0.4165
 1992TIP3    H127391   6.209   4.045   1.822  2.0260  2.2762 -0.9389
 1992TIP3    H227392   6.118   4.093   1.710 -0.7814  0.4176  0.4961
 1993TIP3   OH227393   0.064   0.005  11.256  0.0555 -0.1438 -0.5770
 1993TIP3    H127394   0.016   0.085  11.276  1.9224  1.1027 -0.9286
 1993TIP3    H227395   0.004  -0.046  11.202 -0.9733  1.2586 -0.7901
 1994TIP3   OH227396   1.480   2.957   3.656  0.3349 -0.3345  0.9486
 1994TIP3    H127397   1.514   3.027   3.712 -0.9845  1.1920 -0.1158
 1994TIP3    H227398   1.511   2.876   3.698 -0.3500  0.7724  3.7143
 1995TIP3   OH227399   3.796   0.240   0.893  0.2268 -0.9963 -0.0671
 1995TIP3    H127400   3.838   0.203   0.816  0.1139  0.5991 -0.9216
 1995TIP3    H227401   3.865   0.291   0.935 -0.3417  0.1232 -0.4659
 1996TIP3   OH227402   5.264   5.673   0.858 -0.2046 -0.3367 -0.3536
 1996TIP3    H127403   5.175   5.697   0.835 -1.1151 -0.7330  2.6094
 1996TIP3    H227404   5.318   5.746   0.826 -1.7474  0.6322 -0.7803
 1997TIP3   OH227405   1.224   2.082  14.800 -0.5724 -0.8217 -0.0719
 1997TIP3    H127406   1.209   2.177  14.809  1.2498 -0.3969 -1.3267
 1997TIP3    H227407   1.181   2.044  14.877 -2.6783  0.8726 -0.3665
 1998TIP3   OH227408   4.058   5.137  12.270 -0.2023 -0.1800 -0.1857
 1998TIP3    H127409   4.000   5.202  12.232 -1.0076  0.4579  2.0397
 1998TIP3    H227410   4.146   5.172  12.254 -0.5910  0.9337  0.0233
 1999TIP3   OH227411   3.702   5.312  14.135 -0.5451 -0.0325  0.4420
 1999TIP3    H127412   3.716   5.389  14.080 -0.7032 -0.8819 -0.8202
 1999TIP3    H227413   3.785   5.301  14.182  1.2816 -1.9368 -3.0247
 2000TIP3   OH227414   6.244   5.806   4.347 -0.5367  0.3761 -0.4947
 2000TIP3    H127415   6.176   5.739   4.337  1.0716 -1.1932 -1.1463
 2000TIP3    H227416   6.278   5.793   4.436 -1.9938  2.0613  0.3409
 2001TIP3   OH227417   1.003   2.362  16.049  0.2997 -0.0145 -0.7166
 2001TIP3    H127418   0.993   2.434  16.110 -1.3253 -2.0263  1.4616
 2001TIP3    H227419   1.059   2.299  16.094 -0.9496 -1.5497 -1.2537
 2002TIP3   OH227420   1.665   3.769   1.067 -0.7041 -0.3393  0.2226
 2002TIP3    H127421   1.632   3.856   1.088 -2.0063 -0.6868 -0.3629
 2002TIP3    H227422   1.603   3.734   1.004  0.7537 -1.0348 -0.8573
 2003TIP3   OH227423   3.743   1.372   3.162  0.0562 -0.4631 -0.8981
 2003TIP3    H127424   3.794   1.292   3.177 -0.6932 -0.8891 -0.6183
 2003TIP3    H227425   3.718   1.400   3.250  0.2564  0.0462 -1.0011
 2004TIP3   OH227426   0.110   0.079  12.719  0.4260  0.3485  0.4325
 2004TIP3    H127427   0.064   0.088  12.802 -0.0150  2.3893  0.0073
 2004TIP3    H227428   0.171   0.006  12.733 -0.7473 -0.3593  2.0097
 2005TIP3   OH227429   1.851   4.621   2.863  0.6977 -0.0839 -0.1894
 2005TIP3    H127430   1.856   4.570   2.943  0.2525  1.9744  1.2105
 2005TIP3    H227431   1.798   4.569   2.803  0.2648 -1.2328  1.1882
 2006TIP3   OH227432   4.170   1.393   6.545 -0.0084 -0.6148 -0.9616
 2006TIP3    H127433   4.257   1.357   6.528  0.1574 -1.0637  0.8035
 2006TIP3    H227434   4.146   1.359   6.631 -1.2974  0.7231 -0.7772
 2007TIP3   OH227435   3.927   4.271   1.866  0.2785 -0.0682 -0.6092
 2007TIP3    H127436   3.896   4.340   1.925  2.3773 -1.6804  2.5125
 2007TIP3    H227437   3.939   4.315   1.782 -3.5369  2.1379 -0.1213
 2008TIP3   OH227438   5.970   1.389   4.787 -0.3538 -0.4678  0.1429
 2008TIP3    H127439   5.919   1.393   4.705 -0.7196  1.0072  0.4214
 2008TIP3    H227440   6.058   1.365   4.759 -0.4205  0.2344 -0.7333
 2009TIP3   OH227441   1.051   6.027   2.204  0.4825 -0.4648  0.1379
 2009TIP3    H127442   0.965   5.987   2.218  0.5907 -0.9483 -0.5230
 2009TIP3    H227443   1.033   6.119   2.190 -0.1215 -0.8634 -1.8863
 2010TIP3   OH227444   0.624   2.744  12.892 -0.1096 -0.6481  0.2028
 2010TIP3    H127445   0.602   2.651  12.887  2.4415 -1.2699 -0.2485
 2010TIP3    H227446   0.713   2.746  12.926 -0.0606  1.6365  0.0582
 2011TIP3   OH227447   0.597   1.904  11.582 -0.2815 -0.3777 -0.1583
 2011TIP3    H127448   0.677   1.934  11.539  0.4938  1.2336  2.3096
 2011TIP3    H227449   0.526   1.946  11.534  0.5110  0.3877 -0.6610
 2012TIP3   OH227450   4.925   4.038   0.671  0.2331  0.0857  0.3277
 2012TIP3    H127451   4.888   4.019   0.585 -0.2373  0.2339  0.5008
 2012TIP3    H227452   4.952   3.952   0.704 -0.2649 -0.0659  0.3471
 2013TIP3   OH227453   4.436   3.324   0.117  0.3951 -0.9114 -0.1275
 2013TIP3    H127454   4.482   3.400   0.081 -1.1686  0.4443  0.6981
 2013TIP3    H227455   4.460   3.322   0.209  1.0698 -1.9172 -0.3102
 2014TIP3   OH227456   5.539   5.863  15.989 -0.2556  0.2466  0.2252
 2014TIP3    H127457   5.593   5.878  16.067  0.8197 -1.8728 -0.0475
 2014TIP3    H227458   5.466   5.809  16.021  0.2191 -0.6745 -0.2338
 2015TIP3   OH227459   6.108   6.214  13.730  0.1706  0.0687  0.0493
 2015TIP3    H127460   6.083   6.149  13.664  0.2663  1.9156 -1.8630
 2015TIP3    H227461   6.201   6.197  13.746  0.0855 -0.5641 -0.0973
 2016TIP3   OH227462   1.716   4.765  12.835 -0.1240  0.0870 -0.1715
 2016TIP3    H127463   1.709   4.692  12.897 -2.5906 -0.3439 -0.8818
 2016TIP3    H227464   1.794   4.812  12.862 -0.3286 -0.9348  2.3583
 2017TIP3   OH227465   2.224   1.992  14.989 -0.2357 -0.6203 -0.6506
 2017TIP3    H127466   2.233   2.045  15.068 -1.6515  1.3787 -1.7886
 2017TIP3    H227467   2.172   1.917  15.017 -0.4596 -0.0902  0.3825
 2018TIP3   OH227468   0.588   1.969   0.790 -0.8611 -0.2382 -0.2260
 2018TIP3    H127469   0.669   2.011   0.817 -0.3981 -1.3528  0.1710
 2018TIP3    H227470   0.520   2.009   0.844 -0.2951 -0.6916  0.8332
 2019TIP3   OH227471   4.605   3.891   6.391  0.4548 -0.5189 -0.2640
 2019TIP3    H127472   4.698   3.905   6.373  0.1737  0.6494 -0.8444
 2019TIP3    H227473   4.601   3.869   6.484  1.2960 -0.4816 -0.2198
 2020TIP3   OH227474   0.278   4.812   3.649  0.0455  0.1252  0.2213
 2020TIP3    H127475   0.253   4.845   3.563  0.2918 -2.1212 -0.7396
 2020TIP3    H227476   0.197   4.814   3.701 -0.7586 -1.3047 -0.9705
 2021TIP3   OH227477   1.468   4.143   3.833 -0.8547 -0.7592 -0.4823
 2021TIP3    H127478   1.413   4.193   3.773 -0.4901 -0.3447 -0.4774
 2021TIP3    H227479   1.430   4.055   3.834 -0.8386 -0.7756 -1.3482
 2022TIP3   OH227480   0.497   2.383  14.753  0.1452 -0.0734  0.1857
 2022TIP3    H127481   0.570   2.446  14.754  0.3294 -0.2997  1.0568
 2022TIP3    H227482   0.517   2.323  14.825 -0.8965 -0.1460  0.4120
 2023TIP3   OH227483   1.269   3.090  15.131 -0.0936  0.5914 -0.2549
 2023TIP3    H127484   1.205   3.019  15.146  0.2594 -0.0361 -1.6524
 2023TIP3    H227485   1.307   3.106  15.217 -2.3265  1.1578  0.6508
 2024TIP3   OH227486   0.348   3.034   4.893 -0.7040  0.5461  0.4049
 2024TIP3    H127487   0.417   2.975   4.922  0.0519  1.4509  0.4979
 2024TIP3    H227488   0.367   3.049   4.800  0.2869  2.1814  0.8429
 2025TIP3   OH227489   1.574   0.744  11.045 -0.1710  0.2107  0.2575
 2025TIP3    H127490   1.650   0.686  11.044 -0.1540  0.2368 -1.7172
 2025TIP3    H227491   1.610   0.831  11.032 -0.5180  0.2437 -0.5005
 2026TIP3   OH227492   1.294   4.543  16.496  0.4082  0.6181  0.0904
 2026TIP3    H127493   1.214   4.496  16.521  0.3685  0.7880  0.2769
 2026TIP3    H227494   1.265   4.633  16.481  0.6357  0.7675  0.5437
 2027TIP3   OH227495   5.479   2.678  12.134 -0.0320  0.4370 -0.3450
 2027TIP3    H127496   5.395   2.633  12.145  0.4007  0.1968  2.2426
 2027TIP3    H227497   5.520   2.635  12.058 -0.4310 -2.3218  0.9512
 2028TIP3   OH227498   1.652   3.392   0.348  0.0839  0.4507  0.1324
 2028TIP3    H127499   1.586   3.420   0.412  0.7340  0.1830  0.9246
 2028TIP3    H227500   1.601   3.367   0.271 -0.5353  3.7440 -0.5839
 2029TIP3   OH227501   5.581   3.998   3.011  0.4674  0.0234 -0.2956
 2029TIP3    H127502   5.543   4.069   3.063 -1.7233 -1.6251  0.4220
 2029TIP3    H227503   5.656   3.969   3.062 -0.0726  0.2184  0.6334
 2030TIP3   OH227504   0.443   0.522  16.691  0.0942 -0.1288  0.0274
 2030TIP3    H127505   0.428   0.595  16.631 -0.6654 -0.7631 -0.5753
 2030TIP3    H227506   0.363   0.517  16.743 -0.6329 -1.6875 -1.1993
 2031TIP3   OH227507   1.203   4.402   0.196 -0.1910 -0.4536  0.0548
 2031TIP3    H127508   1.253   4.480   0.173 -0.2616 -0.0290  1.3063
 2031TIP3    H227509   1.244   4.369   0.275 -0.5327 -1.3551 -0.1325
 2032TIP3   OH227510   0.258   3.951   1.587  0.0811 -0.3902 -0.3948
 2032TIP3    H127511   0.342   3.998   1.587  0.1314 -0.4820 -0.2421
 2032TIP3    H227512   0.277   3.869   1.542 -0.2976  0.2620 -1.7749
 2033TIP3   OH227513   2.160   0.417  15.246 -0.5126  0.0465  0.1147
 2033TIP3    H127514   2.147   0.362  15.169 -1.5768  0.5759 -0.0968
 2033TIP3    H227515   2.208   0.493  15.214 -1.1512  0.3738 -0.0838
 2034TIP3   OH227516   4.255   0.140  16.373 -0.3982 -0.2842  0.4347
 2034TIP3    H127517   4.244   0.227  16.412  1.2079 -0.2002  0.7608
 2034TIP3    H227518   4.171   0.097  16.387 -0.6137  0.5684  1.9687
 2035TIP3   OH227519   1.472   5.197  14.912 -0.5062  0.2036 -0.5601
 2035TIP3    H127520   1.499   5.105  14.905 -2.7087 -0.6064  1.1850
 2035TIP3    H227521   1.547   5.246  14.878  1.0321 -2.1916 -0.7568
 2036TIP3   OH227522   2.654   0.087  16.132  0.2454 -0.0254 -0.2157
 2036TIP3    H127523   2.618   0.176  16.124 -1.1641 -0.7172 -2.0646
 2036TIP3    H227524   2.612   0.051  16.210 -0.0174  0.5600 -0.0859
 2037TIP3   OH227525   0.260   3.866   3.777 -0.6786  0.5304  0.3616
 2037TIP3    H127526   0.278   3.875   3.683 -0.1457  0.2884  0.4391
 2037TIP3    H227527   0.339   3.899   3.819 -0.7703  0.2907  0.7198
 2038TIP3   OH227528   3.667   5.079   5.809 -0.3691  0.3742 -0.1638
 2038TIP3    H127529   3.651   5.091   5.715 -0.8085  1.7808  0.0745
 2038TIP3    H227530   3.660   4.985   5.822  1.0745  0.0097 -1.7872
 2039TIP3   OH227531   5.311   1.452  13.904  0.2696  0.1773 -0.9051
 2039TIP3    H127532   5.231   1.446  13.956  1.3326 -0.4274  0.7002
 2039TIP3    H227533   5.319   1.368  13.860  0.5218 -0.1140 -0.3063
 2040TIP3   OH227534   1.004   3.753  13.555 -0.3938  0.2557  0.2320
 2040TIP3    H127535   0.998   3.701  13.474 -1.2229  0.7270 -0.0173
 2040TIP3    H227536   0.942   3.825  13.542  2.9970  3.1570 -0.7601
 2041TIP3   OH227537   0.023   1.066   0.814  0.1914 -0.4969 -0.5138
 2041TIP3    H127538   0.089   1.067   0.883 -2.0434 -2.6827  1.7243
 2041TIP3    H227539   0.007   0.974   0.796 -2.2709 -0.0142 -1.0017
 2042TIP3   OH227540   1.532   0.909   0.207 -0.0595  0.6847  0.8543
 2042TIP3    H127541   1.507   0.832   0.258 -1.3526  0.3866 -0.1730
 2042TIP3    H227542   1.600   0.877   0.148 -0.4089  0.3898  0.6079
 2043TIP3   OH227543   0.889   0.839   1.680  0.2877  0.3643  0.3841
 2043TIP3    H127544   0.941   0.767   1.644  0.1592  0.9250 -0.9287
 2043TIP3    H227545   0.801   0.801   1.692  0.0987  0.4275 -0.7534
 2044TIP3   OH227546   0.214   0.751   2.019  0.2527  0.6749  0.3854
 2044TIP3    H127547   0.289   0.723   2.071  1.2993  1.4530 -0.6615
 2044TIP3    H227548   0.204   0.683   1.953  0.6579  1.0470 -0.0673
 2045TIP3   OH227549   0.348   0.729   2.727  0.0773 -0.5616 -0.3309
 2045TIP3    H127550   0.337   0.822   2.745  0.4511 -0.4738 -0.5468
 2045TIP3    H227551   0.431   0.723   2.679 -0.3702 -0.9129 -1.0600
 2046TIP3   OH227552   5.399   6.094   1.567 -0.2858  0.6430 -0.3117
 2046TIP3    H127553   5.313   6.071   1.532 -0.6460  2.5835 -0.7460
 2046TIP3    H227554   5.392   6.075   1.661 -1.2780  1.0172 -0.2964
 2047TIP3   OH227555   1.089   1.954   5.775 -0.2967 -0.1923  0.5530
 2047TIP3    H127556   1.031   1.978   5.702 -1.2699 -0.9242  1.0746
 2047TIP3    H227557   1.136   2.034   5.796  0.5982 -0.1606 -1.4266
 2048TIP3   OH227558   0.043   6.206  14.719 -0.0714  0.1513 -0.3195
 2048TIP3    H127559  -0.030   6.216  14.780  1.2026  0.5519  1.1538
 2048TIP3    H227560   0.033   6.117  14.685 -0.3432 -0.3563  1.0687
 2049TIP3   OH227561   4.219   0.652   1.958  0.5953  0.0233 -0.1522
 2049TIP3    H127562   4.131   0.687   1.943  1.5144  1.3626 -2.8542
 2049TIP3    H227563   4.223   0.634   2.052 -0.9788  4.3907  0.8407
 2050TIP3   OH227564   5.676   2.064  12.773 -0.5367  0.4294 -0.0104
 2050TIP3    H127565   5.625   2.135  12.812 -0.5519  0.4476 -0.0638
 2050TIP3    H227566   5.635   1.984  12.808  1.1481  0.4817  2.2054
 2051TIP3   OH227567   3.352   3.358  15.498  0.0508 -0.2491 -0.0122
 2051TIP3    H127568   3.267   3.315  15.501 -0.2505  0.2383 -1.1951
 2051TIP3    H227569   3.333   3.451  15.510  0.4981 -0.2187  0.4982
 2052TIP3   OH227570   2.825   0.580  13.166  0.0568  0.0699 -0.2411
 2052TIP3    H127571   2.906   0.590  13.117  0.7246 -0.3219  0.7577
 2052TIP3    H227572   2.830   0.646  13.235 -1.1931  1.0921 -1.1095
 2053TIP3   OH227573   4.322   5.413   1.673 -0.0232  0.3683  0.8335
 2053TIP3    H127574   4.381   5.460   1.614 -3.1949  2.5972 -0.7439
 2053TIP3    H227575   4.327   5.322   1.644  0.6360  0.9760 -1.0213
 2054TIP3   OH227576   0.249   6.389   4.744  0.0776  0.4715  0.5194
 2054TIP3    H127577   0.291   6.306   4.769  0.9921  0.6742 -0.3279
 2054TIP3    H227578   0.246   6.387   4.649  0.2775  1.4925  0.4851
 2055TIP3   OH227579   5.846   2.954   1.395  0.3738 -0.5785  0.4623
 2055TIP3    H127580   5.848   2.861   1.370 -0.4120 -1.3376  3.0685
 2055TIP3    H227581   5.900   2.959   1.474 -2.4412  0.4636  2.4222
 2056TIP3   OH227582   2.732   2.919   3.991 -0.1182  0.4087  0.7271
 2056TIP3    H127583   2.816   2.897   3.952 -0.2012 -1.9933  1.8158
 2056TIP3    H227584   2.667   2.889   3.927 -0.1813  0.2268  0.8756
 2057TIP3   OH227585   1.564   0.173   4.614  0.5620  0.2203 -0.0130
 2057TIP3    H127586   1.522   0.247   4.569  0.4804  0.1609 -0.0343
 2057TIP3    H227587   1.651   0.206   4.638  1.5824 -0.5768 -2.4630
 2058TIP3   OH227588   3.746   6.742   1.538  0.3983 -0.0515  0.2413
 2058TIP3    H127589   3.804   6.694   1.480 -0.2381  0.1161 -0.5423
 2058TIP3    H227590   3.804   6.802   1.586  1.0781 -1.0202  0.6409
 2059TIP3   OH227591   0.076   3.841  16.509  0.4708 -0.1807 -0.2177
 2059TIP3    H127592   0.139   3.772  16.488  1.6777  1.4635 -2.1681
 2059TIP3    H227593   0.051   3.878  16.425 -1.7861  0.3747  0.6638
 2060TIP3   OH227594   0.945   4.682  13.127 -0.5098 -0.1849  0.4545
 2060TIP3    H127595   0.997   4.724  13.196 -2.4027 -1.2034  2.5492
 2060TIP3    H227596   0.858   4.722  13.135 -0.6183  0.1059 -1.7630
 2061TIP3   OH227597   1.481   6.096  15.408 -0.2796  0.2127 -0.4637
 2061TIP3    H127598   1.402   6.046  15.429  1.2074 -2.8726 -1.9303
 2061TIP3    H227599   1.486   6.164  15.476 -3.8081  0.0787  0.0112
 2062TIP3   OH227600   2.230   4.440  16.516  0.2191  0.0007  0.1787
 2062TIP3    H127601   2.258   4.471  16.602 -1.3276  3.3939 -0.4476
 2062TIP3    H227602   2.136   4.426  16.526  0.4717 -2.0390 -0.2857
 2063TIP3   OH227603   3.657   0.468   5.022 -0.2283  0.4770 -0.2947
 2063TIP3    H127604   3.739   0.516   5.021 -0.3765  0.7317 -1.8150
 2063TIP3    H227605   3.590   0.534   5.041 -0.1413  0.3699  0.3869
 2064TIP3   OH227606   1.578   2.761  11.603 -0.1870 -0.7169 -0.4375
 2064TIP3    H127607   1.523   2.820  11.550  0.3700  0.2964  0.0998
 2064TIP3    H227608   1.542   2.674  11.587 -1.7383 -0.0975 -0.3481
 2065TIP3   OH227609   0.671   1.957  12.660  0.1352  0.9925  0.2847
 2065TIP3    H127610   0.737   2.008  12.613 -1.2797  1.3350 -1.3848
 2065TIP3    H227611   0.641   1.892  12.596 -0.4908  0.2480  1.3137
 2066TIP3   OH227612   2.923   4.421   2.843 -0.0977  0.2457 -0.3933
 2066TIP3    H127613   2.914   4.389   2.754  0.1522  1.9705 -1.0577
 2066TIP3    H227614   2.834   4.430   2.875 -0.1860 -0.4206 -0.4449
 2067TIP3   OH227615   2.269   6.247  12.278  0.2088  0.4934 -0.3339
 2067TIP3    H127616   2.323   6.305  12.226  1.0119  0.2299  0.1902
 2067TIP3    H227617   2.291   6.269  12.369 -0.4456  0.2718 -0.1177
 2068TIP3   OH227618   0.983   5.683  12.131  0.1520 -0.7747 -0.2618
 2068TIP3    H127619   0.950   5.695  12.042 -2.5473  2.8797  1.1439
 2068TIP3    H227620   1.077   5.667  12.120 -0.5216 -2.6311 -3.8411
 2069TIP3   OH227621   3.991   1.901   2.510  0.1781  0.4274  0.1299
 2069TIP3    H127622   4.067   1.870   2.462 -0.9238 -0.5594 -1.0082
 2069TIP3    H227623   3.919   1.895   2.448 -0.5342  2.9460  0.6616
 2070TIP3   OH227624   0.895   0.512  13.413  0.2381  0.6064 -0.1693
 2070TIP3    H127625   0.890   0.543  13.323 -2.7966  4.3392  1.1373
 2070TIP3    H227626   0.976   0.549  13.447  0.2754  1.0772 -0.7585
 2071TIP3   OH227627   0.389   6.067  16.349 -0.0420 -0.5212  0.4975
 2071TIP3    H127628   0.299   6.089  16.374  0.5133  2.5215  0.0513
 2071TIP3    H227629   0.384   6.046  16.256 -0.1048  1.0622  0.1276
 2072TIP3   OH227630   6.219   2.056  14.405 -0.0456 -0.5365  0.4024
 2072TIP3    H127631   6.314   2.070  14.414 -0.2281  0.5069  0.7716
 2072TIP3    H227632   6.188   2.131  14.354 -0.3248 -2.1024 -1.7897
 2073TIP3   OH227633   6.734   2.486   5.918  0.3679  0.1820 -0.1857
 2073TIP3    H127634   6.762   2.451   5.833  0.0233  0.6368 -0.4931
 2073TIP3    H227635   6.686   2.566   5.896 -0.3259 -0.0710  0.3924
 2074TIP3   OH227636   1.220   0.347  13.705  0.1925 -0.7538 -0.6858
 2074TIP3    H127637   1.196   0.279  13.643 -0.6418 -1.4672  0.3884
 2074TIP3    H227638   1.315   0.338  13.714  0.3256 -0.6103 -1.8804
 2075TIP3   OH227639   2.258   6.413   1.807 -0.1305 -0.3037 -0.1740
 2075TIP3    H127640   2.341   6.386   1.846 -0.9436  0.4884  2.2289
 2075TIP3    H227641   2.245   6.353   1.734  1.5198 -1.8249  0.7319
 2076TIP3   OH227642   3.678   6.343  12.143  0.3207 -0.5087  1.0530
 2076TIP3    H127643   3.682   6.254  12.110 -3.3442 -1.0132  1.6791
 2076TIP3    H227644   3.680   6.398  12.065 -1.5051 -1.3768  0.3638
 2077TIP3   OH227645   2.187   2.405  12.739 -0.6783  0.0346 -0.5272
 2077TIP3    H127646   2.273   2.447  12.745 -1.1197  0.7354  1.1650
 2077TIP3    H227647   2.199   2.320  12.782 -0.6527 -0.1902 -0.9697
 2078TIP3   OH227648   4.815   4.687   5.671 -0.6288  0.2946  0.2788
 2078TIP3    H127649   4.790   4.778   5.683 -0.2177  0.4641 -0.1670
 2078TIP3    H227650   4.733   4.642   5.650 -1.0720  0.3096  1.9170
 2079TIP3   OH227651   5.164   3.770   5.948 -0.3704 -0.1671  0.2781
 2079TIP3    H127652   5.199   3.682   5.966  0.5929  0.5304  1.8843
 2079TIP3    H227653   5.118   3.794   6.028 -1.0394  0.6094 -0.3360
 2080TIP3   OH227654   2.453   5.998  12.664  0.5891 -0.0052  0.4162
 2080TIP3    H127655   2.458   5.962  12.576 -0.0141 -0.3250  0.5082
 2080TIP3    H227656   2.544   6.002  12.694  0.8823  1.1730 -0.6320
 2081TIP3   OH227657   1.621   0.057  13.270  0.6341 -0.0800  0.0136
 2081TIP3    H127658   1.624   0.010  13.353  0.4438  0.2979  0.2344
 2081TIP3    H227659   1.624   0.150  13.295  0.7995  0.0288 -0.4095
 2082TIP3   OH227660   3.395   5.666  15.206  0.1599  0.4176  0.5105
 2082TIP3    H127661   3.427   5.724  15.136 -0.6820  0.4892  0.1804
 2082TIP3    H227662   3.331   5.720  15.254  0.0834  0.0748  0.7930
 2083TIP3   OH227663   2.354   0.412  15.621 -0.4989 -0.3328 -0.1915
 2083TIP3    H127664   2.339   0.495  15.665 -0.3574 -1.0491  1.2371
 2083TIP3    H227665   2.432   0.425  15.569 -0.2261  0.2971  0.3789
 2084TIP3   OH227666   6.444   4.514   1.121  0.2292 -0.0698  0.1131
 2084TIP3    H127667   6.511   4.445   1.122 -0.1090 -0.4122  1.9828
 2084TIP3    H227668   6.365   4.470   1.090  0.5645  0.0238 -0.8745
 2085TIP3   OH227669   2.920   0.358  14.910  0.8511 -0.7458 -0.0051
 2085TIP3    H127670   2.841   0.406  14.885  1.7888  1.8306  1.8122
 2085TIP3    H227671   2.904   0.329  14.999  2.0891  0.1208  0.5123
 2086TIP3   OH227672   0.677   0.748  16.011 -0.0217 -0.2462  0.4706
 2086TIP3    H127673   0.673   0.791  15.925  2.9107 -0.2537  0.2861
 2086TIP3    H227674   0.602   0.688  16.011 -0.2230 -0.0591 -1.9818
 2087TIP3   OH227675   0.803   3.108   1.626  0.2710  0.2433  0.1801
 2087TIP3    H127676   0.777   3.145   1.710 -0.3080 -0.2635  0.2301
 2087TIP3    H227677   0.738   3.040   1.608 -0.1634  0.9703 -1.1333
 2088TIP3   OH227678   5.357   5.140   3.033  0.2550 -0.0911  0.2092
 2088TIP3    H127679   5.291   5.200   3.068  2.1396  2.1524  0.1023
 2088TIP3    H227680   5.337   5.136   2.939 -0.1743  0.0247  0.2943
 2089TIP3   OH227681   0.118   4.771  12.986  0.5357 -0.4206 -0.5852
 2089TIP3    H127682   0.101   4.704  13.052  0.3412  2.2338  2.1764
 2089TIP3    H227683   0.041   4.769  12.929 -0.9164 -0.4401  1.3368
 2090TIP3   OH227684   3.553   4.598   0.383 -0.1975 -0.1941  0.0342
 2090TIP3    H127685   3.594   4.623   0.301 -0.1825  0.5130  0.2548
 2090TIP3    H227686   3.525   4.507   0.370  2.2232 -1.0014  0.1787
 2091TIP3   OH227687   5.231   6.736  14.907  0.1875 -0.1258 -0.6930
 2091TIP3    H127688   5.149   6.718  14.953 -1.1174 -1.7702 -3.5155
 2091TIP3    H227689   5.206   6.796  14.836  1.1663 -1.5375 -2.2651
 2092TIP3   OH227690   3.965   5.738   2.598 -0.0422 -0.0887 -0.4137
 2092TIP3    H127691   3.925   5.708   2.516 -0.6541  1.1701 -0.5779
 2092TIP3    H227692   3.912   5.697   2.667  1.5775 -2.6468 -0.5977
 2093TIP3   OH227693   5.339   2.042   0.317 -0.2472 -0.4574  0.2194
 2093TIP3    H127694   5.375   1.970   0.369 -0.9235 -1.0558 -0.1398
 2093TIP3    H227695   5.407   2.110   0.321  0.0476 -0.7963  1.2275
 2094TIP3   OH227696   3.233   2.829  11.738  0.3065 -0.4407  0.3070
 2094TIP3    H127697   3.201   2.810  11.650 -0.3935 -1.5258  0.7743
 2094TIP3    H227698   3.193   2.913  11.761 -0.5088 -0.7548  0.0632
 2095TIP3   OH227699   3.679   4.691  12.649 -0.6509  0.1739  0.3572
 2095TIP3    H127700   3.735   4.613  12.643  0.8075  1.1609  0.8702
 2095TIP3    H227701   3.636   4.684  12.734 -0.6172 -0.1415  0.3481
 2096TIP3   OH227702   5.152   6.421   3.475 -0.3727 -0.5720 -0.0169
 2096TIP3    H127703   5.130   6.510   3.448  1.2599 -0.4232 -0.9600
 2096TIP3    H227704   5.185   6.431   3.565 -1.3789 -0.4179  0.3437
 2097TIP3   OH227705   5.374   4.720   0.939  0.1236 -0.0680  0.1393
 2097TIP3    H127706   5.465   4.693   0.926  0.4909  0.5721  1.3377
 2097TIP3    H227707   5.342   4.663   1.010 -0.5190 -0.5124 -0.4946
 2098TIP3   OH227708   4.672   1.726   4.158  0.1862  0.3410 -0.4463
 2098TIP3    H127709   4.610   1.676   4.212  2.7117 -0.6956  1.6311
 2098TIP3    H227710   4.651   1.817   4.176 -0.8606  0.0073  0.0680
 2099TIP3   OH227711   1.220   1.541   1.104 -0.8931 -0.1944  0.5076
 2099TIP3    H127712   1.129   1.514   1.117 -1.0372  0.1286  0.1869
 2099TIP3    H227713   1.229   1.622   1.154 -0.9021  0.0040  0.1885
 2100TIP3   OH227714   6.078   5.004  12.562  0.6003  0.6760 -0.5565
 2100TIP3    H127715   6.129   4.982  12.640  1.9788 -0.5864 -1.7860
 2100TIP3    H227716   6.100   5.096  12.546  0.0276  1.0544  0.7365
 2101TIP3   OH227717   6.620   1.264  16.122 -0.6688 -0.0595  0.0266
 2101TIP3    H127718   6.586   1.213  16.049 -0.8958  0.3550 -0.1570
 2101TIP3    H227719   6.636   1.199  16.191  0.1306 -0.5349 -0.5980
 2102TIP3   OH227720   5.759   5.202   2.115 -0.2143 -0.0013 -0.3162
 2102TIP3    H127721   5.770   5.115   2.152  0.2547 -1.2945 -3.3356
 2102TIP3    H227722   5.708   5.250   2.181  1.5654 -1.7794  2.4327
 2103TIP3   OH227723   4.746   1.092  16.975  0.0938 -0.0764 -0.0620
 2103TIP3    H127724   4.651   1.087  16.978  0.2022 -1.5643  1.2308
 2103TIP3    H227725   4.773   1.098  17.066  1.2662  0.0203 -0.4011
 2104TIP3   OH227726   2.118   4.964   1.546 -0.1367  0.1210 -0.8692
 2104TIP3    H127727   2.050   5.008   1.597  0.2041  1.2414 -1.3739
 2104TIP3    H227728   2.090   4.973   1.455 -0.8641 -2.0748 -0.8850
 2105TIP3   OH227729   1.260   5.884  12.178  0.7748 -0.5285 -0.5081
 2105TIP3    H127730   1.291   5.970  12.151 -0.6481  0.3967  0.6948
 2105TIP3    H227731   1.220   5.899  12.264 -0.4248 -2.1782 -0.7503
 2106TIP3   OH227732   6.007   4.782  12.378 -0.3727  0.3476  0.2951
 2106TIP3    H127733   6.084   4.725  12.378  0.0709  0.9301 -0.1200
 2106TIP3    H227734   6.028   4.849  12.443 -0.1742  0.9639 -0.3935
 2107TIP3   OH227735   3.177   1.330  16.798  0.0414  0.2955  0.2998
 2107TIP3    H127736   3.196   1.419  16.769 -0.6070  0.4757  0.4179
 2107TIP3    H227737   3.181   1.277  16.718  2.2054  0.1281  0.5009
 2108TIP3   OH227738   0.665   5.123  11.832  0.3444  0.5413  0.2232
 2108TIP3    H127739   0.713   5.097  11.911  0.4040  1.4174  0.4887
 2108TIP3    H227740   0.731   5.120  11.762  0.2604 -0.3622  0.1767
 2109TIP3   OH227741   4.597   3.231   4.343 -0.1994  0.4331  0.4869
 2109TIP3    H127742   4.603   3.136   4.333 -0.9677  0.6028 -1.8374
 2109TIP3    H227743   4.509   3.252   4.313 -0.0803  1.8759  1.1294
 2110TIP3   OH227744   5.576   1.504  14.159  0.0253  0.0731 -0.0351
 2110TIP3    H127745   5.633   1.532  14.231  1.0743 -2.2069  0.0905
 2110TIP3    H227746   5.494   1.481  14.202  0.8846 -1.9859  0.5998
 2111TIP3   OH227747   5.619   5.946  13.641 -0.7630 -0.0821  0.0992
 2111TIP3    H127748   5.564   5.927  13.717  0.8613  0.7092  1.5114
 2111TIP3    H227749   5.684   5.876  13.640 -0.8744 -0.1888 -0.6949
 2112TIP3   OH227750   4.025   3.107  15.371 -0.1202  0.6288  0.7975
 2112TIP3    H127751   3.990   3.186  15.330  0.6814  0.1611 -0.8282
 2112TIP3    H227752   4.001   3.036  15.311  1.6994  0.0234  0.7542
 2113TIP3   OH227753   6.221   6.178  13.005 -0.0543 -0.3325  0.1279
 2113TIP3    H127754   6.156   6.248  12.993 -0.9825 -1.1563  0.2838
 2113TIP3    H227755   6.170   6.102  13.030  1.0673 -0.7936  1.0527
 2114TIP3   OH227756   0.594   3.092   4.397  0.6090 -0.3290 -0.1312
 2114TIP3    H127757   0.674   3.128   4.437  0.7702 -0.6590 -0.1589
 2114TIP3    H227758   0.601   2.998   4.410  0.3913 -0.3883 -0.4494
 2115TIP3   OH227759   5.287   0.061   0.292  0.2156 -0.1049  0.3659
 2115TIP3    H127760   5.319   0.104   0.213  1.3858 -1.1104  0.2819
 2115TIP3    H227761   5.301  -0.033   0.276 -0.6903 -0.4103  1.2552
 2116TIP3   OH227762   0.918   1.978   3.548 -0.1704 -0.6156  0.3143
 2116TIP3    H127763   0.924   1.943   3.459  1.8096 -0.9520  0.5538
 2116TIP3    H227764   0.968   2.059   3.545  0.5957 -1.0490  1.3261
 2117TIP3   OH227765   4.494   6.461   0.028 -0.0445  0.3447 -0.4123
 2117TIP3    H127766   4.571   6.518   0.019  1.2222 -0.9492  1.8743
 2117TIP3    H227767   4.455   6.486   0.112 -0.8111 -0.6012 -0.4775
 2118TIP3   OH227768   5.202   6.046   1.128  0.3518  0.0957 -0.0239
 2118TIP3    H127769   5.295   6.023   1.123  0.3936  0.0924  0.8183
 2118TIP3    H227770   5.172   6.039   1.037  0.6675 -2.0148  0.0058
 2119TIP3   OH227771   0.109   1.837  14.184  0.0438  0.3559  0.0679
 2119TIP3    H127772   0.034   1.893  14.204  0.4295  0.3685  1.5005
 2119TIP3    H227773   0.150   1.820  14.269  1.7836  0.5149 -0.7152
 2120TIP3   OH227774   0.145   4.460  10.536 -0.4535 -0.6075 -0.0731
 2120TIP3    H127775   0.115   4.451  10.446  1.4673 -1.8873 -0.6084
 2120TIP3    H227776   0.238   4.482  10.528  0.0981 -2.2269  1.6054
 2121TIP3   OH227777   0.838   5.881  13.690  0.0939  0.0216 -0.4581
 2121TIP3    H127778   0.918   5.910  13.734 -0.1849 -1.4731  1.0608
 2121TIP3    H227779   0.773   5.947  13.715  1.1182  2.0063 -2.7959
 2122TIP3   OH227780   4.438   2.215  12.101 -0.0924 -0.0108  0.0264
 2122TIP3    H127781   4.513   2.237  12.156  0.0326  0.6343 -0.4014
 2122TIP3    H227782   4.476   2.185  12.019 -0.3061  0.5977 -0.2975
 2123TIP3   OH227783   6.119   6.091  12.204  0.0741 -0.6930 -0.2501
 2123TIP3    H127784   6.078   6.151  12.141 -0.9576 -1.7007 -0.5380
 2123TIP3    H227785   6.154   6.020  12.150  1.8823 -0.0468  0.0250
 2124TIP3   OH227786   6.014   4.591   4.229 -0.8040 -0.3143  0.3791
 2124TIP3    H127787   6.080   4.656   4.255 -1.2120  1.0444 -1.8623
 2124TIP3    H227788   6.053   4.546   4.155 -1.5132 -1.0122  0.4308
 2125TIP3   OH227789   1.924   3.428  15.993 -0.2621  0.6366 -0.0377
 2125TIP3    H127790   2.008   3.455  16.030 -0.3357  0.4241  0.2842
 2125TIP3    H227791   1.858   3.464  16.053 -0.4380  1.5834 -0.7821
 2126TIP3   OH227792   1.465   4.649   3.735  0.0987 -0.0757 -0.0723
 2126TIP3    H127793   1.552   4.637   3.695 -0.5506  0.1857 -1.5997
 2126TIP3    H227794   1.420   4.566   3.719 -1.0399  0.9004 -2.1390
 2127TIP3   OH227795   0.756   3.533   4.250 -0.6827 -0.1400 -0.1648
 2127TIP3    H127796   0.788   3.493   4.169  2.5552  0.6276  0.6593
 2127TIP3    H227797   0.760   3.463   4.315  0.9910  0.3497  0.3044
 2128TIP3   OH227798   4.818   2.926  14.114  0.0251 -0.2736  0.7832
 2128TIP3    H127799   4.760   2.983  14.164 -0.3751 -0.7180  0.8295
 2128TIP3    H227800   4.782   2.925  14.026 -0.9131 -1.7356  1.1706
 2129TIP3   OH227801   1.320   3.055   0.272 -0.2920  0.4084 -0.3580
 2129TIP3    H127802   1.271   3.133   0.245  1.1004  1.0382 -1.1090
 2129TIP3    H227803   1.330   3.065   0.366 -1.7523  0.1768 -0.1613
 2130TIP3   OH227804   3.890   0.830   2.291  0.3732 -0.4805 -0.2216
 2130TIP3    H127805   3.948   0.893   2.334  1.2718 -2.0549  0.9320
 2130TIP3    H227806   3.802   0.861   2.309  0.7268 -1.0487  2.7040
 2131TIP3   OH227807   0.803   6.174   3.435 -0.8505 -0.7177  0.2237
 2131TIP3    H127808   0.740   6.106   3.462 -1.2164 -0.6063 -0.3496
 2131TIP3    H227809   0.785   6.247   3.494 -0.2781 -1.2052  1.0209
 2132TIP3   OH227810   2.777   4.070   3.216 -0.0307 -0.8082  0.3584
 2132TIP3    H127811   2.778   4.111   3.302  0.6726 -0.6348  0.2720
 2132TIP3    H227812   2.730   4.132   3.160  0.8836 -0.1847  0.2681
 2133TIP3   OH227813   4.386   3.382   4.651 -0.4008  0.2651 -0.4079
 2133TIP3    H127814   4.453   3.334   4.698  0.2887  2.2909  0.7494
 2133TIP3    H227815   4.327   3.315   4.617  1.8323 -1.5004 -0.9005
 2134TIP3   OH227816   3.630   6.425   3.671 -0.0020 -0.1577  0.0825
 2134TIP3    H127817   3.557   6.371   3.639  0.6790 -1.8672  1.2894
 2134TIP3    H227818   3.648   6.390   3.758  0.1265  2.4150  1.1238
 2135TIP3   OH227819   3.978   1.056  12.344  0.2298 -0.6279  0.1374
 2135TIP3    H127820   3.934   1.036  12.262 -0.3818 -1.7444  0.7199
 2135TIP3    H227821   3.908   1.054  12.409  0.9456 -1.2890  0.9078
 2136TIP3   OH227822   5.945   6.211  14.085  0.3134  0.4523 -0.3345
 2136TIP3    H127823   5.875   6.274  14.104 -0.3302  0.0934 -1.5142
 2136TIP3    H227824   6.018   6.266  14.055  0.8470  0.8990  1.6733
 2137TIP3   OH227825   2.743   2.976   2.660  0.4921  0.1723  0.6129
 2137TIP3    H127826   2.767   3.063   2.628  0.1353 -0.5493 -1.7604
 2137TIP3    H227827   2.711   2.931   2.582 -2.2408 -1.0889  2.3892
 2138TIP3   OH227828   5.666   4.128  13.434 -0.2324  0.4204 -0.4179
 2138TIP3    H127829   5.591   4.138  13.375 -0.6714  0.9727  0.2284
 2138TIP3    H227830   5.678   4.214  13.473  0.8610  0.3831 -0.6579
 2139TIP3   OH227831   0.586   2.801   4.551 -0.0590 -0.9852 -0.2257
 2139TIP3    H127832   0.539   2.743   4.490  0.5028 -0.5974 -1.0325
 2139TIP3    H227833   0.542   2.788   4.635 -0.3095 -2.1606 -0.5255
 2140TIP3   OH227834   6.209   0.932   0.507 -0.6315 -0.1832  0.1294
 2140TIP3    H127835   6.252   1.017   0.519  1.5185 -0.9202 -1.8523
 2140TIP3    H227836   6.235   0.880   0.583  0.8832 -0.1629 -0.3614
 2141TIP3   OH227837   1.560   3.712   1.870  0.2384  0.2712 -0.1691
 2141TIP3    H127838   1.479   3.738   1.826 -0.1302 -0.3320  0.1392
 2141TIP3    H227839   1.583   3.628   1.830  1.2703  0.9213 -0.9675
 2142TIP3   OH227840   3.642   3.367   5.321  0.2497 -0.2274  0.1325
 2142TIP3    H127841   3.587   3.301   5.362 -2.4101  1.3650 -0.7314
 2142TIP3    H227842   3.612   3.450   5.357  1.2568  0.7948 -1.3091
 2143TIP3   OH227843   4.570   2.848  11.073 -0.0612 -0.3484  0.2924
 2143TIP3    H127844   4.561   2.768  11.020 -0.9655 -0.7352  1.0264
 2143TIP3    H227845   4.539   2.918  11.016  1.9753 -0.3122 -0.8460
 2144TIP3   OH227846   0.021   3.603   1.387  0.3493 -0.4492  0.3090
 2144TIP3    H127847  -0.072   3.610   1.407  0.2168 -0.1609 -0.3700
 2144TIP3    H227848   0.025   3.612   1.291  1.2505  1.4480  0.4990
 2145TIP3   OH227849   5.696   6.023   4.878 -0.2457 -0.3991 -0.0659
 2145TIP3    H127850   5.733   5.939   4.852  0.2197 -0.1980 -0.0671
 2145TIP3    H227851   5.628   6.041   4.813  0.3684 -0.2749 -0.6855
 2146TIP3   OH227852   2.140   6.252   5.120  0.0688 -0.1225 -0.5946
 2146TIP3    H127853   2.086   6.184   5.080 -0.3052 -0.1537 -0.0473
 2146TIP3    H227854   2.229   6.217   5.118 -0.1770 -0.7934  0.0310
 2147TIP3   OH227855   0.894   2.517  15.804 -0.3793  0.4213  0.0148
 2147TIP3    H127856   0.894   2.530  15.709 -1.1658 -1.7537 -0.3299
 2147TIP3    H227857   0.852   2.595  15.840 -0.9360  0.8321 -1.4954
 2148TIP3   OH227858   2.132   1.821   0.843  0.2579  0.8021  0.1272
 2148TIP3    H127859   2.211   1.768   0.839  2.8536  4.3478  1.2886
 2148TIP3    H227860   2.082   1.786   0.916  0.2357 -2.1028 -1.2341
 2149TIP3   OH227861   0.361   5.439  11.800  0.4265  0.6935  0.0176
 2149TIP3    H127862   0.414   5.518  11.789  0.8936  0.5642  1.2180
 2149TIP3    H227863   0.393   5.380  11.732  0.3912  1.3624 -0.5950
 2150TIP3   OH227864   6.315   6.223  11.677 -0.2147  0.7077 -0.0745
 2150TIP3    H127865   6.333   6.247  11.587  0.2403  1.3647  0.1854
 2150TIP3    H227866   6.389   6.258  11.727 -0.8975  1.1415  0.6623
 2151TIP3   OH227867   6.456   6.004   4.278 -0.0288  0.3638  0.2211
 2151TIP3    H127868   6.376   5.987   4.228 -0.6438 -1.6673  1.8022
 2151TIP3    H227869   6.510   5.927   4.263  1.0448  1.0974  0.2916
 2152TIP3   OH227870   2.761   4.490  12.974 -0.0903  0.2335 -0.2662
 2152TIP3    H127871   2.781   4.457  12.886 -0.1024  0.7673 -0.4774
 2152TIP3    H227872   2.766   4.414  13.031  0.1085 -0.0830 -0.7052
 2153TIP3   OH227873   4.250   3.414  16.418  0.1369  0.1969  0.1803
 2153TIP3    H127874   4.297   3.377  16.492  0.1120 -0.5656 -0.1783
 2153TIP3    H227875   4.180   3.465  16.457 -0.5627 -1.1123  0.6778
 2154TIP3   OH227876   0.698   2.625   6.045 -0.2592 -0.1544  0.3316
 2154TIP3    H127877   0.771   2.620   6.107  0.2686  1.3743 -0.1310
 2154TIP3    H227878   0.724   2.568   5.973  0.2195 -0.0846  0.4448
 2155TIP3   OH227879   3.727   6.373  16.291  0.3124  0.0590  0.1516
 2155TIP3    H127880   3.806   6.335  16.253  0.5452  1.0785 -0.4013
 2155TIP3    H227881   3.740   6.367  16.386  0.8654 -0.1565  0.0658
 2156TIP3   OH227882   6.193   4.033  14.250  0.4415  0.6465  0.0041
 2156TIP3    H127883   6.143   3.952  14.262  2.7027 -0.7527  0.2260
 2156TIP3    H227884   6.242   4.020  14.169  1.2916  1.5316  0.3650
 2157TIP3   OH227885   6.145   1.412  16.152 -0.1329 -0.2153  0.0597
 2157TIP3    H127886   6.078   1.385  16.088 -0.3970  0.5960 -0.0151
 2157TIP3    H227887   6.221   1.435  16.099  0.1025 -0.8517  0.1279
 2158TIP3   OH227888   0.784   5.572   1.221  0.2438  0.4947 -0.0641
 2158TIP3    H127889   0.706   5.588   1.274 -0.5538 -1.0129 -0.7810
 2158TIP3    H227890   0.776   5.481   1.192  1.2182  0.9671 -1.8890
 2159TIP3   OH227891   0.547   1.189  12.314  0.0857  0.1566  0.2110
 2159TIP3    H127892   0.453   1.196  12.301  0.3625  2.0793 -1.0359
 2159TIP3    H227893   0.560   1.102  12.352 -1.9884 -0.9224 -1.4114
 2160TIP3   OH227894   3.290   5.368  13.085 -0.3021 -0.0094  0.3635
 2160TIP3    H127895   3.365   5.422  13.060 -0.3737  0.0027  0.1756
 2160TIP3    H227896   3.318   5.324  13.166 -0.3048  0.4326  0.6039
 2161TIP3   OH227897   0.010   4.159  13.658  0.3261 -0.3104 -0.7157
 2161TIP3    H127898   0.102   4.187  13.655  0.2656 -0.2462 -1.9264
 2161TIP3    H227899  -0.030   4.218  13.722  0.6618  1.0370 -1.7220
 2162TIP3   OH227900   5.551   4.211  16.097 -0.2146 -0.2712  0.1173
 2162TIP3    H127901   5.632   4.248  16.061 -0.6937  2.4688  1.7033
 2162TIP3    H227902   5.573   4.119  16.115  1.5460 -0.3907 -2.3807
 2163TIP3   OH227903   3.649   5.683  14.905  0.3045 -0.2113 -0.3798
 2163TIP3    H127904   3.641   5.595  14.942  1.2052  0.1382  0.6756
 2163TIP3    H227905   3.581   5.734  14.950  1.0719  0.0945  0.4442
 2164TIP3   OH227906   2.071   1.671  12.323 -0.1878  0.1670  0.7111
 2164TIP3    H127907   2.009   1.717  12.266  0.4977 -0.8325 -0.8886
 2164TIP3    H227908   2.027   1.588  12.343  0.4453 -0.3821 -0.1182
 2165TIP3   OH227909   1.301   2.734  12.283  0.1509  0.6431 -0.5179
 2165TIP3    H127910   1.233   2.687  12.235  0.7057 -3.0570  2.1338
 2165TIP3    H227911   1.383   2.709  12.240  0.3982 -0.2867  0.4973
 2166TIP3   OH227912   1.242   2.415  10.766 -0.2537 -0.4379  0.7087
 2166TIP3    H127913   1.252   2.486  10.829 -0.0064  1.2348 -1.1723
 2166TIP3    H227914   1.179   2.355  10.806 -1.2847  1.3878  1.8572
 2167TIP3   OH227915   3.211   5.249  12.113  0.1688 -0.1302  0.6585
 2167TIP3    H127916   3.243   5.262  12.023  0.9036  0.9954  1.0626
 2167TIP3    H227917   3.216   5.155  12.127 -1.2214 -0.4706 -0.9353
 2168TIP3   OH227918   5.452   0.497   3.530 -0.1189  0.2757 -1.2396
 2168TIP3    H127919   5.373   0.498   3.583  1.1533 -0.5731  0.7484
 2168TIP3    H227920   5.471   0.590   3.514 -0.1996  0.5834  0.3281
 2169TIP3   OH227921   2.909   5.477  13.722  0.1814  0.3774  0.5905
 2169TIP3    H127922   2.988   5.518  13.757 -0.2136 -1.1824  3.4286
 2169TIP3    H227923   2.865   5.440  13.798 -3.0012  0.6870 -1.0182
 2170TIP3   OH227924   2.232   4.549   6.652  0.4471 -0.0353 -0.2948
 2170TIP3    H127925   2.236   4.506   6.567  0.5653 -0.1782 -0.2173
 2170TIP3    H227926   2.299   4.618   6.648 -0.0690  0.4577 -0.5911
 2171TIP3   OH227927   6.465   3.502  13.374  0.0637  0.3328 -0.0952
 2171TIP3    H127928   6.377   3.505  13.337  0.1070  0.2574 -0.2034
 2171TIP3    H227929   6.492   3.594  13.379  0.0103  0.3503 -0.1342
 2172TIP3   OH227930   0.906   1.073   0.841 -0.1647  0.1978  0.0949
 2172TIP3    H127931   0.878   1.146   0.896  0.6062  0.1853  0.4998
 2172TIP3    H227932   0.871   0.995   0.885  0.2442  0.2074  0.4343
 2173TIP3   OH227933   4.906   5.108   0.198  0.5922 -0.4852  0.7203
 2173TIP3    H127934   4.992   5.088   0.161  0.9244  0.4057  0.9777
 2173TIP3    H227935   4.879   5.187   0.151 -0.1629 -0.8649  0.5227
 2174TIP3   OH227936   5.659   0.787   0.496  0.2260 -0.3108 -0.5444
 2174TIP3    H127937   5.745   0.829   0.485  1.1250 -2.1252 -0.5691
 2174TIP3    H227938   5.641   0.793   0.590  1.3814 -1.8237 -0.2131
 2175TIP3   OH227939   4.303   0.586   5.625 -0.2218  0.4285  0.1507
 2175TIP3    H127940   4.341   0.606   5.539  0.1567 -1.9036 -0.2686
 2175TIP3    H227941   4.284   0.671   5.663  1.9344  1.5773 -1.2115
 2176TIP3   OH227942   1.155   0.381   2.475  0.1630 -0.3764  0.4531
 2176TIP3    H127943   1.183   0.333   2.552  0.2655 -0.3406  0.4382
 2176TIP3    H227944   1.100   0.452   2.509  1.5053  0.6006  0.6222
 2177TIP3   OH227945   2.683   0.483  14.821  0.0515 -0.2439  0.3020
 2177TIP3    H127946   2.661   0.570  14.857 -0.5803 -0.2993  0.0557
 2177TIP3    H227947   2.598   0.445  14.797  0.4276 -0.4475 -0.7076
 2178TIP3   OH227948   5.460   2.123  15.803 -0.0435  0.1484  0.1895
 2178TIP3    H127949   5.517   2.137  15.728  1.0694 -1.3364  0.7134
 2178TIP3    H227950   5.474   2.199  15.860  1.2136 -0.0656  0.1753
 2179TIP3   OH227951   4.077   1.716   4.650  0.2978  0.0214  0.1419
 2179TIP3    H127952   4.049   1.750   4.566 -0.5361 -1.4334 -0.1966
 2179TIP3    H227953   4.172   1.726   4.651  0.4043 -0.7573 -1.3455
 2180TIP3   OH227954   3.388   6.036  12.875  0.0514  0.4300  0.5332
 2180TIP3    H127955   3.481   6.057  12.884 -0.1779  1.4672  0.5471
 2180TIP3    H227956   3.382   5.944  12.901  0.5161  1.3264  4.1062
 2181TIP3   OH227957   4.163   1.359   5.232 -0.3505 -0.9308  0.4231
 2181TIP3    H127958   4.221   1.433   5.254  0.5365 -1.0365 -1.4147
 2181TIP3    H227959   4.076   1.399   5.223  0.2511  0.0594 -1.2976
 2182TIP3   OH227960   4.239   1.424  13.295  0.4755 -0.6813  0.3153
 2182TIP3    H127961   4.264   1.351  13.239  1.5648 -0.8816  1.0527
 2182TIP3    H227962   4.283   1.500  13.256 -1.0239 -0.3217 -0.7176
 2183TIP3   OH227963   2.379   3.001   4.057 -0.1434  0.7195  0.5311
 2183TIP3    H127964   2.444   3.068   4.037  0.0066 -0.1214 -1.8985
 2183TIP3    H227965   2.301   3.028   4.009 -0.5949  0.0090  0.8556
 2184TIP3   OH227966   5.699   1.592  12.725 -0.2509  0.0370 -0.1026
 2184TIP3    H127967   5.762   1.629  12.786 -0.6074  0.3605  0.0685
 2184TIP3    H227968   5.711   1.642  12.644  0.6850 -0.8328 -0.5140
 2185TIP3   OH227969   2.734   1.033  11.580  0.1259  0.0537  0.0138
 2185TIP3    H127970   2.788   1.108  11.603 -0.1248 -0.0026  0.8073
 2185TIP3    H227971   2.669   1.068  11.518  0.5788  0.2871 -0.3273
 2186TIP3   OH227972   1.032   0.863   4.127 -0.0228 -0.6771  0.3157
 2186TIP3    H127973   1.112   0.906   4.098  0.1051 -0.6883  0.6444
 2186TIP3    H227974   1.010   0.803   4.056  1.5084 -2.3183  1.1893
 2187TIP3   OH227975   0.452   6.077  12.110  0.1235  0.0097  0.6557
 2187TIP3    H127976   0.525   6.045  12.057 -0.9325 -1.0748 -0.1650
 2187TIP3    H227977   0.406   6.140  12.054 -0.4988 -0.5025  0.5840
 2188TIP3   OH227978   4.108   0.764  15.797  0.2295 -0.1567  0.1700
 2188TIP3    H127979   4.120   0.769  15.702 -0.2173  1.8221  0.1952
 2188TIP3    H227980   4.030   0.710  15.809 -1.8899  2.5706 -0.7846
 2189TIP3   OH227981   1.686   5.490   1.110 -0.1036  0.3441 -0.4533
 2189TIP3    H127982   1.723   5.504   1.023  1.5744  0.4866  0.2599
 2189TIP3    H227983   1.612   5.432   1.096  1.6118 -1.6094 -1.6947
 2190TIP3   OH227984   2.467   0.975   3.020  0.4962  0.1385 -0.3874
 2190TIP3    H127985   2.495   1.017   3.102  0.0825 -1.0580  0.3858
 2190TIP3    H227986   2.417   0.899   3.049  0.5069 -0.3948 -1.7711
 2191TIP3   OH227987   4.228   5.814  13.076 -0.4553  0.7987  0.1789
 2191TIP3    H127988   4.151   5.843  13.028 -1.7675  1.3591  2.5464
 2191TIP3    H227989   4.193   5.772  13.155  1.5139 -3.2682 -0.9583
 2192TIP3   OH227990   2.133   2.564   4.874 -0.2917 -0.4621 -0.2557
 2192TIP3    H127991   2.164   2.538   4.788  1.4429  0.5061  0.0600
 2192TIP3    H227992   2.067   2.632   4.856 -0.1008 -0.4272 -0.8206
 2193TIP3   OH227993   6.002   0.956  11.615  0.8495 -0.1943 -0.1902
 2193TIP3    H127994   6.060   1.024  11.580  0.4419 -0.7229 -1.9637
 2193TIP3    H227995   5.996   0.975  11.708  0.2353  2.5833 -0.7683
 2194TIP3   OH227996   1.817   0.667   1.699  0.0635 -0.3810 -0.2784
 2194TIP3    H127997   1.880   0.738   1.688  0.0214 -0.3188 -0.1189
 2194TIP3    H227998   1.776   0.657   1.613 -0.4004  0.2340 -0.1314
 2195TIP3   OH227999   6.082   3.786   3.655 -0.2529  0.1333 -0.0333
 2195TIP3    H128000   6.044   3.838   3.726 -0.7914  0.3468 -0.4683
 2195TIP3    H228001   6.175   3.806   3.657 -0.3839  0.7233  0.1279
 2196TIP3   OH228002   3.582   6.628   4.349 -0.1001  0.2521  0.7415
 2196TIP3    H128003   3.612   6.566   4.415  0.9814 -1.2801 -1.1305
 2196TIP3    H228004   3.553   6.705   4.399  1.0895 -0.6897  2.9387
 2197TIP3   OH228005   6.710   5.939  10.707  0.2932 -0.0832  0.4034
 2197TIP3    H128006   6.658   5.874  10.755 -1.8035 -0.0458 -1.7169
 2197TIP3    H228007   6.675   6.023  10.735  0.1183 -0.0150 -0.0133
 2198TIP3   OH228008   3.917   1.559   5.905  0.3637  0.0697 -0.5345
 2198TIP3    H128009   3.836   1.581   5.859  1.9087  2.7560 -2.1518
 2198TIP3    H228010   3.954   1.644   5.928  1.4905 -1.1687  2.4427
 2199TIP3   OH228011   6.568   6.504   2.302  0.0719  0.0963 -0.1337
 2199TIP3    H128012   6.565   6.425   2.356  1.1753  0.6447  0.7339
 2199TIP3    H228013   6.590   6.574   2.363 -0.1368  0.9554 -1.0409
 2200TIP3   OH228014   0.331   2.056  12.303  0.0485  0.3036 -0.3755
 2200TIP3    H128015   0.423   2.028  12.307  1.0826  2.8876 -3.6916
 2200TIP3    H228016   0.294   2.005  12.232 -0.2025  1.4977 -1.1181
 2201TIP3   OH228017   3.626   2.085   2.368  0.2580  0.0064  0.4233
 2201TIP3    H128018   3.641   2.134   2.287  0.2639  0.4650  0.7075
 2201TIP3    H228019   3.691   2.014   2.364 -1.8072 -1.8833 -1.5150
 2202TIP3   OH228020   1.712   0.596   3.898  0.4423 -0.2213 -0.0912
 2202TIP3    H128021   1.655   0.633   3.966  0.3649 -0.3982 -0.0612
 2202TIP3    H228022   1.676   0.509   3.881  0.7747 -0.3800  0.0142
 2203TIP3   OH228023   0.418   3.488   5.786 -0.0945 -0.0382 -0.3214
 2203TIP3    H128024   0.493   3.519   5.837 -1.9352  2.2013  1.0851
 2203TIP3    H228025   0.369   3.433   5.847 -0.7069  0.2051 -0.5886
 2204TIP3   OH228026   0.056   6.222   5.014 -0.7048  0.5961 -0.4005
 2204TIP3    H128027  -0.024   6.231   4.962 -0.8477  1.1010 -0.0977
 2204TIP3    H228028   0.084   6.131   5.000 -1.6637  0.2337 -0.0378
 2205TIP3   OH228029   0.683   3.705  14.530 -0.0368  0.0948  0.5645
 2205TIP3    H128030   0.632   3.632  14.566  0.3941 -0.3192  0.3427
 2205TIP3    H228031   0.635   3.783  14.556 -1.8688 -0.3691 -1.3024
 2206TIP3   OH228032   3.367   4.057   1.250 -0.3278 -0.1953  0.4269
 2206TIP3    H128033   3.306   4.114   1.204 -1.1059 -0.3174  1.3009
 2206TIP3    H228034   3.312   3.990   1.291  0.5149 -1.1831 -0.0284
 2207TIP3   OH228035   3.059   2.056  11.186  0.0091  0.3031  0.4330
 2207TIP3    H128036   2.968   2.056  11.216  0.2134 -0.9316  1.0661
 2207TIP3    H228037   3.097   1.976  11.222  1.7435  1.5051  1.3458
 2208TIP3   OH228038   0.349   6.095   4.852 -0.1842 -0.2275  0.3125
 2208TIP3    H128039   0.440   6.120   4.868 -0.8408  1.4234  1.6782
 2208TIP3    H228040   0.340   6.010   4.895  0.4543  0.0763  1.0597
 2209TIP3   OH228041   0.454   4.823   5.996 -0.4250 -0.0512 -0.0902
 2209TIP3    H128042   0.390   4.758   5.966 -0.9521 -0.6421  2.1718
 2209TIP3    H228043   0.402   4.902   6.011 -0.3628 -0.0649  0.2146
 2210TIP3   OH228044   3.936   0.115   2.637 -0.6311  0.1067  0.2236
 2210TIP3    H128045   3.980   0.169   2.571 -1.3218  0.7227  0.2641
 2210TIP3    H228046   3.843   0.121   2.615 -0.8171 -0.1207  0.9354
 2211TIP3   OH228047   1.983   1.276   0.751 -0.0613 -0.2419  0.1993
 2211TIP3    H128048   2.027   1.233   0.677  0.6477 -1.6216  1.3911
 2211TIP3    H228049   2.054   1.306   0.807 -0.5558  2.3389 -0.4802
 2212TIP3   OH228050   3.625   0.488  11.689 -0.5041  0.1216 -0.3949
 2212TIP3    H128051   3.713   0.450  11.695 -0.1506  0.9455 -0.2813
 2212TIP3    H228052   3.595   0.492  11.779  0.0596  1.4768 -0.2461
 2213TIP3   OH228053   3.224   0.855  15.367  0.4046  0.3765  0.4855
 2213TIP3    H128054   3.286   0.906  15.419  1.2539  0.1853 -0.3249
 2213TIP3    H228055   3.277   0.814  15.299 -0.5093 -0.3345  0.1795
 2214TIP3   OH228056   6.270   3.324   2.706  0.0691 -0.1814 -0.1823
 2214TIP3    H128057   6.228   3.304   2.789  1.3546  0.7495  0.7119
 2214TIP3    H228058   6.315   3.244   2.681  0.0936 -0.3093  0.2722
 2215TIP3   OH228059   5.471   3.987  14.683  0.0115 -0.1440 -0.3370
 2215TIP3    H128060   5.461   3.892  14.689 -0.9925  0.0679  2.1633
 2215TIP3    H228061   5.564   4.002  14.702  0.4210 -0.6961 -1.8902
 2216TIP3   OH228062   5.539   3.629  11.948  0.3999 -0.1648  0.0009
 2216TIP3    H128063   5.508   3.541  11.927  1.0523 -0.7073  1.2068
 2216TIP3    H228064   5.613   3.643  11.889 -0.3669 -0.0035 -0.9227
 2217TIP3   OH228065   4.774   6.559  11.982 -0.1685  0.2874 -0.5471
 2217TIP3    H128066   4.717   6.565  11.905  0.6189  0.5999 -1.1136
 2217TIP3    H228067   4.812   6.646  11.990  2.7104 -0.7432 -2.1253
 2218TIP3   OH228068   1.861   4.395   1.839 -0.3507  0.1250  0.0454
 2218TIP3    H128069   1.776   4.428   1.811 -0.4092 -0.6886 -0.7645
 2218TIP3    H228070   1.925   4.453   1.797 -0.4344 -1.2270 -1.9837
 2219TIP3   OH228071   2.457   6.129   0.572 -0.1266 -0.2888  0.4298
 2219TIP3    H128072   2.407   6.202   0.536 -1.4748 -1.0428  0.7537
 2219TIP3    H228073   2.499   6.165   0.650 -0.9281  0.0926  0.6878
 2220TIP3   OH228074   4.061   2.178  16.230  0.4701 -0.2127  0.4021
 2220TIP3    H128075   3.994   2.241  16.202  0.0759  0.8810  3.6271
 2220TIP3    H228076   4.143   2.227  16.224  0.1393  0.7848  3.1270
 2221TIP3   OH228077   0.486   5.897   1.956  0.3675  0.0223  0.4772
 2221TIP3    H128078   0.561   5.917   2.012  2.0010  0.9125 -1.9688
 2221TIP3    H228079   0.413   5.888   2.017  1.4774  3.9335  2.5458
 2222TIP3   OH228080   0.859   2.238  12.173 -0.4685 -0.4773  0.2848
 2222TIP3    H128081   0.918   2.163  12.171 -0.5834 -0.5588 -0.1487
 2222TIP3    H228082   0.893   2.297  12.105  0.3399  0.4097  1.4551
 2223TIP3   OH228083   2.485   4.292  12.265  0.6691 -0.6074  0.4263
 2223TIP3    H128084   2.551   4.328  12.324  1.2608  0.6616 -0.9725
 2223TIP3    H228085   2.463   4.365  12.207 -2.0474 -0.9773  0.9386
 2224TIP3   OH228086   0.028   0.931  15.858 -0.3019  0.0754  0.1648
 2224TIP3    H128087   0.050   0.845  15.892  0.6450 -0.5360 -1.9080
 2224TIP3    H228088   0.089   0.991  15.900  0.2305 -0.5228  0.2459
 2225TIP3   OH228089   6.761   2.685  14.495 -0.4912  0.2870  0.2446
 2225TIP3    H128090   6.770   2.654  14.585  2.1729  0.2226 -0.0094
 2225TIP3    H228091   6.841   2.655  14.451 -1.6023  0.6025 -2.0554
 2226TIP3   OH228092   1.720   2.301  14.504 -0.3367 -0.3536 -0.1438
 2226TIP3    H128093   1.728   2.208  14.485 -1.4695  0.0330 -2.7409
 2226TIP3    H228094   1.772   2.343  14.435  1.0384  0.9287  1.6130
 2227TIP3   OH228095   5.397   4.828  16.816 -0.3750  0.2024  0.0132
 2227TIP3    H128096   5.347   4.763  16.865  0.5529  0.0420  0.7529
 2227TIP3    H228097   5.331   4.883  16.775 -1.1601  0.0789  1.0991
 2228TIP3   OH228098   4.107   4.838  11.705  0.8036 -0.1878  0.2150
 2228TIP3    H128099   4.113   4.745  11.687 -0.9116 -0.1371 -0.7220
 2228TIP3    H228100   4.087   4.843  11.799  0.2193 -0.7986  0.1272
 2229TIP3   OH228101   4.227   1.663   0.762 -0.2595 -0.8614 -0.1133
 2229TIP3    H128102   4.261   1.730   0.821 -1.9713 -0.0558 -0.0129
 2229TIP3    H228103   4.300   1.644   0.703  0.0193  1.6256 -0.6324
 2230TIP3   OH228104   3.725   2.108  16.023 -0.0831 -0.0931 -0.2255
 2230TIP3    H128105   3.659   2.145  16.082  1.2600  1.6886  0.2056
 2230TIP3    H228106   3.808   2.138  16.059  1.1284 -3.8941  0.3512
 2231TIP3   OH228107   1.909   0.017  12.795  0.2439 -0.3404 -0.0716
 2231TIP3    H128108   1.997   0.053  12.786  0.9576 -1.8921  0.5908
 2231TIP3    H228109   1.882   0.042  12.883 -1.0185  2.3222 -1.1462
 2232TIP3   OH228110   0.294   0.425   0.053 -0.0155 -0.6624  0.2321
 2232TIP3    H128111   0.341   0.393  -0.024 -2.2084 -0.6747 -1.1325
 2232TIP3    H228112   0.299   0.352   0.115  0.3477 -1.2857 -0.5099
 2233TIP3   OH228113   3.045   4.779   2.437 -0.5655  0.3760 -0.3244
 2233TIP3    H128114   3.098   4.823   2.503 -1.3528  1.1177 -0.1769
 2233TIP3    H228115   3.098   4.705   2.409  0.2971  0.7720  0.2452
 2234TIP3   OH228116   2.373   0.792   4.354 -0.3269 -0.0618 -0.0521
 2234TIP3    H128117   2.443   0.783   4.419 -1.1857 -0.8572  0.7690
 2234TIP3    H228118   2.348   0.884   4.359  0.7930  0.2754 -0.4911
 2235TIP3   OH228119   1.767   3.119  13.652 -0.1449 -0.2700 -0.0130
 2235TIP3    H128120   1.693   3.090  13.597  2.3731 -2.4281 -2.4459
 2235TIP3    H228121   1.745   3.089  13.740 -2.6072 -0.0057 -0.5135
 2236TIP3   OH228122   3.088   4.381  12.584 -0.0698  0.1073 -0.1996
 2236TIP3    H128123   3.102   4.308  12.643 -0.9665 -0.5771 -0.8174
 2236TIP3    H228124   3.168   4.433  12.590 -0.2417  0.1730  1.7799
 2237TIP3   OH228125   2.006   3.414   0.381  0.1624 -0.0700 -0.0175
 2237TIP3    H128126   1.926   3.456   0.350  0.2810  1.2637  1.4347
 2237TIP3    H228127   1.999   3.324   0.349 -2.3867 -0.2517  0.9400
 2238TIP3   OH228128   1.745   4.289  12.167 -0.1146 -0.1974  0.1523
 2238TIP3    H128129   1.681   4.224  12.140  0.0588 -0.5408  0.5567
 2238TIP3    H228130   1.705   4.373  12.145 -1.9822 -0.2568  3.0610
 2239TIP3   OH228131   1.052   0.396   2.763 -0.3814 -0.1775  0.1530
 2239TIP3    H128132   1.136   0.401   2.809 -1.3659  0.0229  1.9596
 2239TIP3    H228133   1.003   0.329   2.811 -1.5186  0.2068 -0.4646
 2240TIP3   OH228134   3.168   4.913  16.445  0.1809 -0.3945  0.3484
 2240TIP3    H128135   3.242   4.960  16.406 -0.6733  0.8691  0.2118
 2240TIP3    H228136   3.093   4.937  16.391 -0.7794  0.2926  1.9445
 2241TIP3   OH228137   1.322   3.713  15.766  0.0414  0.4291 -0.0833
 2241TIP3    H128138   1.299   3.635  15.817 -0.8898  1.0964  0.5284
 2241TIP3    H228139   1.318   3.684  15.675 -0.0679 -0.2985  0.1487
 2242TIP3   OH228140   6.276   4.663   0.749  0.7511 -0.3641 -0.4858
 2242TIP3    H128141   6.353   4.675   0.804 -0.5788  0.3012  1.2862
 2242TIP3    H228142   6.270   4.569   0.734  0.9211 -0.5840  0.8252
 2243TIP3   OH228143   5.626   6.777   0.858 -0.0213  0.2080  0.5157
 2243TIP3    H128144   5.583   6.862   0.848  0.6041  0.4507 -0.1091
 2243TIP3    H228145   5.641   6.747   0.769  0.0349 -0.4196  0.7349
 2244TIP3   OH228146   6.306   1.629  12.292  0.3462  0.5251 -0.5437
 2244TIP3    H128147   6.263   1.656  12.374  2.0768  2.0505 -0.0991
 2244TIP3    H228148   6.352   1.548  12.315  1.1665  1.1707  0.1213
 2245TIP3   OH228149   6.574   6.309  16.000  0.2263 -0.3320 -0.1431
 2245TIP3    H128150   6.531   6.290  16.083 -1.7771  1.1900 -0.7982
 2245TIP3    H228151   6.624   6.229  15.980 -0.6851 -1.3703  1.6324
 2246TIP3   OH228152   3.584   0.351   5.836 -0.0397 -0.2488 -0.5321
 2246TIP3    H128153   3.616   0.418   5.896 -0.4015 -1.5460  1.1608
 2246TIP3    H228154   3.542   0.401   5.765  0.2316  1.3181  0.3734
 2247TIP3   OH228155   6.455   6.578   3.602  0.2569  0.1119 -0.1429
 2247TIP3    H128156   6.483   6.491   3.630  0.2075 -1.1199 -3.6801
 2247TIP3    H228157   6.361   6.580   3.620  0.5265  0.0671  1.3768
 2248TIP3   OH228158   2.937   0.048   3.669  0.5624 -0.0176  0.2165
 2248TIP3    H128159   2.859   0.028   3.722  0.4454  0.6683  0.3103
 2248TIP3    H228160   2.925   0.139   3.642 -0.4550 -1.0213 -2.8553
 2249TIP3   OH228161   5.533   5.682   1.840 -0.1232  0.5200 -0.3022
 2249TIP3    H128162   5.455   5.658   1.790 -0.1447  1.2563 -0.6349
 2249TIP3    H228163   5.583   5.739   1.781  0.8060 -0.1736 -0.1974
 2250TIP3   OH228164   1.892   2.872   0.882 -0.0897  0.6294  0.5806
 2250TIP3    H128165   1.851   2.959   0.885  0.6504  0.9817  0.5554
 2250TIP3    H228166   1.921   2.855   0.971  1.1647  1.0891  0.2676
 2251TIP3   OH228167   0.450   2.952  11.427 -0.0757 -0.6619 -0.0548
 2251TIP3    H128168   0.523   2.890  11.428  0.1808 -0.3643 -0.3779
 2251TIP3    H228169   0.490   3.037  11.444 -0.1425 -0.2753 -1.8035
 2252TIP3   OH228170   2.025   0.294  13.679 -0.3939  0.0266 -0.1230
 2252TIP3    H128171   2.054   0.238  13.751  0.0133  0.5612  0.1254
 2252TIP3    H228172   2.026   0.236  13.603 -0.2512 -0.3804  0.1845
 2253TIP3   OH228173   1.983   1.085   2.589  0.3229 -0.2155  0.4254
 2253TIP3    H128174   2.041   1.012   2.611  1.1963  0.4898  0.5081
 2253TIP3    H228175   2.026   1.127   2.514 -0.7677 -0.4645 -0.3465
 2254TIP3   OH228176   4.201   4.520   3.775  1.0418 -0.1520  0.0289
 2254TIP3    H128177   4.189   4.564   3.691 -1.0870 -1.1899 -0.2493
 2254TIP3    H228178   4.116   4.482   3.795  2.1089 -1.8826  1.5397
 2255TIP3   OH228179   5.704   0.904  12.936  0.1668 -0.2583 -0.1495
 2255TIP3    H128180   5.746   0.869  12.859  1.0892 -0.6784  0.5376
 2255TIP3    H228181   5.624   0.851  12.947 -0.2048  0.1116 -1.0713
 2256TIP3   OH228182   3.853   1.558   0.446 -0.2547 -0.2734  0.2336
 2256TIP3    H128183   3.905   1.619   0.394  0.8573 -0.5995  0.9470
 2256TIP3    H228184   3.822   1.493   0.383 -0.4850  0.3772 -0.3332
 2257TIP3   OH228185   4.348   4.016  14.643 -0.8837 -0.0245 -0.4120
 2257TIP3    H128186   4.375   3.933  14.681 -2.0292  0.6111  1.8735
 2257TIP3    H228187   4.256   4.004  14.620 -1.8218  1.4284  2.4162
 2258TIP3   OH228188   5.018   4.619  13.563 -0.1394  0.1812 -0.0395
 2258TIP3    H128189   4.958   4.693  13.565 -0.2511  0.1686 -1.9804
 2258TIP3    H228190   5.067   4.625  13.645 -1.3095  1.4149  0.5804
 2259TIP3   OH228191   2.004   1.815   1.294  0.0668 -0.4370 -0.3355
 2259TIP3    H128192   1.939   1.883   1.279 -1.2565 -1.6522 -0.2513
 2259TIP3    H228193   2.087   1.855   1.269 -0.7848  0.9290 -1.0448
 2260TIP3   OH228194   0.217   4.021  12.298  0.3441 -0.8832 -0.2783
 2260TIP3    H128195   0.189   3.991  12.384 -0.6483  1.5471  0.2910
 2260TIP3    H228196   0.312   4.017  12.301  0.2755 -3.2490 -0.0100
 2261TIP3   OH228197   1.219   2.334   1.552  0.5135  0.5570 -0.2819
 2261TIP3    H128198   1.252   2.268   1.612  1.0466  2.2935  1.3778
 2261TIP3    H228199   1.126   2.314   1.543  0.6415 -0.3244  0.3074
 2262TIP3   OH228200   1.369   0.224   5.834 -0.4182  0.1904 -0.3759
 2262TIP3    H128201   1.342   0.228   5.926 -0.4263 -0.2837 -0.3531
 2262TIP3    H228202   1.402   0.311   5.815  0.0435  0.1537  0.2283
 2263TIP3   OH228203   4.450   5.362   1.955 -0.2443  0.5305 -0.5080
 2263TIP3    H128204   4.387   5.429   1.930  0.4378  0.9693 -1.0376
 2263TIP3    H228205   4.398   5.297   2.004 -0.8011  1.7179  0.5030
 2264TIP3   OH228206   4.021   1.275  12.725  0.1157  0.5899  0.1198
 2264TIP3    H128207   3.934   1.307  12.748  0.1187  0.9825 -0.4047
 2264TIP3    H228208   4.046   1.327  12.648  1.7435  2.0297  1.5958
 2265TIP3   OH228209   0.243   3.022   3.485 -0.0011 -0.0671 -0.5875
 2265TIP3    H128210   0.283   2.936   3.480 -0.2926 -0.1900 -0.7943
 2265TIP3    H228211   0.273   3.068   3.407  0.6012  0.2154 -0.2019
 2266TIP3   OH228212   5.318   3.059  15.138 -0.5549 -0.2793 -0.4257
 2266TIP3    H128213   5.232   3.031  15.108 -0.5932  0.1805 -0.7586
 2266TIP3    H228214   5.368   2.978  15.147 -0.8327 -0.4956 -0.8261
 2267TIP3   OH228215   1.199   4.278  13.614  0.5759  0.3485 -0.2724
 2267TIP3    H128216   1.189   4.185  13.595  1.9481  0.2941 -0.7784
 2267TIP3    H228217   1.151   4.291  13.696  1.1091 -0.9765  0.2676
 2268TIP3   OH228218   4.450   0.083  13.281  0.2889  0.2592 -0.4567
 2268TIP3    H128219   4.484   0.146  13.345 -1.3602  1.7347 -0.9948
 2268TIP3    H228220   4.487  -0.001  13.309  1.3901  1.2298  1.1146
 2269TIP3   OH228221   6.668   3.538   4.453 -0.1422 -0.2242 -0.3369
 2269TIP3    H128222   6.597   3.479   4.477 -0.1574 -0.3499 -0.6890
 2269TIP3    H228223   6.735   3.482   4.415  1.1286 -0.4168  2.0814
 2270TIP3   OH228224   4.713   5.419  11.483  0.3193  0.4354 -0.6901
 2270TIP3    H128225   4.705   5.513  11.503  0.1475  0.1412  0.6918
 2270TIP3    H228226   4.754   5.416  11.397 -1.6225  1.8176 -1.7160
 2271TIP3   OH228227   1.967   1.444   5.470  0.0846 -0.6725  0.6066
 2271TIP3    H128228   2.047   1.442   5.523  0.4967 -1.5716 -0.0525
 2271TIP3    H228229   1.896   1.441   5.534  0.5774 -0.9819  1.1393
 2272TIP3   OH228230   4.041   6.263  13.541 -0.5453 -0.8550 -0.1055
 2272TIP3    H128231   4.032   6.186  13.485  0.7031 -0.4139 -0.9475
 2272TIP3    H228232   4.111   6.240  13.602  1.3976  0.4062 -1.7903
 2273TIP3   OH228233   1.706   4.009  12.749 -0.2126  0.2260  0.5490
 2273TIP3    H128234   1.749   4.090  12.723  1.0959 -0.9388 -0.9669
 2273TIP3    H228235   1.773   3.942  12.741 -1.8438 -1.3610 -0.2644
 2274TIP3   OH228236   3.208   4.913  13.859  0.3780 -0.4609  0.4337
 2274TIP3    H128237   3.212   4.996  13.907 -0.3508  1.0109 -1.9670
 2274TIP3    H228238   3.299   4.895  13.836  0.3692  0.5962 -0.5017
 2275TIP3   OH228239   3.288   4.964  12.100 -0.2993  0.2852  0.2872
 2275TIP3    H128240   3.308   4.952  12.008 -2.5569  1.1604 -0.3622
 2275TIP3    H228241   3.237   4.887  12.124 -3.5096  2.0504 -0.4322
 2276TIP3   OH228242   3.021   3.532   0.133  0.9422  0.0558  0.5973
 2276TIP3    H128243   2.951   3.527   0.067  1.5497 -0.9781  0.0197
 2276TIP3    H228244   3.061   3.618   0.118  2.0033 -0.7424 -1.3660
 2277TIP3   OH228245   4.776   6.258   2.356  0.4636  0.6991  0.0532
 2277TIP3    H128246   4.707   6.301   2.407 -1.1902 -1.4158 -0.3290
 2277TIP3    H228247   4.800   6.181   2.408  0.1636 -0.3939 -1.4053
 2278TIP3   OH228248   2.498   4.846   5.062 -0.1546  0.6100  0.1039
 2278TIP3    H128249   2.575   4.837   5.118  0.5367 -1.7716 -1.1491
 2278TIP3    H228250   2.431   4.884   5.119  1.0051 -0.2097  2.0813
 2279TIP3   OH228251   2.069   3.640   1.107  0.1412 -0.5150 -0.4297
 2279TIP3    H128252   1.980   3.639   1.141  1.0058  1.5600  2.0290
 2279TIP3    H228253   2.064   3.696   1.029 -0.5784  0.1559  0.0867
 2280TIP3   OH228254   3.608   1.634  14.227  0.1155  0.0931 -0.3695
 2280TIP3    H128255   3.701   1.612  14.228  0.0424 -0.2522 -0.7547
 2280TIP3    H228256   3.587   1.657  14.318  0.4243 -0.4866 -0.1467
 2281TIP3   OH228257   1.155   0.606  12.391  0.1513 -0.1836  0.0999
 2281TIP3    H128258   1.133   0.556  12.312  0.5024 -0.9121  0.4521
 2281TIP3    H228259   1.155   0.697  12.363 -0.6974 -0.3685 -0.5124
 2282TIP3   OH228260   2.279   0.030  15.030 -0.5201  0.0805  0.1116
 2282TIP3    H128261   2.286  -0.027  14.953 -3.2885  0.3905 -0.4372
 2282TIP3    H228262   2.313  -0.022  15.102  0.0575 -1.0391 -0.9450
 2283TIP3   OH228263   2.965   4.214   1.861 -0.0136  0.5344  0.2418
 2283TIP3    H128264   2.918   4.148   1.811  0.3996  0.4574 -0.0448
 2283TIP3    H228265   3.048   4.172   1.885 -0.0744  0.6765  0.7226
 2284TIP3   OH228266   1.220   1.553   3.147  0.1534  0.0277  0.1624
 2284TIP3    H128267   1.154   1.616   3.118 -0.5201 -1.4685 -1.6427
 2284TIP3    H228268   1.195   1.533   3.237 -1.0505  0.5272 -0.0426
 2285TIP3   OH228269   3.689   1.491  15.556 -0.0986 -0.5969  0.6189
 2285TIP3    H128270   3.756   1.422  15.553 -0.1020 -0.6104  0.8335
 2285TIP3    H228271   3.661   1.501  15.465 -2.5860 -3.3507  1.0028
 2286TIP3   OH228272   1.045   4.224   5.026  0.0557  0.2900  0.1543
 2286TIP3    H128273   1.103   4.257   4.957  0.7507  0.6789  0.9098
 2286TIP3    H228274   0.957   4.239   4.993  0.3800  1.4026 -0.2262
 2287TIP3   OH228275   1.012   2.121  15.475  0.1924  0.4933 -0.0573
 2287TIP3    H128276   1.010   2.101  15.569  1.8298  0.1401 -0.0917
 2287TIP3    H228277   0.938   2.180  15.462 -0.9190 -0.5891  1.1966
 2288TIP3   OH228278   4.809   0.584   4.324  0.2621  0.4548 -0.3016
 2288TIP3    H128279   4.725   0.622   4.300 -0.1227 -1.6434 -2.4998
 2288TIP3    H228280   4.872   0.625   4.266  0.4183  0.4502 -0.1364
 2289TIP3   OH228281   3.462   2.281  13.371 -0.2227  0.2288 -0.6865
 2289TIP3    H128282   3.369   2.306  13.373 -0.1596  0.3608  1.1251
 2289TIP3    H228283   3.509   2.363  13.384  0.0643 -0.2671  1.5148
 2290TIP3   OH228284   4.615   4.166  16.301  0.2120  0.3594  0.5305
 2290TIP3    H128285   4.658   4.189  16.219 -0.0108  0.0624  0.3265
 2290TIP3    H228286   4.529   4.133  16.274  0.1324  0.2755  0.8831
 2291TIP3   OH228287   2.001   6.669   3.533 -0.3751  0.1916 -0.6423
 2291TIP3    H128288   2.074   6.716   3.572 -0.3889 -0.0058 -0.3751
 2291TIP3    H228289   1.932   6.735   3.522  0.5561  0.8179 -2.7725
 2292TIP3   OH228290   1.201   0.581   3.435 -0.3291 -0.0939  0.0872
 2292TIP3    H128291   1.253   0.501   3.443 -1.8422 -1.0725  0.3802
 2292TIP3    H228292   1.256   0.649   3.473  0.5928 -1.1702  0.7108
 2293TIP3   OH228293   0.724   6.717   2.275 -0.1686  0.4768  0.6103
 2293TIP3    H128294   0.818   6.738   2.273 -0.5538  2.3405  0.7095
 2293TIP3    H228295   0.701   6.699   2.184  0.3407 -0.2690  0.6267
 2294TIP3   OH228296   1.022   3.287   6.264 -0.0820  0.4003 -0.0940
 2294TIP3    H128297   0.935   3.283   6.303 -0.2088 -1.0776 -0.5230
 2294TIP3    H228298   1.076   3.331   6.330 -0.6629 -0.5868  1.0591
 2295TIP3   OH228299   1.700   1.805  15.685 -0.2498  0.7380 -0.1569
 2295TIP3    H128300   1.655   1.857  15.618  0.5172 -0.6950 -1.8188
 2295TIP3    H228301   1.641   1.732  15.702  1.0062 -0.6731 -1.7041
 2296TIP3   OH228302   2.822   4.784   1.235  0.1251 -0.9113 -0.4599
 2296TIP3    H128303   2.740   4.774   1.187  0.3442 -0.7017 -0.8796
 2296TIP3    H228304   2.855   4.870   1.208  0.1662 -0.7154  0.1944
 2297TIP3   OH228305   1.177   5.864  13.732  0.0176 -0.3858 -0.0269
 2297TIP3    H128306   1.199   5.893  13.643 -0.6517 -0.2563 -0.1578
 2297TIP3    H228307   1.224   5.925  13.789  0.4180 -0.4427 -0.2926
 2298TIP3   OH228308   3.129   1.894  15.655  0.8700 -0.5614  0.4244
 2298TIP3    H128309   3.163   1.857  15.736 -0.9925 -1.0846  0.9795
 2298TIP3    H228310   3.093   1.819  15.607 -0.2157  0.0798  0.2132
 2299TIP3   OH228311   3.448   5.804  17.093 -0.0858  0.2942 -1.0192
 2299TIP3    H128312   3.352   5.802  17.089 -0.0245 -1.9115 -2.3146
 2299TIP3    H228313   3.474   5.712  17.087  2.0828  0.7725  0.5590
 2300TIP3   OH228314   5.252   0.354  12.754 -0.0963  0.4483  0.1447
 2300TIP3    H128315   5.157   0.358  12.766  0.2879  1.1504  3.2878
 2300TIP3    H228316   5.276   0.267  12.784  0.3020  0.3773 -0.3783
 2301TIP3   OH228317   5.634   2.662   2.957  0.7857  0.0641 -1.0103
 2301TIP3    H128318   5.567   2.595   2.946  1.3213 -0.7158  0.3676
 2301TIP3    H228319   5.684   2.660   2.876  1.4394 -1.9163 -0.5624
 2302TIP3   OH228320   0.983   0.702  15.263 -0.2364 -0.0947 -0.1297
 2302TIP3    H128321   1.053   0.703  15.198 -0.7300 -0.5889 -0.6864
 2302TIP3    H228322   0.903   0.694  15.211 -0.6117 -0.9594  0.5552
 2303TIP3   OH228323   4.153   6.085  12.826  0.9095 -0.4914  0.8215
 2303TIP3    H128324   4.077   6.127  12.867  0.4469 -0.2802 -0.2109
 2303TIP3    H228325   4.223   6.149  12.836  0.8505 -0.5173  1.4291
 2304TIP3   OH228326   3.737   0.800  14.932  0.0384 -0.3789 -0.1198
 2304TIP3    H128327   3.827   0.797  14.899  0.7818 -2.0385  1.9476
 2304TIP3    H228328   3.702   0.883  14.899  2.8110  0.9891  0.2566
 2305TIP3   OH228329   4.060   6.771  13.742 -0.2147  0.6340  0.6569
 2305TIP3    H128330   4.048   6.687  13.699 -1.3080 -0.2429  2.6267
 2305TIP3    H228331   4.147   6.767  13.782 -0.5077  0.2082  1.2522
 2306TIP3   OH228332   4.555   2.859   0.520 -0.1245 -0.1509  0.1027
 2306TIP3    H128333   4.509   2.916   0.458  0.2542  1.1420  0.9789
 2306TIP3    H228334   4.561   2.775   0.476 -0.5456  0.5423 -1.3041
 2307TIP3   OH228335   3.716   3.543   6.202 -0.0319 -0.3877  0.8244
 2307TIP3    H128336   3.799   3.536   6.248  0.6814  0.8291 -0.2282
 2307TIP3    H228337   3.708   3.637   6.182 -0.3410 -0.8657 -1.4327
 2308TIP3   OH228338   0.886   3.548  11.343 -0.1237  0.3586  0.2458
 2308TIP3    H128339   0.917   3.463  11.375 -0.5221 -0.0355 -0.3990
 2308TIP3    H228340   0.830   3.526  11.269 -2.9612  0.9818  2.1353
 2309TIP3   OH228341   0.660   5.650  16.414  1.5594  0.5977 -0.1453
 2309TIP3    H128342   0.642   5.682  16.325 -0.6406 -1.5925 -0.5386
 2309TIP3    H228343   0.590   5.688  16.468  1.3567 -0.1735  0.1475
 2310TIP3   OH228344   4.615   3.800  14.616  0.2594  0.5255  0.5741
 2310TIP3    H128345   4.522   3.782  14.630  0.0189  1.2701 -0.0343
 2310TIP3    H228346   4.618   3.892  14.589  0.9785 -0.0414 -1.3573
 2311TIP3   OH228347   3.335   3.307   4.128  0.0352  0.6159  1.0383
 2311TIP3    H128348   3.273   3.235   4.119  0.3461  0.3626  0.9071
 2311TIP3    H228349   3.397   3.277   4.195  0.0700  0.8290  1.1048
 2312TIP3   OH228350   6.118   2.624   0.400 -0.0484  0.0191  0.0479
 2312TIP3    H128351   6.054   2.637   0.470 -1.3593 -2.1470 -0.6884
 2312TIP3    H228352   6.124   2.529   0.390  3.9050  0.0997  0.6137
 2313TIP3   OH228353   0.169   5.175   3.448  0.0100  0.2507  0.1161
 2313TIP3    H128354   0.091   5.141   3.491 -0.6873  0.8859 -0.6391
 2313TIP3    H228355   0.154   5.160   3.355  1.3488 -0.7874  0.0429
 2314TIP3   OH228356   5.627   5.170   4.256 -0.0259 -0.3961 -0.1729
 2314TIP3    H128357   5.587   5.095   4.212 -2.6126  0.0106  1.3858
 2314TIP3    H228358   5.604   5.245   4.201  0.8453 -0.4734 -0.6554
 2315TIP3   OH228359   4.311   3.096  11.785 -0.4403  0.1139  0.3048
 2315TIP3    H128360   4.238   3.103  11.846  0.3522  0.7842  1.2056
 2315TIP3    H228361   4.366   3.027  11.822 -0.3682 -0.0452 -0.0992
 2316TIP3   OH228362   0.045   3.340  11.761  0.6837  0.3152  0.0982
 2316TIP3    H128363   0.124   3.389  11.737  1.1411 -0.7282 -0.5818
 2316TIP3    H228364   0.064   3.250  11.734 -0.2408 -0.1864  1.0974
 2317TIP3   OH228365   2.616   4.357  15.313 -0.2457 -0.0916  0.0555
 2317TIP3    H128366   2.580   4.367  15.402  2.1830 -0.7749  1.1577
 2317TIP3    H228367   2.619   4.263  15.299  2.8334 -0.1424  0.7601
 2318TIP3   OH228368   6.723   1.844   1.427  0.3794 -0.3882 -0.0759
 2318TIP3    H128369   6.731   1.901   1.351  0.3602  1.2946  1.1657
 2318TIP3    H228370   6.785   1.773   1.410 -0.8521 -0.9655 -2.4506
 2319TIP3   OH228371   3.001   4.715  12.738  0.4069 -0.0955  0.3163
 2319TIP3    H128372   2.909   4.694  12.725  0.5367  0.4652 -1.6619
 2319TIP3    H228373   3.041   4.633  12.769 -0.5251 -0.6595  0.0318
 2320TIP3   OH228374   4.287   4.344  12.653 -0.4214 -0.3850  0.4654
 2320TIP3    H128375   4.358   4.380  12.706  0.9954 -1.3028 -0.7618
 2320TIP3    H228376   4.263   4.414  12.593 -0.5831 -0.0625  0.9038
 2321TIP3   OH228377   3.630   5.845   5.687 -0.2011 -0.2962  0.0283
 2321TIP3    H128378   3.548   5.855   5.734 -1.4767  3.5802 -2.7701
 2321TIP3    H228379   3.605   5.812   5.601  1.3509 -0.5486 -0.3531
 2322TIP3   OH228380   1.178   5.433   2.949 -0.1136 -0.2036 -0.3867
 2322TIP3    H128381   1.097   5.404   2.992  0.0547 -1.2137 -0.7233
 2322TIP3    H228382   1.237   5.358   2.958  1.2360  1.0012  0.9871
 2323TIP3   OH228383   2.667   6.427   1.384  0.0101 -0.1396  0.4560
 2323TIP3    H128384   2.677   6.522   1.383 -0.6723 -0.0712 -0.5637
 2323TIP3    H228385   2.656   6.405   1.477  3.1709  0.4287  1.0069
 2324TIP3   OH228386   6.201   0.247  12.184  0.1211 -0.2564  0.6631
 2324TIP3    H128387   6.275   0.194  12.157  0.7513  0.0428  1.7603
 2324TIP3    H228388   6.214   0.331  12.139 -0.5423 -0.8085 -0.5793
 2325TIP3   OH228389   0.618   3.094  13.845  0.3029  0.0042 -0.4302
 2325TIP3    H128390   0.560   3.165  13.818 -0.3908 -0.4700 -0.2017
 2325TIP3    H228391   0.589   3.018  13.795  0.0538 -0.4862  0.4505
 2326TIP3   OH228392   4.698   2.360   4.134 -0.2534  0.1908  0.1210
 2326TIP3    H128393   4.704   2.273   4.174 -0.4953 -0.4478 -1.1928
 2326TIP3    H228394   4.789   2.390   4.130 -0.1162 -0.2058  0.1542
 2327TIP3   OH228395   2.080   6.638  16.371 -0.1994  0.1392 -0.0237
 2327TIP3    H128396   2.162   6.627  16.323 -0.3094  0.0539 -0.1899
 2327TIP3    H228397   2.049   6.725  16.345  1.4109  1.4969  2.4149
 2328TIP3   OH228398   3.396   0.198  15.178  0.2302  0.8202 -0.3654
 2328TIP3    H128399   3.381   0.173  15.087 -2.4048  0.8433  0.0263
 2328TIP3    H228400   3.464   0.137  15.209 -0.5599 -0.7462 -1.6537
 2329TIP3   OH228401   2.949   0.005   0.838  0.1963 -0.6566 -0.5136
 2329TIP3    H128402   3.031  -0.045   0.836  0.0477 -0.8816 -1.2353
 2329TIP3    H228403   2.913  -0.011   0.925  0.6112 -1.0644 -0.4136
 2330TIP3   OH228404   0.852   4.271  10.455 -0.0549  0.1882 -0.5916
 2330TIP3    H128405   0.898   4.195  10.489 -0.1204  0.1738 -0.5371
 2330TIP3    H228406   0.767   4.237  10.427  0.2438  0.0685 -1.3862
 2331TIP3   OH228407   3.532   4.682   3.539  0.3279  0.0077 -0.5924
 2331TIP3    H128408   3.584   4.621   3.592 -0.4225 -0.8102 -0.7869
 2331TIP3    H228409   3.485   4.735   3.604 -1.5559 -1.8194 -0.3877
 2332TIP3   OH228410   1.268   4.163   0.626 -0.1614  0.1764 -0.1404
 2332TIP3    H128411   1.277   4.140   0.719 -0.4820  0.1241 -0.1189
 2332TIP3    H228412   1.253   4.080   0.582  0.1564  0.1840 -0.2611
 2333TIP3   OH228413   5.086   2.726  16.927  0.7299  0.3960 -0.3480
 2333TIP3    H128414   5.024   2.794  16.898 -0.0942  0.7160  2.0348
 2333TIP3    H228415   5.048   2.644  16.894 -1.3353  0.5249  1.5586
 2334TIP3   OH228416   3.664   0.014   5.651  0.3862  0.6488 -0.1508
 2334TIP3    H128417   3.609   0.062   5.589  0.8798  1.9355  0.3958
 2334TIP3    H228418   3.707   0.082   5.702  0.7563 -0.3959  0.9356
 2335TIP3   OH228419   3.870   2.508   5.395  0.2437 -0.0970  0.3284
 2335TIP3    H128420   3.783   2.521   5.359 -0.6051 -3.0605  1.1943
 2335TIP3    H228421   3.881   2.413   5.400  3.4125  0.2093  0.4991
 2336TIP3   OH228422   1.491   2.018  13.858  0.8767 -1.1137 -0.0481
 2336TIP3    H128423   1.406   1.974  13.862  0.5275 -0.2655  2.5366
 2336TIP3    H228424   1.472   2.110  13.874  2.1559 -0.7367 -0.6146
 2337TIP3   OH228425   2.506   0.210   3.512 -0.0824  0.2243 -0.4255
 2337TIP3    H128426   2.581   0.250   3.468 -1.5332  0.9974 -2.2741
 2337TIP3    H228427   2.458   0.284   3.549 -1.4674 -0.0070 -1.7356
 2338TIP3   OH228428   5.330   4.105   1.814  0.8498  0.0903 -0.3852
 2338TIP3    H128429   5.351   4.038   1.880  1.8060  0.8105  0.0617
 2338TIP3    H228430   5.376   4.076   1.735  0.3033 -0.3929 -0.5244
 2339TIP3   OH228431   4.700   0.963  13.681  0.4262  0.2661  0.8071
 2339TIP3    H128432   4.769   1.002  13.734  0.6288  0.3721  0.4663
 2339TIP3    H228433   4.706   0.869  13.700 -0.6381  0.4848  2.3005
 2340TIP3   OH228434   4.228   0.323   5.207 -0.3639 -0.0440  0.2721
 2340TIP3    H128435   4.190   0.240   5.177 -1.1325  0.8962 -1.4648
 2340TIP3    H228436   4.308   0.332   5.155 -0.6468  0.6244 -0.0553
 2341TIP3   OH228437   6.445   2.376  13.333  0.1042 -0.4150  0.2198
 2341TIP3    H128438   6.357   2.396  13.301  0.9509  1.0642 -1.2404
 2341TIP3    H228439   6.459   2.438  13.405 -0.5496 -1.5713  1.3716
 2342TIP3   OH228440   4.697   5.866   4.341  0.2635  1.3763  0.6648
 2342TIP3    H128441   4.686   5.773   4.359  1.8035  1.4986  2.4454
 2342TIP3    H228442   4.615   5.893   4.301 -0.4525 -0.5922  0.7525
 2343TIP3   OH228443   2.837   6.499   6.422  0.3101 -0.3329 -0.0338
 2343TIP3    H128444   2.767   6.480   6.360 -0.7591 -1.4221  1.4610
 2343TIP3    H228445   2.881   6.576   6.386 -1.2281 -0.0438 -1.3469
 2344TIP3   OH228446   2.980   4.993   4.740  0.0617  0.7931 -0.3273
 2344TIP3    H128447   2.901   5.010   4.792  0.5561  0.6635  0.4682
 2344TIP3    H228448   3.031   5.074   4.745  0.4551  0.5249 -0.0010
 2345TIP3   OH228449   0.819   6.411  16.927  0.0618 -0.1418  0.3934
 2345TIP3    H128450   0.911   6.436  16.921  0.2611 -1.0924 -0.6006
 2345TIP3    H228451   0.813   6.360  17.008  0.4465 -0.2625  0.3454
 2346TIP3   OH228452   4.103   3.257  11.300 -0.1758  0.0448 -0.2875
 2346TIP3    H128453   4.084   3.205  11.378 -1.2514 -0.5573 -0.9476
 2346TIP3    H228454   4.126   3.193  11.232  0.0434  0.5237 -0.6762
 2347TIP3   OH228455   1.828   1.801  11.007  0.0075  0.2544 -0.1037
 2347TIP3    H128456   1.804   1.799  11.099 -0.3461 -0.2706 -0.2060
 2347TIP3    H228457   1.745   1.791  10.960  0.4887 -2.2873 -0.4556
 2348TIP3   OH228458   3.651   3.197   0.992 -0.1249 -0.2019 -0.4456
 2348TIP3    H128459   3.615   3.286   1.002  0.7372  0.1483 -0.3628
 2348TIP3    H228460   3.627   3.172   0.903 -0.6451 -0.0073 -0.3638
 2349TIP3   OH228461   1.891   0.114  15.663  0.2164 -0.3077 -0.6904
 2349TIP3    H128462   1.948   0.136  15.589  1.3361  1.1938  0.5973
 2349TIP3    H228463   1.938   0.044  15.708 -0.3409 -1.0392 -1.2278
 2350TIP3   OH228464   2.532   2.770  12.371  0.1185  0.7591 -0.2686
 2350TIP3    H128465   2.512   2.857  12.335 -1.2659 -0.1814 -1.8274
 2350TIP3    H228466   2.576   2.724  12.299 -2.5325 -1.0838 -0.7991
 2351TIP3   OH228467   4.785   2.641  14.179 -0.2211 -0.1606  0.4718
 2351TIP3    H128468   4.693   2.664  14.164 -0.4371 -0.2013  1.7029
 2351TIP3    H228469   4.827   2.723  14.204 -0.0802 -0.2765  0.6234
 2352TIP3   OH228470   0.068   4.966  13.668 -0.1530  0.7121 -0.0008
 2352TIP3    H128471  -0.001   4.904  13.645  0.6388  0.1578 -0.9066
 2352TIP3    H228472   0.094   5.006  13.585 -0.0449  1.6210  0.4580
 2353TIP3   OH228473   0.405   3.316   0.301  0.0240 -0.7467 -0.5190
 2353TIP3    H128474   0.443   3.351   0.381  0.5297 -1.4112 -0.4640
 2353TIP3    H228475   0.361   3.236   0.329  0.4718 -1.1470 -0.9593
 2354TIP3   OH228476   5.581   2.931  13.159  0.0906 -0.2929  0.6003
 2354TIP3    H128477   5.620   2.859  13.111  3.3000  0.2157  2.2990
 2354TIP3    H228478   5.520   2.889  13.220  1.7571 -1.5604  1.4163
 2355TIP3   OH228479   4.685   1.541   0.980 -0.5062 -0.0886 -0.2597
 2355TIP3    H128480   4.664   1.534   0.886  1.1838 -0.0138 -0.6545
 2355TIP3    H228481   4.719   1.630   0.990  2.4063 -1.1602 -0.2258
 2356TIP3   OH228482   4.391   4.394   6.877  0.7389  0.7341  0.2539
 2356TIP3    H128483   4.445   4.473   6.872 -0.6110  1.7667  1.4639
 2356TIP3    H228484   4.443   4.332   6.928  1.8717  0.7651 -0.8329
 2357TIP3   OH228485   2.905   4.043  16.892  0.5515 -0.3460 -0.0870
 2357TIP3    H128486   2.953   4.108  16.944 -0.9616 -0.1302  1.0843
 2357TIP3    H228487   2.867   3.985  16.957  2.0011 -2.5250 -1.1383
 2358TIP3   OH228488   1.425   4.678   5.658 -0.3217  0.4272 -0.0659
 2358TIP3    H128489   1.401   4.662   5.749 -0.9460  0.2215 -0.2614
 2358TIP3    H228490   1.349   4.723   5.621 -0.0848  0.4763 -0.4939
 2359TIP3   OH228491   3.668   2.003   3.129  0.0655  0.5086 -0.5020
 2359TIP3    H128492   3.655   2.029   3.221  0.5403 -2.8116  0.5694
 2359TIP3    H228493   3.649   1.909   3.128  2.2390  0.0436 -3.3561
 2360TIP3   OH228494   5.691   5.345   1.380  0.1195  0.0546  0.5852
 2360TIP3    H128495   5.740   5.263   1.379  1.5535  0.8897 -0.3127
 2360TIP3    H228496   5.669   5.360   1.472  1.9577 -0.1265  1.0686
 2361TIP3   OH228497   4.053   3.958   0.539  0.3144 -0.1915 -0.1219
 2361TIP3    H128498   4.049   4.021   0.611  2.3970 -0.8976  0.6361
 2361TIP3    H228499   4.038   3.873   0.580 -0.0938 -0.4386 -0.7748
 2362TIP3   OH228500   5.426   3.460  11.394  0.3086  0.0243 -0.4540
 2362TIP3    H128501   5.475   3.473  11.313  0.8185  0.1688 -0.1232
 2362TIP3    H228502   5.478   3.505  11.461 -0.8850  1.1906 -0.3019
 2363TIP3   OH228503   1.583   4.597  14.433  0.2515  0.5443  0.4261
 2363TIP3    H128504   1.594   4.502  14.443  2.1981  0.7540  0.5457
 2363TIP3    H228505   1.637   4.619  14.358 -0.0623  1.5850  0.5010
 2364TIP3   OH228506   4.188   6.466  13.856 -0.1679 -0.0221 -0.7988
 2364TIP3    H128507   4.117   6.410  13.888  0.9480 -0.2263  1.3728
 2364TIP3    H228508   4.268   6.418  13.877  0.8751  2.8911  2.2807
 2365TIP3   OH228509   6.663   3.920   3.900  0.2945  0.8987 -0.2055
 2365TIP3    H128510   6.603   3.848   3.881 -0.2664  1.6001 -1.0940
 2365TIP3    H228511   6.707   3.893   3.981 -0.5954 -0.0079 -0.0114
 2366TIP3   OH228512   0.880   6.501   4.186 -0.4169  0.2066  0.1672
 2366TIP3    H128513   0.918   6.574   4.137 -0.7824  0.5743  0.4290
 2366TIP3    H228514   0.955   6.454   4.221 -0.0837 -0.7749 -1.7661
 2367TIP3   OH228515   4.383   3.093  11.316 -0.2102  0.1281  0.8278
 2367TIP3    H128516   4.343   3.083  11.229 -0.0536 -0.7915  0.8622
 2367TIP3    H228517   4.312   3.071  11.377  0.5524 -2.2763  0.8774
 2368TIP3   OH228518   0.958   3.290  11.433  0.5021  0.1778 -0.4083
 2368TIP3    H128519   1.034   3.232  11.440 -0.7534 -1.5606 -0.6475
 2368TIP3    H228520   0.932   3.306  11.523  1.1213  0.7407 -0.3279
 2369TIP3   OH228521   4.433   5.476   4.112  0.0883  0.0291 -0.3704
 2369TIP3    H128522   4.454   5.428   4.032 -1.3305 -1.4208  0.1087
 2369TIP3    H228523   4.350   5.439   4.142  0.4680  0.7106  1.6396
 2370TIP3   OH228524   5.660   2.043   1.962 -0.1878 -0.1512  0.4648
 2370TIP3    H128525   5.605   1.964   1.964 -0.0681 -0.2243  0.8804
 2370TIP3    H228526   5.723   2.026   1.893 -1.5164  0.4876 -0.9377
 2371TIP3   OH228527   3.789   3.216  16.867  0.2313 -0.5729  0.4878
 2371TIP3    H128528   3.743   3.166  16.799  0.3131 -0.8590  0.6421
 2371TIP3    H228529   3.731   3.214  16.942  0.1237 -0.2212  0.4160
 2372TIP3   OH228530   6.659   0.886  13.854  0.2184  0.0768 -0.2722
 2372TIP3    H128531   6.679   0.868  13.946 -4.1018  1.2045  1.0035
 2372TIP3    H228532   6.724   0.952  13.828  1.9812 -0.8027  1.6946
 2373TIP3   OH228533   5.017   5.521   6.296 -0.3424 -0.1499  0.3333
 2373TIP3    H128534   4.988   5.481   6.378 -0.5561 -3.1809 -1.1716
 2373TIP3    H228535   4.947   5.583   6.274 -0.7065  0.0457  1.9644
 2374TIP3   OH228536   5.370   0.805  12.486 -0.0782 -0.1070 -0.5501
 2374TIP3    H128537   5.355   0.715  12.514  0.0496  0.6274  2.0017
 2374TIP3    H228538   5.445   0.800  12.426  2.0815 -1.3505  2.1282
 2375TIP3   OH228539   0.597   2.679   4.074 -0.1216  0.0013  0.0631
 2375TIP3    H128540   0.602   2.614   4.004  0.5996 -1.0141  1.0416
 2375TIP3    H228541   0.503   2.692   4.088 -0.2649  0.2147 -1.0918
 2376TIP3   OH228542   0.578   5.921   1.002  0.8213 -0.0477  0.1832
 2376TIP3    H128543   0.544   5.841   0.961  0.0916  0.3920 -0.0743
 2376TIP3    H228544   0.591   5.897   1.093 -1.0989  0.0476  0.5016
 2377TIP3   OH228545   6.001   4.403  16.395  0.1064  0.3066  0.3672
 2377TIP3    H128546   5.956   4.467  16.340  0.0577  1.3925  1.6653
 2377TIP3    H228547   5.997   4.439  16.483 -0.0777 -1.5664  1.1586
 2378TIP3   OH228548   0.536   0.114   4.471  0.4577 -0.3431  0.0483
 2378TIP3    H128549   0.622   0.107   4.429  1.0507 -2.0421  1.4844
 2378TIP3    H228550   0.546   0.184   4.535  0.2190  0.6989 -1.0339
 2379TIP3   OH228551   5.056   2.658  13.489 -0.4205  0.1259 -0.0431
 2379TIP3    H128552   4.980   2.603  13.468 -1.8055  1.2892  1.7350
 2379TIP3    H228553   5.108   2.605  13.549 -0.5969 -0.1039 -0.0931
 2380TIP3   OH228554   0.918   1.542   3.952 -0.3591  0.2399  0.7056
 2380TIP3    H128555   0.969   1.462   3.971 -2.2343 -0.4721  3.0902
 2380TIP3    H228556   0.934   1.598   4.028 -1.0883  1.0488  0.2614
 2381TIP3   OH228557   2.746   3.590   4.704  0.1805  0.5893 -0.3743
 2381TIP3    H128558   2.684   3.517   4.707  2.0570 -1.0860 -1.4342
 2381TIP3    H228559   2.721   3.640   4.626  0.5769 -0.4700 -1.1877
 2382TIP3   OH228560   2.797   2.884  15.622 -0.8482 -0.2196 -0.0990
 2382TIP3    H128561   2.842   2.880  15.706  0.4100 -1.1662 -0.7828
 2382TIP3    H228562   2.705   2.897  15.644 -0.4558  0.1452  1.3931
 2383TIP3   OH228563   3.012   3.664  15.636 -0.0432  0.2011 -0.0705
 2383TIP3    H128564   2.974   3.576  15.636  0.0625  0.1289 -1.6944
 2383TIP3    H228565   2.936   3.722  15.643 -0.1484 -0.0122  0.5754
 2384TIP3   OH228566   4.438   0.783   3.044 -0.3493 -0.2973  0.2474
 2384TIP3    H128567   4.479   0.733   3.114 -2.0798 -0.9327  0.8242
 2384TIP3    H228568   4.352   0.743   3.032 -0.8080  0.9874 -0.9537
 2385TIP3   OH228569   6.424   4.179  13.797 -0.8873 -0.1247 -0.7021
 2385TIP3    H128570   6.344   4.199  13.750 -1.3602 -1.3770 -0.4395
 2385TIP3    H228571   6.419   4.232  13.877 -1.6967 -0.5740 -0.4489
 2386TIP3   OH228572   1.552   1.344  14.953 -0.4752  0.0941 -0.9230
 2386TIP3    H128573   1.471   1.393  14.965 -1.1445 -1.2913  0.3363
 2386TIP3    H228574   1.595   1.346  15.038 -0.2979 -1.1125 -0.9665
 2387TIP3   OH228575   3.056   4.769  15.317 -0.0464  0.4408 -0.7612
 2387TIP3    H128576   3.125   4.742  15.377 -1.1863 -0.6405  0.0756
 2387TIP3    H228577   3.083   4.734  15.232 -0.6764 -1.9574 -0.0070
 2388TIP3   OH228578   4.490   0.085   0.380 -0.5918  0.5035  0.2477
 2388TIP3    H128579   4.460   0.034   0.304 -0.8867  1.9391 -0.6184
 2388TIP3    H228580   4.438   0.051   0.453 -1.0916 -0.1383 -0.3939
 2389TIP3   OH228581   3.574   6.424  13.922 -0.1270 -0.0366 -0.4433
 2389TIP3    H128582   3.588   6.430  14.016 -2.7098  1.4864 -0.1132
 2389TIP3    H228583   3.646   6.474  13.884  1.0101 -0.7828  0.6950
 2390TIP3   OH228584   2.270   0.858   5.879 -0.0838  0.2073 -0.2219
 2390TIP3    H128585   2.204   0.858   5.810 -1.5067  2.5105  1.0608
 2390TIP3    H228586   2.220   0.842   5.960  1.5673 -2.6610  0.3054
 2391TIP3   OH228587   0.354   4.551   0.125  0.1670  0.2236  0.0802
 2391TIP3    H128588   0.365   4.621   0.190 -0.1799  0.4526 -0.1046
 2391TIP3    H228589   0.432   4.556   0.070 -0.3711  1.1700 -0.5985
 2392TIP3   OH228590   2.044   3.648  11.510 -0.4137 -0.1816  0.1403
 2392TIP3    H128591   2.020   3.659  11.602 -0.8582  0.8946 -0.1011
 2392TIP3    H228592   2.139   3.635  11.511 -0.5085 -0.8689  0.8037
 2393TIP3   OH228593   3.604   5.849   5.285 -0.6992  0.2322  0.3084
 2393TIP3    H128594   3.564   5.935   5.268 -0.3610  0.6115  1.3769
 2393TIP3    H228595   3.698   5.867   5.288 -0.5516 -0.3588 -0.4410
 2394TIP3   OH228596   6.220   2.612  15.151 -0.2111 -0.1943  0.2628
 2394TIP3    H128597   6.221   2.666  15.072  1.2707 -0.3303  0.1727
 2394TIP3    H228598   6.215   2.522  15.118 -0.1918 -0.2246  0.3435
 2395TIP3   OH228599   6.099   0.469  12.989  0.8039  0.2930 -0.4242
 2395TIP3    H128600   6.175   0.413  13.009  1.4175  1.0900 -0.5307
 2395TIP3    H228601   6.112   0.547  13.043  0.1186  0.4856 -0.5353
 2396TIP3   OH228602   3.417   4.858   0.544  0.4229  0.2723  0.3195
 2396TIP3    H128603   3.357   4.931   0.558  0.1888 -0.1578  1.6340
 2396TIP3    H228604   3.363   4.779   0.557  1.0287 -0.1245  0.4574
 2397TIP3   OH228605   3.515   2.197  17.132  0.6822 -0.0467  0.3855
 2397TIP3    H128606   3.520   2.103  17.117 -0.2366  0.3827 -2.8916
 2397TIP3    H228607   3.433   2.209  17.181  0.5161 -0.8847  0.3166
 2398TIP3   OH228608   4.509   5.958   1.203 -0.3499 -0.3546  0.1057
 2398TIP3    H128609   4.501   5.866   1.179  0.3943 -0.2154 -0.7139
 2398TIP3    H228610   4.596   5.966   1.242  0.4553  0.3776 -1.7238
 2399TIP3   OH228611   0.220   4.541   3.221  0.2853 -0.2384 -0.1212
 2399TIP3    H128612   0.151   4.602   3.248  0.1420 -1.1868  1.7474
 2399TIP3    H228613   0.281   4.541   3.295  0.8189 -1.5824 -0.5506
 2400TIP3   OH228614   0.494   4.002   5.828 -0.3887 -0.2592  0.0088
 2400TIP3    H128615   0.430   3.931   5.825 -0.4179 -0.2021 -0.8777
 2400TIP3    H228616   0.552   3.985   5.754  0.3404 -0.0373  0.5163
 2401TIP3   OH228617   4.606   5.178  12.357 -0.3591  0.5607  0.1076
 2401TIP3    H128618   4.638   5.267  12.342  0.7675  0.4183  1.5505
 2401TIP3    H228619   4.611   5.166  12.452 -2.1958 -0.4289  0.1056
 2402TIP3   OH228620   4.546   1.232   2.992 -0.1796  0.2649  0.3654
 2402TIP3    H128621   4.626   1.189   3.020 -0.6168 -0.9964 -0.2877
 2402TIP3    H228622   4.561   1.325   3.008  1.8360  0.1542 -0.7501
 2403TIP3   OH228623   2.816   1.062  13.197  0.2604 -0.2254  0.1350
 2403TIP3    H128624   2.800   1.002  13.124  1.9221 -0.2364 -0.2584
 2403TIP3    H228625   2.897   1.029  13.237 -0.5224 -0.0876  1.8483
 2404TIP3   OH228626   6.218   2.580  13.514 -0.3910  0.4275  0.4957
 2404TIP3    H128627   6.199   2.649  13.577  0.5270 -0.2368  1.5271
 2404TIP3    H228628   6.165   2.505  13.542  1.6224 -0.5712  1.8194
 2405TIP3   OH228629   3.061   6.602   3.791 -0.3813  0.2809 -0.0847
 2405TIP3    H128630   3.003   6.585   3.865 -0.8581  2.4138  0.0677
 2405TIP3    H228631   3.037   6.690   3.762  0.8919  0.0892 -1.7752
 2406TIP3   OH228632   0.841   2.751  16.635 -0.2233  0.5063  0.3974
 2406TIP3    H128633   0.859   2.661  16.607 -0.2649  0.2651  1.1540
 2406TIP3    H228634   0.922   2.780  16.677 -0.0335  1.0040 -0.2899
 2407TIP3   OH228635   0.642   6.310   0.800  0.4336  0.1403 -0.2080
 2407TIP3    H128636   0.714   6.274   0.851 -0.5843 -0.6361  0.6962
 2407TIP3    H228637   0.685   6.368   0.737  1.7418  0.9544  1.3647
 2408TIP3   OH228638   6.138   4.988   2.324  0.3202 -0.2259  0.0495
 2408TIP3    H128639   6.086   5.068   2.336  0.1978 -0.0532 -1.5861
 2408TIP3    H228640   6.173   4.995   2.235  3.2644 -0.2648  1.1465
 2409TIP3   OH228641   6.172   4.179  11.174  0.3260  0.5536 -0.0702
 2409TIP3    H128642   6.082   4.148  11.183 -0.3938  2.7901  0.8489
 2409TIP3    H228643   6.183   4.194  11.080  0.2241 -1.0335 -0.3508
 2410TIP3   OH228644   3.139   3.148  12.858 -0.0193 -0.8250  0.2038
 2410TIP3    H128645   3.177   3.179  12.775 -1.5059  1.5576  0.3675
 2410TIP3    H228646   3.204   3.173  12.924  0.4062 -1.2454 -0.0472
 2411TIP3   OH228647   6.062   6.117   0.929  0.3125  0.0320 -0.1230
 2411TIP3    H128648   6.082   6.210   0.935  1.1998 -0.1336 -0.3147
 2411TIP3    H228649   6.111   6.078   1.001 -0.5888 -0.2062  0.3646
 2412TIP3   OH228650   2.492   5.516  16.472 -0.5446  0.0646 -0.1128
 2412TIP3    H128651   2.455   5.591  16.519 -0.2575 -0.0294  0.2667
 2412TIP3    H228652   2.586   5.522  16.487 -0.5374 -0.4635  0.0531
 2413TIP3   OH228653   4.786   1.244  12.553 -0.1646  0.0558  0.1585
 2413TIP3    H128654   4.854   1.274  12.492  0.1946 -0.9228  0.0719
 2413TIP3    H228655   4.826   1.254  12.640  0.3646 -1.2146  0.0651
 2414TIP3   OH228656   3.184   5.806  15.634 -0.1734  0.4818  0.3347
 2414TIP3    H128657   3.210   5.898  15.635  0.7223  0.2300  1.4705
 2414TIP3    H228658   3.237   5.767  15.565 -0.4859  0.7955 -0.0829
 2415TIP3   OH228659   4.415   4.852  11.718 -0.5631  0.4023 -0.0118
 2415TIP3    H128660   4.321   4.848  11.735 -0.5380 -0.3462  0.0006
 2415TIP3    H228661   4.445   4.929  11.766 -1.0544  0.2388  0.5637
 2416TIP3   OH228662   3.894   3.535  15.779 -0.0032  0.2535  0.0082
 2416TIP3    H128663   3.829   3.485  15.828 -1.7475  1.7195 -0.7479
 2416TIP3    H228664   3.881   3.509  15.688  1.3736 -0.4078 -0.0161
 2417TIP3   OH228665   5.956   2.422   2.840 -0.6150  1.0180 -0.5502
 2417TIP3    H128666   5.898   2.390   2.771 -0.2456 -1.0687  0.0454
 2417TIP3    H228667   6.020   2.477   2.796  0.5598 -1.5306 -2.1663
 2418TIP3   OH228668   0.964   4.989   4.802  0.1669  0.1178 -0.0472
 2418TIP3    H128669   1.011   5.035   4.871  0.1459  1.3526 -0.8516
 2418TIP3    H228670   1.000   4.901   4.803 -0.0311  0.0364  1.7283
 2419TIP3   OH228671   3.950   1.837   0.314  0.3920  0.7676 -0.0631
 2419TIP3    H128672   3.894   1.914   0.327 -1.8756 -0.7388 -0.5757
 2419TIP3    H228673   3.963   1.832   0.219 -2.5944 -1.5482 -0.4240
 2420TIP3   OH228674   5.063   2.397   2.988  0.1983  0.1047 -0.0601
 2420TIP3    H128675   5.084   2.479   2.944  0.0709  1.1752  1.7991
 2420TIP3    H228676   4.971   2.381   2.965  0.4629  0.0444 -1.0932
 2421TIP3   OH228677   1.722   4.341   3.793 -0.5006 -0.0186  0.0392
 2421TIP3    H128678   1.803   4.290   3.801 -0.1384  0.4588 -0.5511
 2421TIP3    H228679   1.652   4.277   3.805 -0.0700 -0.9344 -2.1801
 2422TIP3   OH228680   5.313   0.284  15.525  0.3267 -0.1257  0.1710
 2422TIP3    H128681   5.363   0.353  15.570  0.6735 -0.4878  0.3452
 2422TIP3    H228682   5.361   0.204  15.545 -2.0603 -0.9289  2.9280
 2423TIP3   OH228683   5.036   4.063  10.922  0.4841  0.2466 -0.0470
 2423TIP3    H128684   5.061   4.046  10.831  2.8857 -1.2138  0.8363
 2423TIP3    H228685   5.112   4.036  10.973 -1.4535 -0.5383  2.5275
 2424TIP3   OH228686   2.201   2.749  16.701 -0.4568  0.5452 -0.4631
 2424TIP3    H128687   2.118   2.761  16.747 -0.3642  0.3647 -0.2444
 2424TIP3    H228688   2.209   2.654  16.691  1.2738  0.3225  2.4083
 2425TIP3   OH228689   0.513   4.661   4.916 -0.3454 -0.7264  0.9588
 2425TIP3    H128690   0.579   4.726   4.938  0.3451 -1.2148  0.3541
 2425TIP3    H228691   0.477   4.633   5.000 -0.3089  0.0823  1.2419
 2426TIP3   OH228692   4.719   0.131   3.243 -0.1412  0.0403 -0.5853
 2426TIP3    H128693   4.725   0.057   3.304 -0.0499  0.6604  0.1653
 2426TIP3    H228694   4.808   0.142   3.211 -0.2850 -0.6060 -1.2165
 2427TIP3   OH228695   6.428   5.569  16.152 -0.3278 -0.1074 -0.1277
 2427TIP3    H128696   6.400   5.534  16.237 -1.3183 -0.6696 -0.6745
 2427TIP3    H228697   6.502   5.626  16.173  0.4509 -1.4685  0.9362
 2428TIP3   OH228698   1.121   5.013   2.480  0.0600  0.7520 -0.6737
 2428TIP3    H128699   1.132   5.004   2.385  0.0061  0.5154 -0.6583
 2428TIP3    H228700   1.208   4.998   2.516 -0.0108  0.3686 -0.6553
 2429TIP3   OH228701   1.617   3.351   0.958  0.3813  0.5170 -0.0248
 2429TIP3    H128702   1.618   3.390   1.045  1.1924  2.0930 -0.7185
 2429TIP3    H228703   1.662   3.415   0.902 -0.5554 -0.2395 -1.6926
 2430TIP3   OH228704   3.628   2.656   0.143 -0.1331 -0.6707 -0.8429
 2430TIP3    H128705   3.629   2.628   0.235  1.6359 -0.8372 -0.8995
 2430TIP3    H228706   3.698   2.721   0.137 -0.1094 -0.8011 -2.1252
 2431TIP3   OH228707   4.452   3.402   1.585 -0.1526  0.3228  0.8137
 2431TIP3    H128708   4.524   3.390   1.523 -0.2629  2.3193  0.2713
 2431TIP3    H228709   4.446   3.318   1.631  4.1213  0.9210  2.6392
 2432TIP3   OH228710   3.374   5.232  11.842 -0.2253 -0.2025  0.0693
 2432TIP3    H128711   3.387   5.166  11.775  0.5896 -1.9003  1.8510
 2432TIP3    H228712   3.457   5.280  11.846  0.1870 -0.9694  0.7757
 2433TIP3   OH228713   3.305   0.219  15.807  0.3144 -0.1430 -0.1332
 2433TIP3    H128714   3.326   0.246  15.897  1.0948 -0.7967 -0.1244
 2433TIP3    H228715   3.264   0.133  15.817 -0.4123  0.1700 -0.3368
 2434TIP3   OH228716   5.682   6.470  14.880 -0.0708  0.2648  0.1400
 2434TIP3    H128717   5.702   6.512  14.964 -0.0197 -0.5007  0.5130
 2434TIP3    H228718   5.590   6.491  14.864 -0.1936  0.0662  0.5906
 2435TIP3   OH228719   1.591   5.882   0.169 -0.0827 -0.1426  0.4046
 2435TIP3    H128720   1.579   5.865   0.075 -1.5666 -0.6587  0.6721
 2435TIP3    H228721   1.604   5.795   0.208 -0.1019  0.0147  0.7633
 2436TIP3   OH228722   1.945   1.757   1.019  0.3130 -0.2672 -0.4087
 2436TIP3    H128723   1.864   1.732   0.973 -0.3438 -3.9496  2.5487
 2436TIP3    H228724   1.915   1.807   1.095  0.8177 -1.3696  0.5250
 2437TIP3   OH228725   1.749   5.605  12.673 -0.0078 -0.4636  0.1649
 2437TIP3    H128726   1.656   5.611  12.695 -0.1569 -0.0273 -0.5507
 2437TIP3    H228727   1.760   5.665  12.599  1.1421  0.5549  1.1469
 2438TIP3   OH228728   2.749   2.728  16.998 -0.4748 -0.4933 -0.1265
 2438TIP3    H128729   2.811   2.694  17.062 -0.6698  0.4669  0.5794
 2438TIP3    H228730   2.663   2.710  17.036 -0.6199 -1.2951 -0.8288
 2439TIP3   OH228731   6.007   6.189   2.331  0.9066  0.2258  0.3297
 2439TIP3    H128732   6.058   6.178   2.250 -0.8066 -0.1120 -0.7245
 2439TIP3    H228733   6.055   6.255   2.380  2.1741  0.1740 -0.8114
 2440TIP3   OH228734   0.741   4.373  14.486  0.5356 -0.5007  0.1529
 2440TIP3    H128735   0.679   4.360  14.414  1.7930 -2.1873 -0.6665
 2440TIP3    H228736   0.824   4.396  14.442  1.1937 -1.1065  1.0534
 2441TIP3   OH228737   4.030   4.474  12.497 -0.3055  0.5545 -0.5595
 2441TIP3    H128738   4.065   4.553  12.455 -0.6954  1.6997  1.2373
 2441TIP3    H228739   3.959   4.506  12.553 -0.1116 -1.0139  0.6094
 2442TIP3   OH228740   2.410   5.833   3.223  0.3638 -0.0585 -0.0215
 2442TIP3    H128741   2.398   5.761   3.160 -1.1633 -2.4287  2.8438
 2442TIP3    H228742   2.505   5.845   3.227  0.6993 -2.4207 -0.0390
 2443TIP3   OH228743   1.257   1.357   0.811  0.7490 -0.5578  0.2221
 2443TIP3    H128744   1.181   1.310   0.775  1.0768 -1.9226  1.2602
 2443TIP3    H228745   1.317   1.365   0.737  0.5334 -1.4682 -0.0603
 2444TIP3   OH228746   1.905   5.639  11.433  0.0960 -0.0458  0.3602
 2444TIP3    H128747   1.947   5.724  11.419 -0.4394  0.6116  2.5159
 2444TIP3    H228748   1.954   5.579  11.378  0.5864  1.6374 -1.0839
 2445TIP3   OH228749   5.409   6.422  13.927 -0.6080 -0.3327 -0.1236
 2445TIP3    H128750   5.486   6.365  13.926  1.0711  1.8807 -0.2626
 2445TIP3    H228751   5.379   6.422  14.018 -0.5619 -1.3379 -0.1074
 2446TIP3   OH228752   1.326   3.864  12.164 -0.3335 -0.2528 -0.6422
 2446TIP3    H128753   1.384   3.939  12.171  0.9372 -1.3514  0.9547
 2446TIP3    H228754   1.369   3.807  12.099 -1.3588  0.4193 -1.9457
 2447TIP3   OH228755   1.634   5.689   4.807  0.1651  0.3963 -0.1950
 2447TIP3    H128756   1.688   5.705   4.730 -2.5064 -1.2577 -2.4954
 2447TIP3    H228757   1.596   5.774   4.828 -0.2019  0.5792 -1.5831
 2448TIP3   OH228758   0.430   1.130   5.066  0.7186 -0.1476 -0.1723
 2448TIP3    H128759   0.502   1.131   5.004  0.0796  1.5386 -0.9100
 2448TIP3    H228760   0.463   1.177   5.143  1.2906 -1.6756  0.5292
 2449TIP3   OH228761   4.589   0.958   2.897 -0.1535  0.2781 -0.3621
 2449TIP3    H128762   4.525   0.896   2.932  0.2377 -0.0372 -0.1982
 2449TIP3    H228763   4.551   0.989   2.815  0.0064 -0.7839 -0.8490
 2450TIP3   OH228764   2.283   0.337  12.419 -0.1551  0.1407 -0.1282
 2450TIP3    H128765   2.351   0.354  12.484  1.0945  0.2202 -1.4292
 2450TIP3    H228766   2.329   0.339  12.335 -1.7903  0.3166 -1.0422
 2451TIP3   OH228767   6.182   3.451   0.488  0.0523 -0.5382 -0.1251
 2451TIP3    H128768   6.250   3.391   0.457  0.6208  0.2906 -0.4957
 2451TIP3    H228769   6.184   3.443   0.583 -1.7306 -3.1288 -0.2654
 2452TIP3   OH228770   0.871   4.945   5.518 -0.4658  0.1384  0.2216
 2452TIP3    H128771   0.892   4.907   5.603 -0.7357 -1.0993 -0.2616
 2452TIP3    H228772   0.953   4.940   5.469 -0.3347  0.7713  0.3620
 2453TIP3   OH228773   6.657   1.472   1.898  0.6701  0.1210  0.0804
 2453TIP3    H128774   6.591   1.489   1.965 -0.3142  0.1534 -0.8897
 2453TIP3    H228775   6.735   1.516   1.930  0.6823 -1.2252  2.0085
 2454TIP3   OH228776   3.468   3.175   4.643 -0.7716  0.3053  0.0369
 2454TIP3    H128777   3.522   3.097   4.658  0.6440  1.1467 -0.5237
 2454TIP3    H228778   3.506   3.241   4.701 -3.4745 -0.0508  2.2986
 2455TIP3   OH228779   3.364   3.757   6.080 -0.6067 -0.0798 -0.6763
 2455TIP3    H128780   3.400   3.767   6.168 -2.2644  0.1149 -0.0014
 2455TIP3    H228781   3.401   3.675   6.048 -1.3645 -1.0721  0.9011
 2456TIP3   OH228782   4.141   6.373   0.311 -0.1595 -0.2225  0.5963
 2456TIP3    H128783   4.162   6.354   0.402  1.4088  1.4866  0.6346
 2456TIP3    H228784   4.219   6.418   0.278 -0.2591 -1.7930 -1.8974
 2457TIP3   OH228785   3.208   4.681  17.184 -0.2534  0.6972 -0.5495
 2457TIP3    H128786   3.282   4.722  17.229  0.1978  1.6617 -2.1293
 2457TIP3    H228787   3.221   4.702  17.092 -0.0660 -2.9662 -1.4043
 2458TIP3   OH228788   2.427   1.324   4.903  0.6607  0.0435 -0.7941
 2458TIP3    H128789   2.344   1.372   4.898  1.8492  2.0992 -1.4212
 2458TIP3    H228790   2.457   1.337   4.993  1.6661  1.7184 -1.3435
 2459TIP3   OH228791   6.055   1.781  16.975 -0.2519 -0.3602  0.0470
 2459TIP3    H128792   6.123   1.715  16.988 -1.4823 -1.3316  1.6963
 2459TIP3    H228793   6.093   1.862  17.009  0.7416 -0.5203 -0.6798
 2460TIP3   OH228794   3.154   0.819   2.256 -0.0235  0.0260 -0.0527
 2460TIP3    H128795   3.097   0.890   2.285 -0.8001 -0.4688 -0.3563
 2460TIP3    H228796   3.177   0.773   2.337  0.3721  0.5451  0.1290
 2461TIP3   OH228797   1.806   4.756  13.525  0.2790 -0.7025  0.6070
 2461TIP3    H128798   1.769   4.843  13.511  4.8056  1.4502  1.4537
 2461TIP3    H228799   1.835   4.728  13.438  1.3600 -0.1272  0.7737
 2462TIP3   OH228800   1.719   2.802  13.194 -0.1213 -0.2225  0.6088
 2462TIP3    H128801   1.697   2.811  13.101  0.6563 -1.7790  0.2635
 2462TIP3    H228802   1.680   2.718  13.219 -0.5620  0.3262  1.7556
 2463TIP3   OH228803   4.924   0.995   2.722 -0.1466 -0.1201 -0.3382
 2463TIP3    H128804   4.848   1.025   2.773 -0.1002 -0.6007  0.0255
 2463TIP3    H228805   4.995   0.991   2.786  0.4680  1.3768 -0.9106
 2464TIP3   OH228806   3.498   6.376   4.177 -0.0266  0.2662  0.4625
 2464TIP3    H128807   3.527   6.398   4.265 -2.7210 -0.3593  1.5763
 2464TIP3    H228808   3.467   6.458   4.140 -0.8754  0.1557  0.9146
 2465TIP3   OH228809   0.926   6.349   5.707 -0.2044  0.0616  0.0855
 2465TIP3    H128810   0.952   6.290   5.777 -0.1589 -1.5282 -1.2239
 2465TIP3    H228811   0.915   6.434   5.749  2.0806 -0.3472  1.5836
 2466TIP3   OH228812   3.478   0.679  12.582 -0.1968  0.2371 -0.2098
 2466TIP3    H128813   3.457   0.686  12.675 -0.8368  0.3441 -0.3592
 2466TIP3    H228814   3.543   0.748  12.567 -1.4365  1.4506 -0.2126
 2467TIP3   OH228815   1.752   2.365  14.001 -0.5992  0.1408  0.1673
 2467TIP3    H128816   1.712   2.449  13.982 -1.0268  0.2830  1.5915
 2467TIP3    H228817   1.820   2.355  13.936 -2.4794  0.2241 -1.8633
 2468TIP3   OH228818   1.532   5.526   2.908 -0.1681 -0.0001  0.8430
 2468TIP3    H128819   1.542   5.431   2.912 -0.1286  0.0613  2.2859
 2468TIP3    H228820   1.459   5.540   2.848  0.6074 -0.8875 -0.3363
 2469TIP3   OH228821   4.961   6.517   4.559 -0.2414 -0.2504 -0.2047
 2469TIP3    H128822   4.870   6.500   4.535  0.4354 -0.8423 -2.4546
 2469TIP3    H228823   4.977   6.607   4.530 -0.5490  0.4051  1.6036
 2470TIP3   OH228824   0.484   6.611   0.479  0.3511  0.5707  0.0459
 2470TIP3    H128825   0.424   6.630   0.408  2.7929 -1.5508 -2.7168
 2470TIP3    H228826   0.533   6.692   0.492 -1.2405  1.4772  0.4906
 2471TIP3   OH228827   3.161   0.413   3.956  0.1167  0.1768  0.0150
 2471TIP3    H128828   3.247   0.435   3.921 -0.6383  1.3388 -1.1500
 2471TIP3    H228829   3.111   0.495   3.951 -1.3424 -0.7051 -0.2086
 2472TIP3   OH228830   6.745   4.200   4.002  0.6854  0.5587 -0.3348
 2472TIP3    H128831   6.789   4.135   3.947 -1.2201 -0.9917 -0.1108
 2472TIP3    H228832   6.656   4.165   4.014 -0.2170  2.9370  0.2826
 2473TIP3   OH228833   0.837   6.246  17.179  0.1469 -0.8944  0.0799
 2473TIP3    H128834   0.918   6.228  17.131  0.3801  0.4298 -0.0292
 2473TIP3    H228835   0.839   6.185  17.253  1.6354 -0.2964  0.5342
 2474TIP3   OH228836   4.642   6.046  11.494 -0.4829  0.3986 -0.3935
 2474TIP3    H128837   4.727   6.002  11.490 -0.2238  0.9045 -0.3805
 2474TIP3    H228838   4.614   6.034  11.585 -0.2034  0.6631 -0.2742
 2475TIP3   OH228839   5.810   4.454   1.385  0.0521 -0.2042 -0.0508
 2475TIP3    H128840   5.722   4.477   1.354  0.4104 -0.5558 -1.3777
 2475TIP3    H228841   5.821   4.362   1.361  0.0252 -0.7397  1.9285
 2476TIP3   OH228842   5.542   0.366  16.003  0.3021  0.3027  0.8625
 2476TIP3    H128843   5.566   0.456  16.025 -1.0994  0.6274  1.1785
 2476TIP3    H228844   5.455   0.355  16.043 -0.7271 -0.3048 -1.4370
 2477TIP3   OH228845   3.299   2.463   2.384 -0.2106  0.0899 -0.0613
 2477TIP3    H128846   3.308   2.369   2.397  2.2146  0.0789 -1.5080
 2477TIP3    H228847   3.210   2.475   2.352 -0.8693 -1.5841  1.0861
 2478TIP3   OH228848   1.615   3.564  13.940 -0.1004 -0.0931 -0.2296
 2478TIP3    H128849   1.696   3.516  13.955  0.0944  0.0751 -0.7102
 2478TIP3    H228850   1.643   3.655  13.930 -0.4739  0.1343  0.7471
 2479TIP3   OH228851   2.659   6.710  12.136  0.2484  0.0337 -0.5353
 2479TIP3    H128852   2.696   6.677  12.055  1.7816 -2.4857  1.1104
 2479TIP3    H228853   2.568   6.680  12.135  0.2971 -0.0813 -1.3011
 2480TIP3   OH228854   1.194   3.857   0.427 -0.2827 -0.1014 -0.6977
 2480TIP3    H128855   1.257   3.883   0.360 -0.3375 -0.2547 -0.8112
 2480TIP3    H228856   1.129   3.927   0.429  0.2517  0.3838 -0.1072
 2481TIP3   OH228857   5.420   2.309   5.638 -0.3318  0.1320  0.8769
 2481TIP3    H128858   5.459   2.395   5.622  0.4931 -0.4687 -0.3874
 2481TIP3    H228859   5.329   2.328   5.662 -0.3040  1.3225  0.0837
 2482TIP3   OH228860   6.537   1.864  14.542  0.1764 -0.3074 -0.2780
 2482TIP3    H128861   6.605   1.921  14.579  0.1738  0.5470 -1.5613
 2482TIP3    H228862   6.578   1.778  14.538  0.2035 -0.3982  1.6196
 2483TIP3   OH228863   5.737   4.144  15.220 -0.0825  0.3134 -0.4428
 2483TIP3    H128864   5.808   4.207  15.211 -0.2926  0.5398 -0.5415
 2483TIP3    H228865   5.758   4.094  15.299  0.8760 -0.5255 -1.2197
 2484TIP3   OH228866   3.440   6.224  12.494  0.3120  0.0472  0.0336
 2484TIP3    H128867   3.407   6.142  12.532  0.7334  0.0492  0.4029
 2484TIP3    H228868   3.418   6.217  12.401  0.4057 -0.5173  0.0500
 2485TIP3   OH228869   1.208   0.512  15.361  0.0154 -0.2343 -0.2107
 2485TIP3    H128870   1.264   0.579  15.398 -0.5208 -0.4204  0.9656
 2485TIP3    H228871   1.119   0.543  15.377 -0.2498 -1.5241  0.9479
 2486TIP3   OH228872   5.087   5.699  11.251 -0.2041  0.0937  0.0445
 2486TIP3    H128873   5.113   5.629  11.191  0.4324  0.3713 -0.0037
 2486TIP3    H228874   5.129   5.677  11.334 -0.3791  0.1727  0.1544
 2487TIP3   OH228875   1.517   2.911  15.696  0.0078  0.1922 -0.0856
 2487TIP3    H128876   1.577   2.984  15.679  0.2985  0.2493  1.1552
 2487TIP3    H228877   1.554   2.838  15.647  0.7378  0.3925  0.1635
 2488TIP3   OH228878   6.046   0.458   4.699 -0.3813 -0.2101  0.4533
 2488TIP3    H128879   6.074   0.367   4.699 -0.1256 -0.1335 -1.0628
 2488TIP3    H228880   6.125   0.509   4.683 -0.6112  0.2543  0.7578
 2489TIP3   OH228881   0.398   1.774   4.612  0.4867  0.1449  0.2819
 2489TIP3    H128882   0.409   1.868   4.596  2.1283 -0.2941 -1.2813
 2489TIP3    H228883   0.356   1.770   4.698 -0.8047  2.3415 -0.1888
 2490TIP3   OH228884   4.905   0.674   1.465  0.8242  0.1792  0.0011
 2490TIP3    H128885   4.870   0.671   1.553 -2.0469 -0.4983 -1.1020
 2490TIP3    H228886   4.858   0.746   1.422  0.2990 -1.1162 -1.6888
 2491TIP3   OH228887   3.086   5.697  12.718 -0.0219 -0.1320  0.2238
 2491TIP3    H128888   3.159   5.655  12.672  0.1098 -0.7924  1.0280
 2491TIP3    H228889   3.012   5.638  12.705  0.1606 -0.6276  1.3445
 2492TIP3   OH228890   4.848   1.402  16.352  0.1877  0.3349 -1.3745
 2492TIP3    H128891   4.816   1.487  16.383  0.5129  0.7523 -2.1499
 2492TIP3    H228892   4.928   1.387  16.403 -0.5045 -0.0741 -0.3972
 2493TIP3   OH228893   3.288   2.106   0.321 -0.4552 -0.1889 -0.3068
 2493TIP3    H128894   3.208   2.058   0.342 -0.2408  0.3827  1.9690
 2493TIP3    H228895   3.299   2.167   0.394  1.8900 -0.0471 -0.7336
 2494TIP3   OH228896   5.041   4.429  12.099  0.0314  0.1106 -0.0971
 2494TIP3    H128897   5.023   4.419  12.193  0.2522  1.1458  0.0605
 2494TIP3    H228898   4.982   4.366  12.057 -0.2097 -0.2246  0.7231
 2495TIP3   OH228899   4.116   3.094   5.695 -0.4660  0.1516 -0.1929
 2495TIP3    H128900   4.173   3.099   5.617  0.6958  0.2875  0.6495
 2495TIP3    H228901   4.044   3.155   5.676  0.2920  0.8808 -0.7779
 2496TIP3   OH228902   3.952   6.199   5.685  0.2411  0.1025  0.0777
 2496TIP3    H128903   3.956   6.143   5.763 -0.4868 -0.5408 -0.3348
 2496TIP3    H228904   3.864   6.183   5.649 -0.5206  2.5971  0.7461
 2497TIP3   OH228905   4.317   5.890   5.792  0.0185  0.3163 -0.3724
 2497TIP3    H128906   4.258   5.927   5.858  0.2088  0.1899 -0.1289
 2497TIP3    H228907   4.316   5.796   5.810  1.6954  0.4808  0.8069
 2498TIP3   OH228908   0.346   5.209  15.299 -0.2863 -0.0471  0.1903
 2498TIP3    H128909   0.291   5.185  15.373 -0.9556 -2.7404 -1.1156
 2498TIP3    H228910   0.432   5.227  15.338 -1.3965  1.6566  1.9391
 2499TIP3   OH228911   3.963   5.173   4.903  0.0265  0.1685  0.0757
 2499TIP3    H128912   4.047   5.130   4.920 -0.5045 -1.2316 -0.7619
 2499TIP3    H228913   3.906   5.144   4.974 -0.4176 -0.7759 -0.6533
 2500TIP3   OH228914   2.245   3.465  13.744  0.1491 -0.1576  0.4291
 2500TIP3    H128915   2.242   3.537  13.807 -0.4633  0.7911 -0.6664
 2500TIP3    H228916   2.185   3.399  13.780  0.6976 -0.1360  1.4241
 2501TIP3   OH228917   0.040   3.955   4.896  0.0244 -0.6801  0.4764
 2501TIP3    H128918  -0.036   3.902   4.873  1.6520 -3.0245  0.3524
 2501TIP3    H228919   0.079   3.979   4.812 -0.4940  0.4567  0.5430
 2502TIP3   OH228920   2.567   3.131  12.966 -0.1782  0.1842 -0.9466
 2502TIP3    H128921   2.657   3.135  12.933 -0.0871  0.9038 -0.6254
 2502TIP3    H228922   2.556   3.212  13.017 -0.3097 -0.8997  0.8022
 2503TIP3   OH228923   1.211   1.004  16.694  0.6411  0.5590 -0.7066
 2503TIP3    H128924   1.245   0.949  16.765  0.4608  0.7129 -0.4977
 2503TIP3    H228925   1.189   1.087  16.737 -0.9290  0.1176 -0.6488
 2504TIP3   OH228926   3.651   0.995  16.164  0.5026  0.4487  0.2147
 2504TIP3    H128927   3.598   1.034  16.095 -0.6361 -0.1981  0.7088
 2504TIP3    H228928   3.695   0.921  16.123 -0.1208  0.1045  0.1733
 2505TIP3   OH228929   3.896   2.864  11.537  0.5469  0.3217 -0.1141
 2505TIP3    H128930   3.844   2.806  11.593  0.0920  1.2021  0.3802
 2505TIP3    H228931   3.987   2.839  11.554  0.3167 -1.0512 -0.7887
 2506TIP3   OH228932   2.087   4.566  12.079 -0.1978 -0.6762 -0.3425
 2506TIP3    H128933   2.110   4.633  12.144  0.2400 -0.7616 -0.4111
 2506TIP3    H228934   2.106   4.606  11.995  2.0440 -1.6272 -0.3164
 2507TIP3   OH228935   4.249   6.296  15.412 -0.4357  0.0377 -0.3452
 2507TIP3    H128936   4.277   6.369  15.468 -4.0713  0.3980  1.1555
 2507TIP3    H228937   4.324   6.236  15.411  0.1201  0.4918  4.1413
 2508TIP3   OH228938   6.012   2.133  14.898  0.5163 -0.5384  0.6039
 2508TIP3    H128939   6.023   2.127  14.993  0.3234 -0.5800  0.6231
 2508TIP3    H228940   6.058   2.214  14.874  1.7070 -1.2167  0.5616
 2509TIP3   OH228941   2.140   6.481   2.432  0.3481  0.5460  0.3525
 2509TIP3    H128942   2.195   6.544   2.477  0.9229 -0.9104  1.7242
 2509TIP3    H228943   2.181   6.470   2.346  1.2076  0.7555  0.7402
 2510TIP3   OH228944   6.424   0.261   4.328 -0.3815  0.1290  0.6157
 2510TIP3    H128945   6.448   0.170   4.343 -0.7066 -0.1680 -0.5688
 2510TIP3    H228946   6.463   0.309   4.400 -0.0352 -0.9262  1.1363
 2511TIP3   OH228947   1.575   2.225  12.425 -0.0313 -0.4191  0.4322
 2511TIP3    H128948   1.579   2.165  12.351  2.1807 -1.2107  1.1348
 2511TIP3    H228949   1.503   2.285  12.405  0.5223 -0.6228 -2.3442
 2512TIP3   OH228950   4.349   6.638  12.989 -0.2735 -0.0090 -0.0870
 2512TIP3    H128951   4.268   6.590  13.006 -1.0310  0.7979 -1.3649
 2512TIP3    H228952   4.322   6.715  12.939  1.3033  0.1533 -0.7264
 2513TIP3   OH228953   4.380   1.149  11.448  0.4488 -0.2587 -0.3541
 2513TIP3    H128954   4.354   1.215  11.512  0.1985  0.6731 -1.4030
 2513TIP3    H228955   4.440   1.194  11.389  1.2741 -1.3175 -0.3409
 2514TIP3   OH228956   1.240   1.804   5.171 -0.1671 -0.4087  0.4285
 2514TIP3    H128957   1.318   1.800   5.226 -2.1084  1.4644  3.4713
 2514TIP3    H228958   1.256   1.878   5.113  0.8810 -0.8883  0.0913
 2515TIP3   OH228959   3.778   0.667  17.189  0.0584  0.1707 -0.7234
 2515TIP3    H128960   3.820   0.582  17.177 -0.1361 -0.0632  0.2327
 2515TIP3    H228961   3.709   0.669  17.122  0.6114 -0.0558 -1.3134
 2516TIP3   OH228962   3.685   0.430  16.295 -0.3015 -0.1489  0.1504
 2516TIP3    H128963   3.591   0.440  16.280 -0.1443  2.3016  0.5788
 2516TIP3    H228964   3.714   0.369  16.227 -2.2172 -1.0977  0.1462
 2517TIP3   OH228965   2.714   6.643  14.689  0.1992  0.1176 -0.1180
 2517TIP3    H128966   2.796   6.616  14.730 -0.3872  0.6985  1.5206
 2517TIP3    H228967   2.684   6.567  14.640 -0.2228 -1.4318  2.4512
 2518TIP3   OH228968   5.827   5.027   2.603  0.2760 -0.2812  0.1024
 2518TIP3    H128969   5.741   4.991   2.579  0.2005 -0.8382  1.1720
 2518TIP3    H228970   5.889   4.959   2.578  0.5260  0.6032 -1.7436
 2519TIP3   OH228971   5.070   0.436   5.143 -0.0258 -0.3068  0.2896
 2519TIP3    H128972   5.055   0.370   5.075  0.5829  0.9134 -1.0681
 2519TIP3    H228973   5.150   0.406   5.187  0.4868 -0.2846 -0.5966
 2520TIP3   OH228974   1.142   2.651   4.049  0.0469 -0.5223  0.0461
 2520TIP3    H128975   1.227   2.617   4.077  0.5695  0.8584  0.1794
 2520TIP3    H228976   1.133   2.624   3.958  1.6147  1.1979 -0.6304
 2521TIP3   OH228977   5.757   0.341   1.475  0.3135  0.4729 -0.8310
 2521TIP3    H128978   5.832   0.284   1.488 -0.4181 -0.1306  0.7519
 2521TIP3    H228979   5.786   0.402   1.407  0.7924 -2.2985 -3.2132
 2522TIP3   OH228980   0.363   2.249  10.226  0.4227 -0.4972 -0.0172
 2522TIP3    H128981   0.373   2.155  10.240 -0.8802 -0.7019 -0.3624
 2522TIP3    H228982   0.276   2.269  10.260  0.6929  0.5880  0.0511
 2523TIP3   OH228983   5.507   0.976   4.800  0.2610 -0.4966 -0.4740
 2523TIP3    H128984   5.448   0.926   4.856  1.2388 -1.9955 -0.7855
 2523TIP3    H228985   5.586   0.924   4.794  1.9524  1.8885  0.5746
 2524TIP3   OH228986   1.209   1.773   4.261 -0.2674 -0.0669  0.1374
 2524TIP3    H128987   1.262   1.853   4.254 -0.0815 -0.2042 -0.0302
 2524TIP3    H228988   1.272   1.706   4.289 -0.2411 -0.3521 -0.5883
 2525TIP3   OH228989   6.463   6.438   2.604 -0.2991  0.1698  0.1004
 2525TIP3    H128990   6.379   6.479   2.584 -1.2398 -2.1488 -0.8235
 2525TIP3    H228991   6.480   6.461   2.695 -1.4153  1.5485 -0.0281
 2526TIP3   OH228992   3.225   3.703  12.510  0.2041 -0.3983  0.0497
 2526TIP3    H128993   3.316   3.680  12.532  0.4212  0.8466  0.4728
 2526TIP3    H228994   3.199   3.766  12.577 -0.6721 -0.0399 -0.6184
 2527TIP3   OH228995   2.237   5.418   1.754 -0.7370  0.1233 -0.6330
 2527TIP3    H128996   2.294   5.348   1.786  1.4462  1.2070 -2.0436
 2527TIP3    H228997   2.230   5.402   1.660 -0.6335  1.4864 -0.8869
 2528TIP3   OH228998   5.110   3.633   3.243 -0.4077 -0.5172 -0.3660
 2528TIP3    H128999   5.158   3.583   3.308 -1.0049 -1.1396 -0.3953
 2528TIP3    H229000   5.018   3.621   3.267 -0.5940 -0.1934 -0.9144
 2529TIP3   OH229001   4.242   0.740  15.530  0.1306  0.0832 -0.1513
 2529TIP3    H129002   4.277   0.794  15.459 -2.5012  0.3677 -1.3076
 2529TIP3    H229003   4.251   0.650  15.498  0.5535  0.0998 -0.0823
 2530TIP3   OH229004   4.861   4.849   0.009 -0.8876  0.1104 -0.5647
 2530TIP3    H129005   4.891   4.898   0.085  2.3886 -0.6273 -1.2933
 2530TIP3    H229006   4.878   4.757   0.032  1.6502 -0.0241 -2.7213
 2531TIP3   OH229007   0.836   5.394  13.199 -0.5365  0.0935 -0.5487
 2531TIP3    H129008   0.805   5.377  13.288 -2.7002  0.2101 -1.2511
 2531TIP3    H229009   0.932   5.398  13.207 -0.8148  2.6598  2.2021
 2532TIP3   OH229010   0.132   4.939   1.498 -0.1370 -1.1058 -0.0320
 2532TIP3    H129011   0.088   4.906   1.419  0.3316 -1.4724 -0.1436
 2532TIP3    H229012   0.211   4.980   1.465 -0.5732 -0.1284  0.1370
 2533TIP3   OH229013   4.336   2.114  16.503 -0.4588  0.1042 -0.1775
 2533TIP3    H129014   4.278   2.189  16.489 -0.3182  0.3180  0.3766
 2533TIP3    H229015   4.280   2.038  16.489 -0.7724  0.3108 -0.0614
 2534TIP3   OH229016   4.106   6.398   3.113 -0.3214 -0.2306 -0.7275
 2534TIP3    H129017   4.158   6.346   3.051  0.4962  0.0418 -0.2739
 2534TIP3    H229018   4.042   6.336   3.148 -0.8834 -0.3619 -1.9320
 2535TIP3   OH229019   3.033   6.626  15.633 -0.1163 -0.8374 -0.2879
 2535TIP3    H129020   3.049   6.691  15.701 -1.2589 -0.7378 -0.1160
 2535TIP3    H229021   3.116   6.619  15.586  0.6513 -0.8335  1.0511
 2536TIP3   OH229022   4.882   4.991   1.643  0.0478 -0.4258  0.0048
 2536TIP3    H129023   4.895   4.897   1.651  0.2412 -0.4373 -0.4489
 2536TIP3    H229024   4.957   5.022   1.592 -1.4481 -0.4391 -2.2674
 2537TIP3   OH229025   3.901   1.071   2.940  0.0067  0.3467  0.1472
 2537TIP3    H129026   3.854   1.045   2.861  1.7834  0.7115 -1.0418
 2537TIP3    H229027   3.839   1.127   2.987  0.2341  3.2277 -2.8104
 2538TIP3   OH229028   5.635   6.647   1.071  0.5142 -0.3210 -0.0618
 2538TIP3    H129029   5.629   6.690   0.986 -2.4406 -1.6574 -0.5872
 2538TIP3    H229030   5.723   6.611   1.074  0.6406 -0.2772 -2.5672
 2539TIP3   OH229031   0.194   4.828  12.642  0.3525  0.3446 -0.1244
 2539TIP3    H129032   0.178   4.912  12.685 -0.9341  0.7900 -1.4003
 2539TIP3    H229033   0.137   4.830  12.565 -1.6429 -2.7545  1.1607
 2540TIP3   OH229034   5.475   5.117   1.308  0.3855 -0.0438  0.5826
 2540TIP3    H129035   5.558   5.165   1.313  0.0390  0.4686  1.5836
 2540TIP3    H229036   5.409   5.182   1.332 -0.1647 -0.8381  1.2441
 2541TIP3   OH229037   6.344   3.378  10.696 -0.2377  0.2305 -0.2901
 2541TIP3    H129038   6.299   3.340  10.620 -0.6619 -0.7496  0.4374
 2541TIP3    H229039   6.274   3.418  10.748 -0.0831 -0.0089  0.1034
 2542TIP3   OH229040   3.025   4.755  14.655  0.3831  0.2120 -0.1430
 2542TIP3    H129041   3.034   4.700  14.577 -0.9123 -1.0131  0.5382
 2542TIP3    H229042   3.000   4.694  14.725  0.9624  1.3741  1.1073
 2543TIP3   OH229043   6.066   2.940  11.183 -0.6261 -0.7987 -0.1636
 2543TIP3    H129044   6.038   3.008  11.122 -0.5737  0.1764  0.9006
 2543TIP3    H229045   6.151   2.912  11.150 -0.7979 -0.5942 -0.7948
 2544TIP3   OH229046   1.026   3.007   3.976  0.4973 -0.7162  0.0693
 2544TIP3    H129047   0.991   2.966   4.056  0.0277 -2.1289 -0.8302
 2544TIP3    H229048   1.072   2.935   3.931  0.5849  0.0132 -1.0247
 2545TIP3   OH229049   5.629   5.182  13.804 -0.0885  0.2518  0.5846
 2545TIP3    H129050   5.542   5.165  13.768 -0.0469  2.4416 -0.6351
 2545TIP3    H229051   5.614   5.244  13.876  0.4575  0.6989  0.3165
 2546TIP3   OH229052   2.397   6.376   3.882  0.4359  0.4334 -0.3505
 2546TIP3    H129053   2.345   6.439   3.832 -0.8288 -0.2624  0.0858
 2546TIP3    H229054   2.341   6.351   3.955  2.2222  1.3579  1.3987
 2547TIP3   OH229055   6.775   5.536   3.288 -0.0056  0.3711 -0.2960
 2547TIP3    H129056   6.721   5.555   3.211 -0.9946  0.5045  0.4152
 2547TIP3    H229057   6.739   5.592   3.357 -0.5274 -1.2957  0.8330
 2548TIP3   OH229058   0.308   2.604  13.611  0.1903 -0.8535  0.3315
 2548TIP3    H129059   0.271   2.691  13.607 -0.5694 -1.2387 -1.2799
 2548TIP3    H229060   0.386   2.608  13.556  0.6207 -0.9729  0.9221
 2549TIP3   OH229061   0.006   2.722   3.352  0.0326  0.1944  0.1563
 2549TIP3    H129062   0.081   2.723   3.292  0.3193 -0.8350  0.4887
 2549TIP3    H229063  -0.026   2.812   3.352  0.3642  0.3169 -1.1292
 2550TIP3   OH229064   5.647   1.701   4.812 -0.0354  0.2933 -0.0458
 2550TIP3    H129065   5.701   1.653   4.875 -0.7944  0.5250  0.7905
 2550TIP3    H229066   5.564   1.653   4.809  0.1864 -0.0395 -1.2956
 2551TIP3   OH229067   4.170   3.395   0.553  0.0703  0.4660  0.2945
 2551TIP3    H129068   4.238   3.363   0.611 -1.2352 -0.1084  1.5418
 2551TIP3    H229069   4.138   3.475   0.594  0.0806  0.8157 -0.3611
 2552TIP3   OH229070   0.495   6.679   3.662 -0.2865  1.2266  0.6445
 2552TIP3    H129071   0.516   6.672   3.569  0.2448  0.9435  0.7834
 2552TIP3    H229072   0.470   6.590   3.687 -0.2175  1.2576  0.8242
 2553TIP3   OH229073   0.615   5.837  11.232  0.1857  0.1083  0.6671
 2553TIP3    H129074   0.680   5.876  11.291  0.8570 -0.5366  0.3592
 2553TIP3    H229075   0.648   5.855  11.144  0.7724 -1.5847  0.5200
 2554TIP3   OH229076   0.861   5.919   4.353 -0.2186  0.2483  0.3488
 2554TIP3    H129077   0.810   5.885   4.279 -3.1398  1.0960  1.9071
 2554TIP3    H229078   0.869   6.013   4.336  0.8843  0.1138  0.0947
 2555TIP3   OH229079   0.992   1.427   1.228 -0.1081  0.1592  0.2333
 2555TIP3    H129080   1.007   1.335   1.251 -2.5574 -0.4759 -0.4851
 2555TIP3    H229081   0.994   1.473   1.312  1.2881 -0.5349  0.5888
 2556TIP3   OH229082   6.724   5.622   5.022  0.1757  0.4555 -0.4631
 2556TIP3    H129083   6.735   5.708   5.062 -1.0465  0.0517  0.7993
 2556TIP3    H229084   6.812   5.597   4.994  1.1541  0.6398  2.2899
 2557TIP3   OH229085   1.265   0.438   0.425  0.0387  0.0951 -0.2148
 2557TIP3    H129086   1.335   0.451   0.488  0.3684 -2.2957 -0.0104
 2557TIP3    H229087   1.311   0.419   0.343 -0.3861  1.6723 -0.8292
 2558TIP3   OH229088   5.805   6.606  15.921  0.0821  0.6127  0.5464
 2558TIP3    H129089   5.834   6.515  15.910 -0.1181  0.5493  0.5479
 2558TIP3    H229090   5.867   6.643  15.984 -1.0127 -0.0747  2.0316
 2559TIP3   OH229091   0.981   0.791   0.417 -0.0084  0.0154  0.0016
 2559TIP3    H129092   0.926   0.772   0.341  0.9324  0.4198 -0.7979
 2559TIP3    H229093   0.962   0.882   0.438  0.0447  0.0281 -0.0062
 2560TIP3   OH229094   1.693   5.308   2.640 -0.5926  0.1052  0.0473
 2560TIP3    H129095   1.601   5.312   2.613 -0.8328 -0.1377  0.8050
 2560TIP3    H229096   1.740   5.282   2.561 -1.1990  0.0608 -0.3039
 2561TIP3   OH229097   3.713   6.251  14.508 -0.2016  0.0143 -0.5455
 2561TIP3    H129098   3.800   6.291  14.505 -0.2943  0.4981  2.5097
 2561TIP3    H229099   3.660   6.312  14.559 -2.2285 -0.5201 -1.9598
 2562TIP3   OH229100   5.004   0.150  14.445 -0.1464 -0.4771  0.1149
 2562TIP3    H129101   5.043   0.073  14.487  0.6272 -0.5391 -0.7009
 2562TIP3    H229102   5.076   0.213  14.441 -0.8825  0.4477  1.1486
 2563TIP3   OH229103   0.539   3.259  15.660 -0.7482  0.0282  0.4073
 2563TIP3    H129104   0.594   3.335  15.679  0.5634 -0.9919  0.7501
 2563TIP3    H229105   0.570   3.227  15.575 -1.8049  0.3225 -0.0952
 2564TIP3   OH229106   0.119   0.835   2.647 -0.1732  0.2547  0.0784
 2564TIP3    H129107   0.076   0.835   2.732 -2.3938 -0.7831 -1.0083
 2564TIP3    H229108   0.168   0.752   2.645  1.8781  1.3911  1.2723
 2565TIP3   OH229109   6.179   6.317   4.384  0.0741 -0.0152  0.0693
 2565TIP3    H129110   6.250   6.374   4.355 -0.5075  0.4178 -0.5240
 2565TIP3    H229111   6.205   6.230   4.356  0.1010  0.2238 -0.6534
 2566TIP3   OH229112   4.211   0.223  11.447  0.3106  0.5100 -0.3736
 2566TIP3    H129113   4.249   0.184  11.369 -0.9587 -1.8013  0.1113
 2566TIP3    H229114   4.271   0.200  11.518 -0.6422 -0.9113 -0.0228
 2567TIP3   OH229115   4.945   2.731  11.396 -0.3979 -0.6289 -0.2639
 2567TIP3    H129116   4.981   2.649  11.363  0.3716  0.3257 -1.9124
 2567TIP3    H229117   4.862   2.742  11.348  0.3022  0.3418 -1.2808
 2568TIP3   OH229118   4.834   4.795  13.480  0.1965  0.3688  0.3955
 2568TIP3    H129119   4.756   4.831  13.522 -0.3904  0.5754 -0.8527
 2568TIP3    H229120   4.831   4.828  13.390  1.4547 -0.0311  0.1837
 2569TIP3   OH229121   0.919   3.015   0.289 -0.5975  0.2016  0.4547
 2569TIP3    H129122   0.874   3.089   0.329 -1.1324 -0.3222  0.8276
 2569TIP3    H229123   0.880   3.008   0.201 -2.6240 -1.4322  1.4471
 2570TIP3   OH229124   2.836   5.925  13.553  0.0099 -0.3896  0.2932
 2570TIP3    H129125   2.751   5.943  13.593  1.3024  2.3356  1.9146
 2570TIP3    H229126   2.825   5.952  13.461 -1.3341 -1.5712  0.0915
 2571TIP3   OH229127   4.251   2.144  15.166  0.7758 -0.1953 -0.0946
 2571TIP3    H129128   4.317   2.144  15.235  0.9648 -2.0286 -0.2555
 2571TIP3    H229129   4.168   2.128  15.212  0.8934 -1.3477 -0.2839
 2572TIP3   OH229130   3.882   6.347  16.793 -0.0723  0.3070 -0.0286
 2572TIP3    H129131   3.968   6.387  16.810 -0.7100  1.1403  1.3907
 2572TIP3    H229132   3.892   6.256  16.820  0.6355  0.1676 -0.7538
 2573TIP3   OH229133   3.654   3.032   3.577 -0.4584  0.4565  0.0944
 2573TIP3    H129134   3.613   2.948   3.555 -0.5177  0.7292 -0.8531
 2573TIP3    H229135   3.582   3.087   3.608 -0.9833  1.2363 -2.4381
 2574TIP3   OH229136   2.337   3.351   4.498  0.3547  0.0950 -0.1064
 2574TIP3    H129137   2.315   3.296   4.423  0.0516 -2.1314  1.5428
 2574TIP3    H229138   2.421   3.317   4.530  0.4266  0.9292  0.6293
 2575TIP3   OH229139   2.830   2.643  11.788  0.3334 -0.4642  0.3833
 2575TIP3    H129140   2.809   2.735  11.776  0.6338 -0.3575  0.6617
 2575TIP3    H229141   2.908   2.628  11.735  0.8531 -0.3224  1.0961
 2576TIP3   OH229142   1.389   6.693  12.511  0.5253 -0.3811  0.1868
 2576TIP3    H129143   1.445   6.734  12.444 -0.2604 -1.5610 -1.2287
 2576TIP3    H229144   1.447   6.631  12.556  0.8421 -0.2226 -0.0005
 2577TIP3   OH229145   3.972   5.998   0.447  0.1640 -0.3829  0.0479
 2577TIP3    H129146   4.028   5.947   0.506 -0.4672 -0.4429  0.6077
 2577TIP3    H229147   3.888   5.953   0.450 -0.2657  0.4223  0.1810
 2578TIP3   OH229148   4.127   3.603  13.509 -0.3159  0.2608 -0.1245
 2578TIP3    H129149   4.103   3.527  13.561  0.1445 -0.0425 -0.3541
 2578TIP3    H229150   4.212   3.581  13.471 -0.3143  0.7687 -0.4262
 2579TIP3   OH229151   4.868   1.867  13.791  0.0793 -0.1646  0.1693
 2579TIP3    H129152   4.879   1.815  13.870 -1.6610 -1.1982 -0.2359
 2579TIP3    H229153   4.810   1.939  13.817  2.8937  1.9544  0.8621
 2580TIP3   OH229154   1.906   1.134  11.113  0.2818  0.2578 -0.1364
 2580TIP3    H129155   1.948   1.049  11.127 -0.4945 -0.1197 -0.1022
 2580TIP3    H229156   1.918   1.152  11.020 -0.3944 -0.3313 -0.3359
 2581TIP3   OH229157   0.656   5.363  16.515  0.2799 -0.0603  0.2124
 2581TIP3    H129158   0.590   5.338  16.450  0.3775  0.1061  0.0479
 2581TIP3    H229159   0.669   5.457  16.501  3.3842 -0.7941 -2.3424
 2582TIP3   OH229160   0.936   4.827  15.175  0.1182 -0.2034 -0.8106
 2582TIP3    H129161   1.003   4.814  15.107  0.3576 -3.7968 -0.0200
 2582TIP3    H229162   0.854   4.832  15.126  0.7581  2.7032 -1.6833
 2583TIP3   OH229163   1.302   5.178  12.072  0.1831 -0.1663 -0.0393
 2583TIP3    H129164   1.223   5.196  12.021 -0.1568 -0.7759  0.2578
 2583TIP3    H229165   1.273   5.181  12.163  1.0342  2.0649  0.1873
 2584TIP3   OH229166   0.980   2.216  17.121 -0.7449 -0.3089 -0.1776
 2584TIP3    H129167   0.917   2.250  17.058 -2.4658  0.8473  2.0671
 2584TIP3    H229168   1.039   2.290  17.138  2.4019 -1.8916 -3.5677
 2585TIP3   OH229169   0.208   6.430   6.355  0.7315 -0.1148  0.4968
 2585TIP3    H129170   0.212   6.453   6.263  0.2465 -0.2882  0.4301
 2585TIP3    H229171   0.183   6.337   6.356 -1.3967  0.4280  0.8248
 2586TIP3   OH229172   4.602   1.470   4.018 -0.3624  0.2427  0.0185
 2586TIP3    H129173   4.566   1.415   4.088  4.9146 -1.3487  1.7040
 2586TIP3    H229174   4.613   1.556   4.059  1.3271 -0.2997  0.7383
 2587TIP3   OH229175   5.796   4.361  15.959 -0.3437  0.4254  0.0345
 2587TIP3    H129176   5.821   4.431  16.019 -1.8401  1.8299 -0.9353
 2587TIP3    H229177   5.870   4.354  15.899  0.2150  0.5453  0.7066
 2588TIP3   OH229178   4.373   5.398   0.635 -0.1522 -0.3109  0.8703
 2588TIP3    H129179   4.287   5.437   0.653 -0.3387 -0.1288 -0.3319
 2588TIP3    H229180   4.394   5.348   0.714 -2.0323 -1.5408  0.6246
 2589TIP3   OH229181   3.983   2.658   2.685  0.1803 -0.1853  0.2406
 2589TIP3    H129182   4.030   2.574   2.688 -0.8760 -0.8021 -0.3699
 2589TIP3    H229183   3.925   2.650   2.610 -0.8801  0.5934  0.9750
 2590TIP3   OH229184   4.182   6.643   4.479 -0.0000  0.2078  0.4580
 2590TIP3    H129185   4.203   6.648   4.386  1.9265  1.0142  0.9076
 2590TIP3    H229186   4.094   6.681   4.486 -1.1050 -1.9522 -1.3015
 2591TIP3   OH229187   2.489   6.418  12.225 -0.2483  0.0081  0.7504
 2591TIP3    H129188   2.528   6.405  12.138  2.0524  1.8580  1.4693
 2591TIP3    H229189   2.533   6.353  12.280  1.0232  1.3008  1.3007
 2592TIP3   OH229190   1.223   2.384   6.351 -0.0514 -0.0491  0.0689
 2592TIP3    H129191   1.163   2.376   6.278 -0.8536  0.3967  0.6712
 2592TIP3    H229192   1.183   2.448   6.410  0.8455  0.0167  0.6381
 2593TIP3   OH229193   5.767   5.955  14.599  0.2313 -0.1377 -0.0696
 2593TIP3    H129194   5.848   5.988  14.639 -0.0492 -0.3837  0.7216
 2593TIP3    H229195   5.738   6.026  14.542  0.7930  0.1136 -0.0447
 2594TIP3   OH229196   1.835   1.402   0.539  0.2308 -0.0292 -0.6038
 2594TIP3    H129197   1.919   1.357   0.530  0.1587  0.2298 -2.6515
 2594TIP3    H229198   1.857   1.494   0.547  0.2241 -0.1357  0.8616
 2595TIP3   OH229199   2.085   5.125   6.262  0.1854 -0.3942  0.3060
 2595TIP3    H129200   2.160   5.086   6.307  0.4307 -0.2888 -0.0065
 2595TIP3    H229201   2.009   5.086   6.303  0.4348 -1.8170 -0.5558
 2596TIP3   OH229202   2.442   6.753   5.276  0.0122 -0.2075  0.7599
 2596TIP3    H129203   2.422   6.738   5.368 -0.8024  0.8671  0.7717
 2596TIP3    H229204   2.519   6.810   5.277 -0.2728  0.1819  0.7909
 2597TIP3   OH229205   4.544   0.566  11.427  0.0611  0.7566  0.0113
 2597TIP3    H129206   4.518   0.622  11.500 -0.2591 -0.9842  1.2751
 2597TIP3    H229207   4.461   0.530  11.394  0.4461 -1.2888  1.1578
 2598TIP3   OH229208   5.223   0.819  15.630  0.1462 -0.6905  0.0522
 2598TIP3    H129209   5.187   0.899  15.592  1.0514  1.3033  3.2085
 2598TIP3    H229210   5.186   0.749  15.576 -0.1188  1.8230 -3.2405
 2599TIP3   OH229211   1.372   1.155  13.425  0.3462  0.1481 -0.0359
 2599TIP3    H129212   1.450   1.203  13.397 -0.3709  0.8474 -0.8746
 2599TIP3    H229213   1.389   1.132  13.516  1.4555  0.4465 -0.1586
 2600TIP3   OH229214   1.319   2.482  14.726  0.2214 -0.2084 -0.0150
 2600TIP3    H129215   1.274   2.428  14.662  1.2057 -0.3739 -0.5844
 2600TIP3    H229216   1.256   2.495  14.797 -0.9724  0.2336 -1.1553
 2601TIP3   OH229217   4.840   4.888  11.927  0.0884  0.0421  0.9657
 2601TIP3    H129218   4.805   4.808  11.965  0.1246  0.2369  1.4152
 2601TIP3    H229219   4.787   4.958  11.964 -0.4558  0.1671 -0.0359
 2602TIP3   OH229220   2.148   0.014   5.486  0.7463  0.3636 -0.6464
 2602TIP3    H129221   2.154  -0.076   5.518 -3.0453 -0.1964 -1.1928
 2602TIP3    H229222   2.153   0.006   5.391  1.8896  0.9099 -0.6390
 2603TIP3   OH229223   5.687   0.954  11.642  0.3738  0.3120  0.3933
 2603TIP3    H129224   5.719   1.044  11.639  1.6783 -0.1589 -0.8279
 2603TIP3    H229225   5.626   0.951  11.715  1.0546  1.9498  1.0299
 2604TIP3   OH229226   1.706   0.281  12.589  0.5114  0.0134  0.0194
 2604TIP3    H129227   1.729   0.213  12.526  0.3674  0.6946 -0.7926
 2604TIP3    H229228   1.642   0.240  12.647  0.0805 -0.4080 -0.7456
 2605TIP3   OH229229   0.870   2.183   5.328 -0.5665 -0.2087 -0.2542
 2605TIP3    H129230   0.804   2.147   5.387 -1.0002  0.1422 -0.5307
 2605TIP3    H229231   0.896   2.108   5.273  0.2021 -0.6606  0.7073
 2606TIP3   OH229232   6.679   3.972  12.615 -0.3214  0.6470  0.3128
 2606TIP3    H129233   6.611   3.941  12.555  1.3091 -2.4267 -0.0480
 2606TIP3    H229234   6.651   3.940  12.701 -0.1617  0.7852  0.4162
 2607TIP3   OH229235   6.319   4.000   4.405 -0.1102  0.1976 -0.0408
 2607TIP3    H129236   6.255   4.012   4.335 -0.8992 -0.1037  0.6177
 2607TIP3    H229237   6.381   3.936   4.370 -0.5916 -0.0767 -0.4041
 2608TIP3   OH229238   0.425   2.187  11.819  0.5040 -0.5072  0.2517
 2608TIP3    H129239   0.354   2.250  11.815  0.1520 -0.7784  1.8807
 2608TIP3    H229240   0.491   2.228  11.875  0.5944 -1.2414  0.7032
 2609TIP3   OH229241   1.581   3.698   4.177  0.1829  0.4792  0.0562
 2609TIP3    H129242   1.628   3.774   4.211  0.2255  0.3771  0.2268
 2609TIP3    H229243   1.646   3.652   4.124  0.1437  0.5867 -0.0867
 2610TIP3   OH229244   1.095   0.857  14.828 -0.2033  0.6494 -0.6501
 2610TIP3    H129245   1.091   0.854  14.924 -2.1913  0.5679 -0.7144
 2610TIP3    H229246   1.092   0.950  14.807  0.0803  0.6618 -0.6322
 2611TIP3   OH229247   5.005   4.467   5.129  0.1863  0.0180  1.1100
 2611TIP3    H129248   4.927   4.451   5.182 -0.1165 -1.1505  0.3238
 2611TIP3    H229249   5.033   4.381   5.100 -1.0203  0.7665 -2.5635
 2612TIP3   OH229250   0.879   2.504   1.966  0.0483 -0.2339  0.4626
 2612TIP3    H129251   0.914   2.576   1.915 -1.5105 -0.4465 -0.9419
 2612TIP3    H229252   0.950   2.440   1.970  0.9792  0.8105  0.5899
 2613TIP3   OH229253   4.406   0.208   3.132 -0.1639 -0.5104  0.4347
 2613TIP3    H129254   4.350   0.246   3.064 -1.3875 -2.0312  0.5680
 2613TIP3    H229255   4.433   0.283   3.185 -0.6575  0.4701 -0.6669
 2614TIP3   OH229256   5.203   4.310   1.357  0.6205  0.2613  0.3249
 2614TIP3    H129257   5.250   4.381   1.314  1.0938 -0.9774 -1.2339
 2614TIP3    H229258   5.171   4.255   1.286 -0.3699 -0.6993  1.4845
 2615TIP3   OH229259   1.043   4.124   3.313  0.1478  0.5114  0.1343
 2615TIP3    H129260   1.037   4.212   3.350 -0.3105  0.8753 -0.8032
 2615TIP3    H229261   1.053   4.067   3.389  0.2674  1.3549  0.7580
 2616TIP3   OH229262   4.962   6.226   3.523  0.0164 -0.1615 -0.4074
 2616TIP3    H129263   4.885   6.240   3.468  0.3119  1.7751 -0.3788
 2616TIP3    H229264   5.032   6.276   3.480  0.6290  0.1302  0.8921
 2617TIP3   OH229265   4.348   0.124   3.908  0.3316 -0.3503 -0.0850
 2617TIP3    H129266   4.395   0.073   3.843 -0.9369 -1.3436 -0.2506
 2617TIP3    H229267   4.275   0.164   3.859  0.0778 -0.1149  0.4742
 2618TIP3   OH229268   2.756   6.524   3.614 -0.4878 -0.1651  0.1735
 2618TIP3    H129269   2.820   6.545   3.545 -0.4386 -1.9271 -0.3299
 2618TIP3    H229270   2.797   6.453   3.664 -2.8267 -2.6223 -1.2995
 2619TIP3   OH229271   5.211   4.785   4.686 -0.0987  0.5051 -0.5739
 2619TIP3    H129272   5.214   4.778   4.591  3.0457  0.2823 -0.5287
 2619TIP3    H229273   5.245   4.872   4.705 -3.6284  1.7640  0.2811
 2620TIP3   OH229274   4.595   4.555   1.702  0.2760  0.7624 -0.0062
 2620TIP3    H129275   4.642   4.575   1.621  0.4701  0.3083 -0.0045
 2620TIP3    H229276   4.579   4.641   1.742  0.7569  0.9420 -0.1997
 2621TIP3   OH229277   3.823   4.216   1.480  0.1700 -0.5711 -0.3557
 2621TIP3    H129278   3.835   4.135   1.430  0.8623 -1.9477  1.9970
 2621TIP3    H229279   3.755   4.195   1.544  0.3713  0.6975  0.2923
 2622TIP3   OH229280   6.641   4.899   1.320 -0.3120  0.5512  0.3441
 2622TIP3    H129281   6.647   4.811   1.358 -1.5284  0.5562  0.5531
 2622TIP3    H229282   6.581   4.889   1.246  1.9065  0.5735 -1.5181
 2623TIP3   OH229283   3.591   2.404  16.993  0.0082 -0.0754 -0.3776
 2623TIP3    H129284   3.561   2.328  17.042 -1.0170 -0.6375 -1.8341
 2623TIP3    H229285   3.544   2.478  17.031  0.1419 -0.3269  0.2799
 2624TIP3   OH229286   6.442   0.536   5.965  0.6779  0.1207  0.4920
 2624TIP3    H129287   6.513   0.499   6.019  1.9295 -1.8785 -2.3954
 2624TIP3    H229288   6.471   0.522   5.875 -3.4120 -0.7548 -0.7792
 2625TIP3   OH229289   4.321   4.413  15.185 -0.4029 -1.0981  0.2632
 2625TIP3    H129290   4.334   4.473  15.259 -1.1087 -1.7944  0.9672
 2625TIP3    H229291   4.372   4.451  15.114  1.1704 -0.9908  1.4139
 2626TIP3   OH229292   5.216   2.979  14.318  0.1641  0.1624 -0.0662
 2626TIP3    H129293   5.261   3.030  14.251  1.2138  0.7888  1.0937
 2626TIP3    H229294   5.194   2.896  14.275 -0.9196  1.2868 -1.7464
 2627TIP3   OH229295   5.847   0.609  10.558  0.0583  0.2338  0.1405
 2627TIP3    H129296   5.859   0.611  10.653  1.8621 -3.8618  0.1085
 2627TIP3    H229297   5.824   0.518  10.539  0.1452  0.8971 -3.4155
 2628TIP3   OH229298   4.502   4.704   5.005 -0.4757  0.4596  0.3291
 2628TIP3    H129299   4.528   4.791   4.977 -0.2416  0.5539  0.8361
 2628TIP3    H229300   4.563   4.682   5.075  1.5350 -1.3884 -1.9058
 2629TIP3   OH229301   2.461   3.482  15.507  0.3233  0.2411 -0.0281
 2629TIP3    H129302   2.552   3.501  15.485  0.7146  0.6216  1.7929
 2629TIP3    H229303   2.444   3.396  15.469  2.2190 -0.9179  1.6491
 2630TIP3   OH229304   4.743   4.550   1.459 -0.1287  0.0322  0.6179
 2630TIP3    H129305   4.685   4.544   1.383  3.3666 -0.0773 -2.1425
 2630TIP3    H229306   4.749   4.460   1.492  1.0243 -0.5531 -1.1125
 2631TIP3   OH229307   0.271   0.412   3.622  0.0204 -0.0871  0.6721
 2631TIP3    H129308   0.179   0.402   3.647  0.2844  0.2334  1.8139
 2631TIP3    H229309   0.290   0.505   3.636  0.3995 -0.0631  0.0162
 2632TIP3   OH229310   5.236   0.943  15.311  0.2812  0.4622  0.5031
 2632TIP3    H129311   5.287   0.865  15.289  0.9463  0.7611  0.9461
 2632TIP3    H229312   5.258   1.006  15.242 -0.1899  0.2903  0.1931
 2633TIP3   OH229313   3.994   1.901   1.575 -0.3006  0.6625  0.5917
 2633TIP3    H129314   4.038   1.945   1.648  1.7850  0.5573 -0.5487
 2633TIP3    H229315   4.060   1.840   1.541 -1.6369 -0.1081 -0.6495
 2634TIP3   OH229316   5.023   3.552   5.034  0.2088  0.2695  0.3276
 2634TIP3    H129317   5.043   3.586   5.121 -1.1782  1.6786  0.1185
 2634TIP3    H229318   4.988   3.627   4.986  0.3479 -0.6426 -1.2465
 2635TIP3   OH229319   3.263   4.050   5.280  0.2930 -0.3459 -0.5506
 2635TIP3    H129320   3.326   4.106   5.324 -2.8228  1.9027  1.2057
 2635TIP3    H229321   3.255   4.087   5.192  0.8087 -0.1953 -0.5354
 2636TIP3   OH229322   5.372   0.669   0.816  0.0271 -0.8742  0.6397
 2636TIP3    H129323   5.347   0.583   0.780 -0.5557 -0.2156 -0.5600
 2636TIP3    H229324   5.433   0.648   0.887  0.1310 -2.2749  0.1608
 2637TIP3   OH229325   4.633   5.364  15.126 -0.2956  0.4509  0.0816
 2637TIP3    H129326   4.679   5.347  15.209  1.3945  1.5206 -0.5949
 2637TIP3    H229327   4.613   5.457  15.129  1.3199  0.8795 -1.4321
 2638TIP3   OH229328   3.954   6.318  13.906 -0.2200  0.2943  0.1834
 2638TIP3    H129329   3.908   6.249  13.858  0.8063  0.6775 -1.4037
 2638TIP3    H229330   3.912   6.321  13.992 -0.3009 -2.2673  0.2612
 2639TIP3   OH229331   0.394   0.021   3.363  0.1326 -0.5500  0.0547
 2639TIP3    H129332   0.489   0.025   3.365  0.1207 -0.0590 -0.1690
 2639TIP3    H229333   0.366   0.080   3.433 -0.0296  1.2946 -1.5394
 2640TIP3   OH229334   4.779   3.456   4.730 -0.3037  0.6758  0.0454
 2640TIP3    H129335   4.735   3.450   4.645  0.6107 -0.4799 -0.3581
 2640TIP3    H229336   4.849   3.391   4.725  1.2888  2.2922  0.7794
 2641TIP3   OH229337   2.845   0.861  15.451  0.0343  0.0762  0.6890
 2641TIP3    H129338   2.868   0.800  15.521  1.0604  1.4703  1.5824
 2641TIP3    H229339   2.896   0.939  15.469  2.7390 -0.6174 -3.3503
 2642TIP3   OH229340   3.004   2.934   3.306 -0.5986  0.3982  0.4200
 2642TIP3    H129341   2.958   2.903   3.228 -0.1629  0.6809  0.0476
 2642TIP3    H229342   3.006   2.858   3.364 -0.7946  0.1419  0.0943
 2643TIP3   OH229343   4.447   3.070  15.218 -0.3931 -0.4258 -0.0924
 2643TIP3    H129344   4.421   3.155  15.252 -0.0724  0.1361 -1.2343
 2643TIP3    H229345   4.496   3.090  15.138 -0.5438 -1.6915 -0.5092
 2644TIP3   OH229346   4.393   2.127  15.417 -0.2581  0.3386  0.2063
 2644TIP3    H129347   4.371   2.138  15.510 -0.3713 -1.3841  0.4028
 2644TIP3    H229348   4.486   2.149  15.412  0.0975 -0.9160  0.9970
 2645TIP3   OH229349   0.151   4.284  12.973 -0.8282 -0.3947 -0.5207
 2645TIP3    H129350   0.076   4.344  12.974 -2.1042 -1.9478  0.6379
 2645TIP3    H229351   0.111   4.197  12.966  0.8082 -1.3273  1.2084
 2646TIP3   OH229352   0.461   1.116   4.669  0.1103  0.3857  0.5033
 2646TIP3    H129353   0.372   1.126   4.634 -0.1588  0.5667  1.2314
 2646TIP3    H229354   0.518   1.147   4.599 -0.3890  0.0590 -0.0573
 2647TIP3   OH229355   2.677   4.007   5.455  0.3073  0.0614  0.0574
 2647TIP3    H129356   2.683   4.005   5.360 -1.3579  2.2118 -0.1270
 2647TIP3    H229357   2.662   4.099   5.477  1.0967 -0.3235  2.4295
 2648TIP3   OH229358   2.111   0.459   0.056  0.6224 -0.4351  0.7405
 2648TIP3    H129359   2.085   0.449   0.147 -0.2849  1.2636  0.6942
 2648TIP3    H229360   2.037   0.504   0.014  1.4260 -0.3089 -0.5952
 2649TIP3   OH229361   4.401   0.609  12.835 -0.3831 -0.2790  0.2013
 2649TIP3    H129362   4.478   0.553  12.826  0.6520  0.9801  1.0251
 2649TIP3    H229363   4.423   0.688  12.786 -0.8542  0.3813  1.0392
 2650TIP3   OH229364   1.292   1.411  13.273 -0.5746 -0.2424  0.3985
 2650TIP3    H129365   1.268   1.333  13.321 -0.3509 -0.9690 -0.6545
 2650TIP3    H229366   1.219   1.472  13.288 -1.7315 -1.3914 -0.4449
 2651TIP3   OH229367   0.531   0.866   1.123  0.0331 -0.3971 -0.6378
 2651TIP3    H129368   0.612   0.914   1.142  0.2234 -1.3660  1.1083
 2651TIP3    H229369   0.560   0.780   1.092 -0.3270  0.0814 -2.3772
 2652TIP3   OH229370   3.583   1.971  14.424 -0.6800 -0.1960  0.0314
 2652TIP3    H129371   3.617   1.962  14.335 -2.3269  0.8552 -0.7339
 2652TIP3    H229372   3.502   1.919  14.424  0.4315 -1.9698  1.5658
 2653TIP3   OH229373   6.137   2.006  11.622  0.1492 -0.1067 -0.3825
 2653TIP3    H129374   6.052   2.042  11.595 -1.3845 -3.1924  0.0493
 2653TIP3    H229375   6.163   2.061  11.696 -1.6956  0.6667 -0.2669
 2654TIP3   OH229376   2.097   0.211   3.242 -0.1738  0.2225 -0.0444
 2654TIP3    H129377   2.019   0.190   3.295 -0.5896  1.5274 -0.1178
 2654TIP3    H229378   2.120   0.300   3.268  2.4672 -0.8286  1.3815
 2655TIP3   OH229379   5.204   4.365   2.790 -0.1299  0.2710 -0.3543
 2655TIP3    H129380   5.149   4.291   2.764 -0.3143  0.4733 -0.5277
 2655TIP3    H229381   5.144   4.429   2.827  0.2019 -0.2860  1.1907
 2656TIP3   OH229382   2.469   3.763  11.619  0.1676 -0.1086 -0.1295
 2656TIP3    H129383   2.539   3.784  11.557 -0.0468  2.0653  0.3274
 2656TIP3    H229384   2.416   3.697  11.574  1.2137 -0.0956 -1.4015
 2657TIP3   OH229385   0.800   3.988   6.337 -0.0824 -0.2142 -0.1157
 2657TIP3    H129386   0.742   3.912   6.329 -0.3955 -0.0678  0.7028
 2657TIP3    H229387   0.805   4.004   6.431  0.3160  0.5305 -0.2613
 2658TIP3   OH229388   6.002   5.586   0.310 -0.1999  0.0239 -0.1105
 2658TIP3    H129389   5.912   5.589   0.340 -0.0720 -0.1386  0.2931
 2658TIP3    H229390   6.037   5.504   0.344  0.9965  1.5048  2.3478
 2659TIP3   OH229391   4.483   3.801   5.776 -0.5730 -0.4183 -0.2141
 2659TIP3    H129392   4.409   3.862   5.769 -0.7850 -0.3055  2.2863
 2659TIP3    H229393   4.456   3.725   5.725 -3.1708 -1.0338  1.9506
 2660TIP3   OH229394   4.226   1.529   3.730  0.0145 -0.0716  0.0030
 2660TIP3    H129395   4.306   1.582   3.739  0.1324 -0.5617  2.3646
 2660TIP3    H229396   4.192   1.523   3.819 -1.8156 -1.1897 -0.7477
 2661TIP3   OH229397   3.479   4.929  15.590 -0.3787 -0.3353  0.1604
 2661TIP3    H129398   3.553   4.879  15.625  0.3865  0.2729 -0.5575
 2661TIP3    H229399   3.473   4.902  15.499 -0.7036  0.0020  0.0807
 2662TIP3   OH229400   0.584   1.290   0.360  0.3200 -0.8137  0.6256
 2662TIP3    H129401   0.521   1.319   0.426 -1.6475  0.4132 -1.7210
 2662TIP3    H229402   0.555   1.201   0.337 -0.5131 -0.2988 -0.3590
 2663TIP3   OH229403   6.169   2.110  15.169 -0.0887  0.2175 -0.3107
 2663TIP3    H129404   6.201   2.182  15.114  2.5078  0.0431  0.8900
 2663TIP3    H229405   6.249   2.065  15.197 -1.6288 -2.5326 -0.2370
 2664TIP3   OH229406   5.887   1.807   4.741 -0.2465 -0.4432 -0.3278
 2664TIP3    H129407   5.901   1.737   4.677 -1.3012 -1.1189  0.1674
 2664TIP3    H229408   5.802   1.787   4.780 -0.2790  0.7882  0.2413
 2665TIP3   OH229409   5.283   1.952  12.098 -0.1316 -0.0390  0.0781
 2665TIP3    H129410   5.198   1.925  12.064 -0.7100  1.9894 -0.1196
 2665TIP3    H229411   5.346   1.892  12.057 -1.1649  0.2505 -1.9833
 2666TIP3   OH229412   3.250   3.196   3.820 -0.5063  0.5732 -0.0471
 2666TIP3    H129413   3.226   3.149   3.900  0.6209  1.0687  0.6091
 2666TIP3    H229414   3.170   3.199   3.768 -0.2437 -3.3344 -0.7825
 2667TIP3   OH229415   0.398   4.017   1.908 -0.7756  0.7339 -0.7378
 2667TIP3    H129416   0.435   3.951   1.850  0.2944  0.3942  0.3374
 2667TIP3    H229417   0.471   4.047   1.961 -1.6984  1.2529  0.2579
 2668TIP3   OH229418   0.579   0.858   2.125  0.2837 -0.1305 -0.1953
 2668TIP3    H129419   0.602   0.874   2.217 -0.0620 -0.9869  0.0489
 2668TIP3    H229420   0.635   0.785   2.099  1.6270  1.2077 -1.2011
 2669TIP3   OH229421   0.443   4.297  13.152 -0.8125 -0.4245 -0.0307
 2669TIP3    H129422   0.354   4.288  13.184 -0.6300 -2.0141  0.0775
 2669TIP3    H229423   0.434   4.346  13.070 -1.7179 -0.0144  0.3138
 2670TIP3   OH229424   3.646   5.259   4.012  0.4871  0.0718 -0.1573
 2670TIP3    H129425   3.613   5.334   3.962 -0.0515  0.0482  0.1665
 2670TIP3    H229426   3.592   5.186   3.984 -0.6887  0.3167  1.4186
 2671TIP3   OH229427   0.842   3.517   1.508  0.6633 -0.3020 -0.0944
 2671TIP3    H129428   0.875   3.434   1.474  0.0129  0.4683 -2.7497
 2671TIP3    H229429   0.818   3.567   1.430  0.1779  2.0289  1.4867
 2672TIP3   OH229430   0.194   0.841   6.635  0.1550 -0.2413  0.0066
 2672TIP3    H129431   0.187   0.750   6.664  1.2309 -0.6963 -1.1317
 2672TIP3    H229432   0.226   0.888   6.712  0.7670 -1.0331  0.2481
 2673TIP3   OH229433   6.449   4.168  17.018  0.3269 -0.2446 -0.4887
 2673TIP3    H129434   6.523   4.125  17.060  2.4618  1.7832 -2.0435
 2673TIP3    H229435   6.454   4.259  17.048 -1.5667 -0.0966 -0.5836
 2674TIP3   OH229436   3.263   1.154   5.121  0.4526  0.6582  0.2395
 2674TIP3    H129437   3.293   1.163   5.031 -0.3096  0.0824 -0.0822
 2674TIP3    H229438   3.343   1.149   5.173  0.9037  3.2446 -0.1499
 2675TIP3   OH229439   1.451   4.809   4.711 -0.2287 -0.8175  0.7086
 2675TIP3    H129440   1.402   4.891   4.718 -0.2179 -0.8026  0.5967
 2675TIP3    H229441   1.543   4.836   4.709 -0.0463 -0.9686  3.7400
 2676TIP3   OH229442   4.515   5.966   1.841  0.5547  0.0445 -1.2102
 2676TIP3    H129443   4.510   6.028   1.768  0.0833 -0.8553 -1.9457
 2676TIP3    H229444   4.467   5.889   1.811 -2.5588  0.8616  1.2513
 2677TIP3   OH229445   5.746   3.902  13.579 -0.3159  0.3272  0.0961
 2677TIP3    H129446   5.738   3.849  13.499 -1.6557 -0.0264  0.4432
 2677TIP3    H229447   5.698   3.983  13.559  1.6429  1.3926 -0.3984
 2678TIP3   OH229448   2.041   1.506  15.255  0.5690  0.7531  0.2355
 2678TIP3    H129449   1.991   1.474  15.180  3.1107 -1.0322 -0.7399
 2678TIP3    H229450   2.031   1.438  15.322  0.5046  1.0761  0.5583
 2679TIP3   OH229451   1.980   1.191  14.770 -0.4517 -0.5386 -0.0114
 2679TIP3    H129452   1.964   1.097  14.780  1.4814 -0.7837  1.0669
 2679TIP3    H229453   2.023   1.200  14.685  1.7096 -0.9987  0.9746
 2680TIP3   OH229454   0.971   1.641   5.675  0.0258  0.0646 -0.2737
 2680TIP3    H129455   0.926   1.705   5.730 -0.0190  0.1628 -0.4243
 2680TIP3    H229456   0.901   1.584   5.642  0.4383 -2.6040  3.1072
 2681TIP3   OH229457   0.188   5.984  15.040  0.5517 -0.3721 -1.0022
 2681TIP3    H129458   0.100   5.987  15.079  0.6641  0.1750 -0.7889
 2681TIP3    H229459   0.245   5.959  15.113  0.6202 -0.3707 -1.0555
 2682TIP3   OH229460   1.193   0.199   2.293 -0.1599  0.1399 -0.3090
 2682TIP3    H129461   1.190   0.257   2.369 -0.0297 -0.4683  0.1666
 2682TIP3    H229462   1.152   0.249   2.223 -2.4432 -0.1866  0.7489
 2683TIP3   OH229463   5.941   3.251  11.629 -0.0761  0.2099 -0.2957
 2683TIP3    H129464   5.878   3.197  11.581 -0.9402  0.7446  0.2392
 2683TIP3    H229465   6.007   3.274  11.563 -1.8600  1.9005 -1.5292
 2684TIP3   OH229466   0.248   5.189  16.521  0.2549  0.2873 -0.0707
 2684TIP3    H129467   0.228   5.272  16.477  1.9569  1.3674  1.1393
 2684TIP3    H229468   0.274   5.131  16.450 -1.2530  0.6641 -0.9738
 2685TIP3   OH229469   3.608   0.696  11.480 -0.1664 -0.9675 -0.3202
 2685TIP3    H129470   3.632   0.632  11.547  1.3038 -2.3248 -2.0837
 2685TIP3    H229471   3.691   0.718  11.437 -0.8003  1.3900 -0.4033
 2686TIP3   OH229472   6.149   5.164  16.622  0.1330  0.0456 -0.0356
 2686TIP3    H129473   6.237   5.158  16.586 -0.3369 -1.1755 -1.0242
 2686TIP3    H229474   6.096   5.107  16.566 -1.4430  1.3768  0.0584
 2687TIP3   OH229475   2.276   5.697   4.560  0.0734 -0.1613  0.0209
 2687TIP3    H129476   2.270   5.647   4.479  1.3321  0.1889 -0.3055
 2687TIP3    H229477   2.214   5.769   4.549 -1.0179 -1.0842  0.0898
 2688TIP3   OH229478   5.838   2.995  16.211 -0.7567 -0.2995 -0.2314
 2688TIP3    H129479   5.841   3.085  16.245 -3.3265  0.2670 -1.3985
 2688TIP3    H229480   5.873   3.002  16.122 -1.4886 -0.3496 -0.5242
 2689TIP3   OH229481   5.435   0.361   3.851 -0.2611 -0.2548  0.3333
 2689TIP3    H129482   5.398   0.307   3.921  0.1415 -1.7997 -0.6159
 2689TIP3    H229483   5.522   0.386   3.884  0.3472 -1.8371 -0.0266
 2690TIP3   OH229484   5.870   5.427  15.322  0.6424  0.0489  0.3869
 2690TIP3    H129485   5.860   5.520  15.299  0.4584  0.4632  2.0608
 2690TIP3    H229486   5.782   5.399  15.347  0.6418 -0.6659 -0.3986
 2691TIP3   OH229487   5.996   5.479  11.632 -0.3586  0.1746  0.7913
 2691TIP3    H129488   5.965   5.389  11.630 -1.1885  0.4783 -1.0418
 2691TIP3    H229489   5.947   5.520  11.703 -1.2527 -0.3832  0.5011
 2692TIP3   OH229490   2.048   0.767  12.259  0.4456 -0.4436 -0.2454
 2692TIP3    H129491   2.068   0.715  12.337  1.7174 -2.5297 -1.9018
 2692TIP3    H229492   2.118   0.832  12.255  1.1949 -1.2466 -0.4133
 2693TIP3   OH229493   2.969   1.020  16.538 -0.2548  0.0313  0.4520
 2693TIP3    H129494   2.909   1.047  16.608  1.7588  0.4298  2.0525
 2693TIP3    H229495   2.968   0.924  16.540  0.2792  0.0455  1.4546
 2694TIP3   OH229496   2.961   5.737  15.775  0.0114 -0.0671 -0.0445
 2694TIP3    H129497   3.042   5.758  15.729 -0.5478  0.5899 -0.7537
 2694TIP3    H229498   2.951   5.643  15.766 -0.4184  0.1256 -1.8640
 2695TIP3   OH229499   6.476   5.249  11.962 -0.1155  0.0176 -0.1113
 2695TIP3    H129500   6.405   5.197  11.923  1.0799 -0.3868 -1.8073
 2695TIP3    H229501   6.432   5.308  12.022 -2.1484  1.2438 -2.6914
 2696TIP3   OH229502   1.849   6.206  16.977  0.3461 -0.0125  0.0378
 2696TIP3    H129503   1.812   6.293  16.994  3.5944  1.5685 -0.7142
 2696TIP3    H229504   1.806   6.179  16.895  1.8591  2.4801 -1.6807
 2697TIP3   OH229505   3.959   3.978   2.052  0.4688 -0.4991  0.7825
 2697TIP3    H129506   3.999   3.922   1.985  1.0554 -0.5736  1.1922
 2697TIP3    H229507   4.030   4.036   2.080  0.0697 -0.0752  0.9213
 2698TIP3   OH229508   3.408   4.705   5.291 -0.4276 -0.4430  0.2663
 2698TIP3    H129509   3.435   4.659   5.211  1.3508  2.8236 -1.1070
 2698TIP3    H229510   3.490   4.723   5.337 -0.8929  2.6723 -0.0158
 2699TIP3   OH229511   2.785   5.098   3.512 -0.2227 -0.3882 -0.0027
 2699TIP3    H129512   2.822   5.028   3.566  0.0441 -0.7037 -0.5968
 2699TIP3    H229513   2.852   5.166   3.512 -0.3143 -0.2956  0.2415
 2700TIP3   OH229514   4.789   0.904   1.142  0.4546 -0.2189  0.2385
 2700TIP3    H129515   4.879   0.916   1.171 -0.1606  0.0998  2.1118
 2700TIP3    H229516   4.796   0.860   1.057  2.3565 -0.4268  0.4876
 2701TIP3   OH229517   2.130   3.379  14.857  0.1162 -0.2781 -0.5505
 2701TIP3    H129518   2.196   3.421  14.802 -0.1894 -0.5858 -1.1689
 2701TIP3    H229519   2.137   3.422  14.942  0.2067  0.6127 -1.0051
 2702TIP3   OH229520   4.191   2.918   0.015  0.1034 -0.3050 -0.4747
 2702TIP3    H129521   4.271   2.940   0.064 -0.8061  0.2838  0.7653
 2702TIP3    H229522   4.191   2.980  -0.058  0.2720  0.3442  0.0702
 2703TIP3   OH229523   5.496   0.247   2.516  0.0259  0.1297  0.6912
 2703TIP3    H129524   5.497   0.175   2.453  2.1962  0.4286  0.3520
 2703TIP3    H229525   5.578   0.238   2.564  0.4251  2.5089  0.5007
 2704TIP3   OH229526   0.665   3.212   5.825 -0.6002  0.8873 -0.0695
 2704TIP3    H129527   0.676   3.251   5.912 -0.3144  3.6723 -1.3128
 2704TIP3    H229528   0.734   3.252   5.771 -1.4940  0.0744 -1.8658
 2705TIP3   OH229529   5.234   3.074  13.294 -0.4531 -0.3599 -0.0773
 2705TIP3    H129530   5.206   3.083  13.385 -1.7997 -1.4016 -0.3886
 2705TIP3    H229531   5.293   3.149  13.281  0.1034 -0.4422  1.7643
 2706TIP3   OH229532   4.292   3.029   5.462  1.0140  0.1845  0.4322
 2706TIP3    H129533   4.322   2.944   5.430  1.0974  0.2833  0.2499
 2706TIP3    H229534   4.249   3.070   5.387 -0.5914 -0.4248  0.9980
 2707TIP3   OH229535   6.608   1.635  15.008  0.2328  0.5056 -0.0625
 2707TIP3    H129536   6.698   1.655  14.982  0.6824 -1.2765  0.1193
 2707TIP3    H229537   6.610   1.629  15.103  0.2374 -1.0301 -0.1495
 2708TIP3   OH229538   0.982   1.492   3.413  0.0049 -0.4649  0.0811
 2708TIP3    H129539   0.952   1.511   3.325 -0.0263  1.5026  0.4798
 2708TIP3    H229540   1.057   1.550   3.426  1.5344 -2.4615  0.5008
 2709TIP3   OH229541   1.052   3.204  15.331 -0.0708 -0.6909 -0.0275
 2709TIP3    H129542   0.989   3.273  15.351  0.1313  0.0315 -1.8318
 2709TIP3    H229543   1.003   3.139  15.282  0.4329 -0.3771 -0.9740
 2710TIP3   OH229544   6.752   6.525  10.501  0.5180 -0.1756  0.1791
 2710TIP3    H129545   6.710   6.448  10.462  0.4115 -0.0055 -0.0409
 2710TIP3    H229546   6.845   6.515  10.480  0.4370  0.0125 -0.2824
 2711TIP3   OH229547   6.119   4.893  12.819  0.3108  0.2944 -0.3721
 2711TIP3    H129548   6.078   4.910  12.903  2.1312  1.9034  0.2432
 2711TIP3    H229549   6.066   4.825  12.779 -2.4498  1.7587  0.7048
 2712TIP3   OH229550   4.052   0.885   5.540 -0.4385  0.0758 -0.0536
 2712TIP3    H129551   4.127   0.876   5.600  0.4813  3.1889 -0.6435
 2712TIP3    H229552   3.978   0.901   5.598 -0.5209 -2.1369  0.4932
 2713TIP3   OH229553   5.069   2.772  12.726  0.2221  0.0284  0.2354
 2713TIP3    H129554   5.019   2.693  12.706  0.7025 -0.2674  0.1970
 2713TIP3    H229555   5.096   2.806  12.641 -4.5529  3.2769 -0.2063
 2714TIP3   OH229556   4.631   5.133  12.620 -0.2613  0.4160  0.3378
 2714TIP3    H129557   4.619   5.209  12.676  0.9626 -0.8725  2.3822
 2714TIP3    H229558   4.623   5.058  12.678  2.4249 -0.9184 -0.9324
 2715TIP3   OH229559   2.811   4.755   0.881 -0.2014  0.2536  0.6029
 2715TIP3    H129560   2.820   4.680   0.822  1.9594  1.1355 -0.2265
 2715TIP3    H229561   2.900   4.778   0.906 -0.4479  4.9354 -2.2496
 2716TIP3   OH229562   1.552   0.675  13.652  0.4854  0.0349  0.0383
 2716TIP3    H129563   1.553   0.764  13.688 -1.5264  0.3546 -0.6502
 2716TIP3    H229564   1.607   0.680  13.574 -0.5814  0.9790 -0.6674
 2717TIP3   OH229565   1.261   1.928  17.206 -0.5898  0.0360  0.1938
 2717TIP3    H129566   1.175   1.951  17.241 -0.6080  0.0220  0.1601
 2717TIP3    H229567   1.259   1.957  17.115 -0.2635  0.7708  0.4224
 2718TIP3   OH229568   2.289   4.815  13.296 -0.4393 -0.9072 -0.0561
 2718TIP3    H129569   2.273   4.786  13.386 -0.8027  0.2363  0.2652
 2718TIP3    H229570   2.380   4.844  13.296 -0.7640  0.1651  0.2660
 2719TIP3   OH229571   0.084   0.339  14.840  0.0059  0.4406  0.0131
 2719TIP3    H129572   0.094   0.317  14.748 -1.3418 -0.0939 -0.0175
 2719TIP3    H229573   0.117   0.262  14.887  0.4249  0.5976 -0.0215
 2720TIP3   OH229574   3.239   6.613   2.621 -0.0911 -0.4106 -0.0301
 2720TIP3    H129575   3.215   6.691   2.572  1.2121  0.3126  0.4399
 2720TIP3    H229576   3.185   6.616   2.700 -0.4835 -0.3105 -0.3039
 2721TIP3   OH229577   6.292   5.900  16.080  0.0309  0.2447  0.5607
 2721TIP3    H129578   6.224   5.960  16.048 -1.1724 -0.6041  1.4585
 2721TIP3    H229579   6.368   5.917  16.025 -1.0555  0.9213 -0.7493
 2722TIP3   OH229580   5.440   2.735   0.048 -0.0299  0.1730 -0.2204
 2722TIP3    H129581   5.510   2.670   0.061 -0.5797 -0.2094  0.8747
 2722TIP3    H229582   5.375   2.689  -0.005 -0.0126  0.1283 -0.2015
 2723TIP3   OH229583   4.615   6.769  12.421  0.2380  0.2501 -0.7279
 2723TIP3    H129584   4.601   6.695  12.480  1.4100  0.5634 -0.0434
 2723TIP3    H229585   4.559   6.750  12.345 -0.1603 -0.8825 -0.1630
 2724TIP3   OH229586   3.588   6.156   1.581 -0.5686 -0.1036  0.0124
 2724TIP3    H129587   3.670   6.175   1.626 -0.0529 -0.6539 -0.6817
 2724TIP3    H229588   3.568   6.065   1.605 -0.5400 -0.2418 -0.4679
 2725TIP3   OH229589   3.307   6.053  16.677  0.4844 -0.7198  0.1131
 2725TIP3    H129590   3.312   6.013  16.590  0.6712  0.1886 -0.2990
 2725TIP3    H229591   3.390   6.098  16.688  0.1810 -0.2383  0.4690
 2726TIP3   OH229592   4.191   0.046  13.267  0.4859  0.1818  0.3873
 2726TIP3    H129593   4.164   0.094  13.346  0.3524  0.5625  0.1117
 2726TIP3    H229594   4.286   0.057  13.263  0.3888  0.8974  0.0158
 2727TIP3   OH229595   0.480   6.035   1.448 -0.0683  0.0791 -0.5155
 2727TIP3    H129596   0.516   5.984   1.375 -0.2974 -0.4681 -0.2479
 2727TIP3    H229597   0.539   6.015   1.521 -0.7323 -0.5711 -0.1578
 2728TIP3   OH229598   4.347   3.404  14.651  0.0896  0.4272 -0.1658
 2728TIP3    H129599   4.392   3.321  14.637  0.0373  0.2171  0.8983
 2728TIP3    H229600   4.365   3.454  14.572 -2.1598 -1.6220 -2.0833
 2729TIP3   OH229601   1.470   4.633   1.226  0.0913  0.1967 -0.5834
 2729TIP3    H129602   1.455   4.563   1.162  0.5012  0.1182 -0.5959
 2729TIP3    H229603   1.525   4.592   1.293  0.6030  0.5974 -0.7528
 2730TIP3   OH229604   0.257   3.907   6.741 -0.2648  0.3273 -0.1613
 2730TIP3    H129605   0.345   3.943   6.752  0.5399 -0.9687 -2.0356
 2730TIP3    H229606   0.241   3.911   6.647 -2.1522  0.4073  0.1476
 2731TIP3   OH229607   4.984   0.884   3.697 -0.1296 -0.2167  0.3513
 2731TIP3    H129608   5.049   0.921   3.757  0.0365 -1.3978  0.8900
 2731TIP3    H229609   4.993   0.790   3.706  0.4099 -0.4347 -2.0570
 2732TIP3   OH229610   6.774   2.589   1.238  0.5662  0.2855  0.8496
 2732TIP3    H129611   6.685   2.566   1.266  0.6285  0.3682  1.1209
 2732TIP3    H229612   6.762   2.634   1.155  0.3409  0.4298  0.9582
 2733TIP3   OH229613   0.704   4.941  11.623  0.2344  0.0498 -0.9542
 2733TIP3    H129614   0.721   5.006  11.555 -1.4541 -0.6989 -2.1490
 2733TIP3    H229615   0.710   4.857  11.577  2.1537 -0.6541  0.5162
 2734TIP3   OH229616   0.657   0.018   4.785  0.0307 -0.1637 -0.0087
 2734TIP3    H129617   0.624   0.102   4.754 -1.3219 -0.2646  1.1442
 2734TIP3    H229618   0.703  -0.018   4.709  2.0261  2.3068 -0.0563
 2735TIP3   OH229619   3.879   5.595  15.475 -0.6075 -0.2826  0.7845
 2735TIP3    H129620   3.809   5.530  15.482 -0.3856 -0.6878 -0.5083
 2735TIP3    H229621   3.959   5.542  15.471 -0.3596  0.1067  0.6109
 2736TIP3   OH229622   0.652   1.598   3.967 -0.0803 -0.1151  0.1256
 2736TIP3    H129623   0.747   1.599   3.963 -0.0726 -1.4200 -0.3746
 2736TIP3    H229624   0.628   1.683   4.004  1.4012 -0.8369  2.8882
 2737TIP3   OH229625   5.463   2.670   2.494  0.3008 -0.2671  0.0376
 2737TIP3    H129626   5.443   2.763   2.498  1.8699  0.4056 -5.1780
 2737TIP3    H229627   5.382   2.629   2.464  0.4208 -0.2830 -0.2583
 2738TIP3   OH229628   0.531   6.507   4.043  0.8225 -0.1420  0.2990
 2738TIP3    H129629   0.584   6.427   4.036 -0.0934 -0.7124 -0.2127
 2738TIP3    H229630   0.516   6.518   4.136 -0.1219 -1.2759  0.2765
 2739TIP3   OH229631   3.490   1.542   0.124  0.1999 -0.3440 -0.8197
 2739TIP3    H129632   3.525   1.567   0.038 -1.2238  0.2802 -1.2298
 2739TIP3    H229633   3.424   1.609   0.144  2.2656  0.9637  1.9155
 2740TIP3   OH229634   5.528   5.609   3.157 -0.0548 -0.5940  0.6195
 2740TIP3    H129635   5.526   5.525   3.204  0.8670 -0.9724  0.0202
 2740TIP3    H229636   5.497   5.588   3.069 -0.4155 -0.1796  0.6485
 2741TIP3   OH229637   4.273   2.359   4.846  0.2801  0.4079 -0.1707
 2741TIP3    H129638   4.253   2.393   4.759 -1.5836 -0.1958 -0.0006
 2741TIP3    H229639   4.230   2.420   4.907  2.2898  1.3170  0.3813
 2742TIP3   OH229640   2.696   4.852   5.900  0.1519  0.1114 -0.0686
 2742TIP3    H129641   2.653   4.914   5.959 -0.0126  0.9278 -1.0156
 2742TIP3    H229642   2.762   4.904   5.854  1.2337 -0.8352  0.4092
 2743TIP3   OH229643   2.656   4.615  16.267 -0.7813 -0.0867  0.2359
 2743TIP3    H129644   2.680   4.539  16.320 -1.8231 -0.4854  0.1459
 2743TIP3    H229645   2.593   4.581  16.203  0.8559  0.2813 -1.6252
 2744TIP3   OH229646   2.425   5.778  14.008  0.3723 -0.2687 -0.0425
 2744TIP3    H129647   2.513   5.749  13.984  0.8514  0.8009  0.3926
 2744TIP3    H229648   2.409   5.737  14.094 -0.9274 -3.2319 -1.6198
 2745TIP3   OH229649   6.449   4.394  17.166 -0.4189 -0.2349  0.5535
 2745TIP3    H129650   6.533   4.398  17.212  0.2034 -0.1243 -0.5967
 2745TIP3    H229651   6.441   4.478  17.122  1.1081 -1.9588 -3.2286
 2746TIP3   OH229652   4.910   6.169  14.891  0.3501 -0.0493 -0.0005
 2746TIP3    H129653   4.824   6.201  14.919 -0.1962 -1.6278  0.1802
 2746TIP3    H229654   4.957   6.153  14.972  0.3794 -0.3174 -0.0686
 2747TIP3   OH229655   0.148   0.118   1.400 -0.2479 -0.3420 -0.0793
 2747TIP3    H129656   0.061   0.124   1.361  0.4800 -1.8913 -2.0395
 2747TIP3    H229657   0.188   0.203   1.383 -0.8333 -0.1495 -0.5203
 2748TIP3   OH229658   4.611   6.159  15.960 -0.7154 -0.0885  0.2634
 2748TIP3    H129659   4.692   6.206  15.942 -0.7401  0.0679  0.5514
 2748TIP3    H229660   4.612   6.145  16.055 -1.9970  1.7188  0.5790
 2749TIP3   OH229661   2.215   4.973   2.494 -0.5195  0.1207 -0.0022
 2749TIP3    H129662   2.282   5.040   2.508 -1.5265  1.1538 -0.0513
 2749TIP3    H229663   2.171   5.000   2.414  0.1837 -1.5493 -0.9598
 2750TIP3   OH229664   0.303   4.194  13.566  0.4835  0.6748  0.3631
 2750TIP3    H129665   0.327   4.221  13.655  2.0308 -1.5081  0.6495
 2750TIP3    H229666   0.350   4.112  13.553 -0.9884  0.1640 -1.9032
 2751TIP3   OH229667   4.970   0.625   3.749  0.1341 -0.2702  0.3673
 2751TIP3    H129668   5.033   0.554   3.755  0.6421  0.1119 -0.4112
 2751TIP3    H229669   4.885   0.580   3.743  0.2786 -0.7719  1.8918
 2752TIP3   OH229670   6.113   2.096   4.383  0.3502 -0.1451 -0.0831
 2752TIP3    H129671   6.191   2.151   4.380  0.1286  0.2737  1.2174
 2752TIP3    H229672   6.139   2.021   4.437  0.2216 -0.6025 -0.6592
 2753TIP3   OH229673   3.053   4.276  13.190  0.3894  0.0248  0.1787
 2753TIP3    H129674   2.982   4.277  13.125  0.0361 -0.5532  0.5624
 2753TIP3    H229675   3.107   4.352  13.166  0.2712 -0.1955 -0.8072
 2754TIP3   OH229676   4.107   3.362   4.546  0.4409 -0.1062 -0.5342
 2754TIP3    H129677   4.090   3.396   4.634 -1.0260 -1.4971 -0.2629
 2754TIP3    H229678   4.074   3.429   4.487 -2.4171 -0.9801 -0.0030
 2755TIP3   OH229679   3.669   0.595   2.590 -0.2296  0.5405  0.0716
 2755TIP3    H129680   3.737   0.621   2.528 -0.4471  2.6942  0.7052
 2755TIP3    H229681   3.709   0.606   2.676  0.1738 -2.7189  0.3634
 2756TIP3   OH229682   6.661   3.594  14.710  0.0309  0.0434 -0.0796
 2756TIP3    H129683   6.630   3.685  14.714 -0.2667 -0.1510  2.5514
 2756TIP3    H229684   6.740   3.593  14.763 -1.1236 -1.6745  1.6829
 2757TIP3   OH229685   5.365   2.150   3.801  0.0940 -0.2036  0.2830
 2757TIP3    H129686   5.282   2.197   3.809 -0.5116 -1.2785  0.4886
 2757TIP3    H229687   5.425   2.195   3.861 -0.5550  0.1154  0.6936
 2758TIP3   OH229688   6.227   4.104   0.306  0.3717  0.2734 -0.3182
 2758TIP3    H129689   6.141   4.063   0.311  1.2048 -1.7951 -2.1529
 2758TIP3    H229690   6.219   4.182   0.360 -2.0506 -0.9413  1.1871
 2759TIP3   OH229691   5.551   0.478   5.466 -0.4064  0.3541 -0.5275
 2759TIP3    H129692   5.493   0.443   5.534  0.7720  1.7614  1.2529
 2759TIP3    H229693   5.515   0.565   5.446  1.4329  1.5351  1.1063
 2760TIP3   OH229694   0.484   6.485  11.081 -0.4224 -0.3793  0.1082
 2760TIP3    H129695   0.536   6.527  11.150 -0.6910 -0.5049  0.3898
 2760TIP3    H229696   0.547   6.466  11.012 -0.6702  2.5663 -1.0247
 2761TIP3   OH229697   1.302   1.310   4.289  0.1593 -0.1099 -0.3092
 2761TIP3    H129698   1.220   1.310   4.239 -0.1928  1.0378  0.2442
 2761TIP3    H229699   1.368   1.279   4.227 -0.7345 -1.2891 -0.6844
 2762TIP3   OH229700   1.473   5.587   6.193 -0.0760  0.4734 -0.3061
 2762TIP3    H129701   1.446   5.496   6.206  1.6437 -0.1422 -0.8706
 2762TIP3    H229702   1.410   5.639   6.243 -0.7171 -1.0740  0.5026
 2763TIP3   OH229703   2.463   4.265   4.947 -0.5289 -0.4197  0.1006
 2763TIP3    H129704   2.417   4.200   4.999 -2.0824 -0.1699 -0.9411
 2763TIP3    H229705   2.405   4.341   4.945  0.8800  0.6961  0.5745
 2764TIP3   OH229706   5.107   2.681  13.212 -0.1796 -0.2519  0.1625
 2764TIP3    H129707   5.080   2.688  13.303 -1.2977  1.7556 -0.3069
 2764TIP3    H229708   5.029   2.706  13.162  0.5026 -1.0840 -1.3431
 2765TIP3   OH229709   0.809   5.276   3.869 -0.0974 -0.0546  0.0911
 2765TIP3    H129710   0.901   5.286   3.895  0.0475 -1.0187 -0.0206
 2765TIP3    H229711   0.790   5.354   3.817  0.3891  0.5929  0.8684
 2766TIP3   OH229712   3.958   1.033   1.791 -0.5571 -0.4970 -0.8526
 2766TIP3    H129713   3.915   1.092   1.729 -1.8199 -0.3678  0.1297
 2766TIP3    H229714   3.970   1.085   1.870  1.4826 -0.5182 -1.1058
 2767TIP3   OH229715   6.518   2.631  14.378  0.3480  0.2226 -0.3439
 2767TIP3    H129716   6.573   2.661  14.451 -2.2752  1.9561  0.9906
 2767TIP3    H229717   6.572   2.646  14.301  2.1570  0.9446  1.0056
 2768TIP3   OH229718   3.134   2.504   4.808  0.0106  0.4896  0.3144
 2768TIP3    H129719   3.135   2.590   4.765 -1.5409  0.7667  0.7763
 2768TIP3    H229720   3.041   2.479   4.807  0.5601 -1.5498 -0.5423
 2769TIP3   OH229721   0.876   2.890   6.262 -0.0737 -0.4024  0.2369
 2769TIP3    H129722   0.846   2.931   6.343 -0.4190 -1.3815  0.6122
 2769TIP3    H229723   0.943   2.828   6.289  1.3316  0.7816 -0.4590
 2770TIP3   OH229724   4.715   0.640   5.941 -0.5603  0.3915 -0.3879
 2770TIP3    H129725   4.714   0.735   5.931  1.2965  0.4958  0.3336
 2770TIP3    H229726   4.787   0.622   6.001  0.2749 -1.6090 -1.9064
 2771TIP3   OH229727   3.472   5.922   4.739 -0.2420  0.2901 -0.0492
 2771TIP3    H129728   3.462   5.874   4.821 -1.1987  0.6430  0.0438
 2771TIP3    H229729   3.400   5.986   4.739  0.4071  1.0349 -0.6430
 2772TIP3   OH229730   3.809   3.342  14.196 -0.1010 -0.0792  0.1311
 2772TIP3    H129731   3.837   3.257  14.230  0.2910 -0.6079 -1.4618
 2772TIP3    H229732   3.717   3.329  14.172 -0.1062  0.0144  0.1008
 2773TIP3   OH229733   6.273   4.436  11.633 -0.9186  0.3640  0.2336
 2773TIP3    H129734   6.292   4.359  11.687 -0.1008 -1.2152 -2.2219
 2773TIP3    H229735   6.218   4.403  11.562  0.6464  1.6908 -1.6681
 2774TIP3   OH229736   3.711   5.368   4.895 -0.0529  0.2338 -0.1324
 2774TIP3    H129737   3.690   5.301   4.961  0.6805  0.0918 -0.0420
 2774TIP3    H229738   3.728   5.447   4.945  0.5333  0.1187 -0.1386
 2775TIP3   OH229739   0.660   0.693  11.661 -0.3783 -0.2656 -0.0734
 2775TIP3    H129740   0.689   0.616  11.611 -1.1628 -1.2627  0.9632
 2775TIP3    H229741   0.736   0.751  11.662  0.5147 -1.4054 -0.1393
 2776TIP3   OH229742   4.875   3.861   1.978  0.6493 -0.1472  0.0525
 2776TIP3    H129743   4.941   3.925   1.950  1.4593 -1.8443 -2.1337
 2776TIP3    H229744   4.807   3.913   2.021  1.7788  2.0334 -0.7170
 2777TIP3   OH229745   0.141   1.915   6.088  0.5160 -0.1774 -0.2454
 2777TIP3    H129746   0.055   1.876   6.076  0.1927  0.7842 -1.0263
 2777TIP3    H229747   0.138   1.953   6.176  0.7211 -1.5981  0.3923
 2778TIP3   OH229748   3.607   3.134  14.484 -0.0693  0.1673 -0.2741
 2778TIP3    H129749   3.614   3.105  14.575  0.6052 -0.0274 -0.3859
 2778TIP3    H229750   3.635   3.059  14.432  1.0023  0.7748 -0.5869
 2779TIP3   OH229751   5.522   0.887   6.496 -0.3328 -0.4848  0.0573
 2779TIP3    H129752   5.491   0.953   6.558 -2.2931  0.0045 -1.3784
 2779TIP3    H229753   5.602   0.926   6.459 -1.5454  1.1983 -0.8812
 2780TIP3   OH229754   0.831   6.335   1.514 -0.1008  0.1091  0.2007
 2780TIP3    H129755   0.922   6.353   1.491 -0.3937 -1.3704 -2.3377
 2780TIP3    H229756   0.788   6.420   1.510  0.9568  0.6647  0.4298
 2781TIP3   OH229757   0.413   4.419  16.336  0.2045  0.1004 -0.5176
 2781TIP3    H129758   0.401   4.325  16.318  1.9952  0.0387 -1.5387
 2781TIP3    H229759   0.333   4.445  16.381 -1.0156 -1.5645 -1.6473
 2782TIP3   OH229760   0.321   3.096   0.374 -0.3773  0.0731 -0.1902
 2782TIP3    H129761   0.231   3.066   0.361 -0.7243  1.4628 -1.0958
 2782TIP3    H229762   0.369   3.017   0.399 -1.2175 -1.2793 -2.6862
 2783TIP3   OH229763   3.314   2.795   0.871  0.2567 -0.5035  0.1187
 2783TIP3    H129764   3.337   2.865   0.811  0.3075 -1.6623 -1.2397
 2783TIP3    H229765   3.234   2.757   0.834  0.8880 -1.9302  0.1686
 2784TIP3   OH229766   1.211   3.278   5.524 -0.5107  0.2780 -0.8208
 2784TIP3    H129767   1.232   3.206   5.583 -3.8998 -0.1475 -0.0404
 2784TIP3    H229768   1.204   3.355   5.581  1.4390  0.9231 -1.4216
 2785TIP3   OH229769   6.293   2.924  12.777 -0.4316 -0.3110  0.0506
 2785TIP3    H129770   6.278   2.995  12.715  2.0452  0.3122  0.1386
 2785TIP3    H229771   6.313   2.848  12.723 -1.3305 -0.5209  0.0082
 2786TIP3   OH229772   3.716   4.101  13.456  0.1242  0.1065 -0.0253
 2786TIP3    H129773   3.810   4.118  13.453 -0.0049  0.9889  0.4481
 2786TIP3    H229774   3.679   4.157  13.387 -0.3861  2.4237  2.0237
 2787TIP3   OH229775   4.153   0.296  14.867  0.1372  0.0901  0.0087
 2787TIP3    H129776   4.220   0.363  14.879  0.9130 -0.7571  0.4299
 2787TIP3    H229777   4.145   0.255  14.953 -0.3667 -0.3279 -0.2398
 2788TIP3   OH229778   5.134   5.943   3.365  0.1724 -0.3282  0.0923
 2788TIP3    H129779   5.156   5.858   3.325 -1.8962 -0.1866 -1.3907
 2788TIP3    H229780   5.040   5.951   3.354 -0.1143  0.8247  2.9221
 2789TIP3   OH229781   1.285   1.910  12.263  0.1966 -0.8486  0.0704
 2789TIP3    H129782   1.201   1.897  12.219  0.0836 -0.4579  0.1694
 2789TIP3    H229783   1.267   1.890  12.355 -0.2456  1.0431  0.4205
 2790TIP3   OH229784   5.238   5.699   4.729 -0.5749 -0.1666  0.1289
 2790TIP3    H129785   5.217   5.758   4.657 -0.9011 -0.9403 -0.4195
 2790TIP3    H229786   5.176   5.721   4.798  0.1089  0.9613  0.3868
 2791TIP3   OH229787   0.361   0.114   1.624  0.2145 -0.4067  0.0253
 2791TIP3    H129788   0.444   0.125   1.576  0.8265  0.6248  1.2990
 2791TIP3    H229789   0.310   0.054   1.569  2.6533 -2.8336  0.3024
 2792TIP3   OH229790   3.480   6.163  11.885  0.0960  0.1102  0.0917
 2792TIP3    H129791   3.557   6.118  11.918  2.1231  2.2074 -1.6495
 2792TIP3    H229792   3.479   6.145  11.791 -1.0715  0.7586 -0.0412
 2793TIP3   OH229793   4.673   3.676   1.569 -0.0665 -0.0078 -0.3769
 2793TIP3    H129794   4.661   3.635   1.655 -0.4859  1.5490  0.3303
 2793TIP3    H229795   4.591   3.660   1.523 -0.2230  0.0167 -0.1064
 2794TIP3   OH229796   2.048   1.901  16.885 -0.9386  0.2299  0.2162
 2794TIP3    H129797   2.104   1.916  16.961  0.5478  0.0113 -0.8200
 2794TIP3    H229798   1.963   1.878  16.922 -0.7076  1.8171  1.8106
 2795TIP3   OH229799   2.796   5.380  11.785  0.4409  0.5666 -0.3268
 2795TIP3    H129800   2.701   5.375  11.777  0.4372  0.9429 -0.5182
 2795TIP3    H229801   2.816   5.338  11.869  0.2238 -0.7658 -0.9207
 2796TIP3   OH229802   6.749   0.942  12.712 -0.1324 -0.2207  0.3845
 2796TIP3    H129803   6.746   1.015  12.650 -0.1813 -0.4300  0.1396
 2796TIP3    H229804   6.761   0.865  12.657  0.0851 -0.3794  0.6559
 2797TIP3   OH229805   5.028   0.045  12.943 -0.1401  0.1958  0.4129
 2797TIP3    H129806   5.021   0.013  12.853 -1.4642  0.3695  0.4487
 2797TIP3    H229807   5.036  -0.034  12.996 -2.9304 -0.0896  0.4572
 2798TIP3   OH229808   5.051   6.274   5.860 -0.2050 -0.1173  0.6510
 2798TIP3    H129809   5.116   6.331   5.818  0.1681 -0.0299  1.3350
 2798TIP3    H229810   5.102   6.201   5.894 -0.7815 -1.2668 -0.8973
 2799TIP3   OH229811   5.635   2.995   0.561 -0.4167  0.4782 -0.2760
 2799TIP3    H129812   5.657   3.075   0.514  0.9504 -0.5005 -1.3786
 2799TIP3    H229813   5.540   2.993   0.562 -0.4620  2.2629  0.0338
 2800TIP3   OH229814   5.766   5.217  11.186 -0.0700 -0.2780 -0.4375
 2800TIP3    H129815   5.783   5.128  11.218  0.5573  0.2332  0.6675
 2800TIP3    H229816   5.671   5.228  11.196  0.0328 -0.3302  0.7712
 2801TIP3   OH229817   6.204   3.419  15.091 -0.4746 -0.3563 -0.2391
 2801TIP3    H129818   6.118   3.377  15.088  0.4628 -2.2505 -1.7681
 2801TIP3    H229819   6.264   3.351  15.121  0.7016  0.5947 -0.3647
 2802TIP3   OH229820   3.486   5.725  16.639 -0.0408 -0.4849 -0.4561
 2802TIP3    H129821   3.419   5.764  16.696  0.2854  0.7018 -0.8551
 2802TIP3    H229822   3.437   5.675  16.574 -0.5369  0.1138 -0.5504
 2803TIP3   OH229823   4.497   2.515  15.501 -0.2759  0.5280  0.5412
 2803TIP3    H129824   4.435   2.492  15.432  0.9138 -0.4826 -0.2327
 2803TIP3    H229825   4.582   2.487  15.467  0.2479 -0.7283  2.7351
 2804TIP3   OH229826   3.322   6.628   4.670  0.1977 -0.7213 -0.5773
 2804TIP3    H129827   3.234   6.610   4.702  1.2067 -1.8824  1.6412
 2804TIP3    H229828   3.378   6.566   4.717  2.1281 -0.4405 -2.4171
 2805TIP3   OH229829   5.960   2.887  16.476 -0.1333  0.8530 -0.1014
 2805TIP3    H129830   5.933   2.978  16.470  2.1210  1.5194 -0.6652
 2805TIP3    H229831   5.998   2.867  16.390 -0.9473 -0.7377 -0.1117
 2806TIP3   OH229832   4.155   2.106  11.437  0.1922  0.4795 -0.4401
 2806TIP3    H129833   4.194   2.037  11.383  0.4953  0.0464  0.3359
 2806TIP3    H229834   4.079   2.064  11.478  0.3923  0.6083  0.0565
 2807TIP3   OH229835   2.054   4.170  14.025 -0.1116  0.0812  0.1144
 2807TIP3    H129836   2.059   4.256  13.982 -0.5074  1.3494  2.5107
 2807TIP3    H229837   2.021   4.111  13.957  3.5489  1.0212 -2.6785
 2808TIP3   OH229838   2.051   2.640  15.756  0.0801 -0.3702  0.1889
 2808TIP3    H129839   2.140   2.667  15.779 -0.3456  1.1010  0.1808
 2808TIP3    H229840   2.012   2.611  15.838 -0.3935  1.8210  0.7582
 2809TIP3   OH229841   6.684   1.255   1.134  0.4798  0.2209 -0.7061
 2809TIP3    H129842   6.679   1.298   1.220 -1.3688  3.2588 -2.2557
 2809TIP3    H229843   6.777   1.238   1.122  1.0699  2.0243  0.8599
 2810TIP3   OH229844   2.335   2.683  15.621  0.5183 -0.2404 -0.0373
 2810TIP3    H129845   2.351   2.712  15.711 -0.3605 -1.4054  0.5141
 2810TIP3    H229846   2.375   2.596  15.617  0.4225 -0.2521 -0.7230
 2811TIP3   OH229847   1.533   4.580   5.414 -0.3099  0.4135  0.2926
 2811TIP3    H129848   1.464   4.643   5.434 -2.0184 -1.2919 -0.1252
 2811TIP3    H229849   1.545   4.530   5.494  0.4167  0.6645  0.3477
 2812TIP3   OH229850   3.475   5.242  12.397 -0.1490  0.5555 -0.0317
 2812TIP3    H129851   3.380   5.241  12.414  0.3108 -0.7606  2.7750
 2812TIP3    H229852   3.486   5.182  12.323 -1.4954  0.5942 -0.2869
 2813TIP3   OH229853   5.753   3.963   6.430  0.1523  0.1950  0.7023
 2813TIP3    H129854   5.725   3.871   6.425  0.3866  0.1228  0.7111
 2813TIP3    H229855   5.684   4.006   6.480  0.4644 -0.1504  1.4427
 2814TIP3   OH229856   4.293   5.855  13.393 -0.5026  0.1454 -0.3767
 2814TIP3    H129857   4.331   5.820  13.313 -0.5900 -0.5356 -0.1243
 2814TIP3    H229858   4.222   5.794  13.414 -1.2425  0.9680 -0.4239
 2815TIP3   OH229859   1.736   3.568   4.437 -0.4088  0.2859  0.6269
 2815TIP3    H129860   1.812   3.567   4.495 -0.2374 -1.0799  0.4038
 2815TIP3    H229861   1.772   3.570   4.349 -0.6474  0.4947  0.5319
 2816TIP3   OH229862   3.547   2.632   2.718 -0.0797  0.6506 -0.1444
 2816TIP3    H129863   3.469   2.664   2.763  0.3195  2.1169 -0.4616
 2816TIP3    H229864   3.620   2.676   2.762  0.5333 -0.2737 -0.2165
 2817TIP3   OH229865   2.696   0.175  10.236  0.1943 -0.1583  0.0846
 2817TIP3    H129866   2.674   0.267  10.220  0.1304 -0.2542 -0.4001
 2817TIP3    H229867   2.791   0.170  10.227  0.1093 -0.3097 -0.8027
 2818TIP3   OH229868   0.944   0.594   2.527 -0.2493 -0.0715 -0.3645
 2818TIP3    H129869   0.883   0.571   2.457 -0.1023 -1.8042  0.0629
 2818TIP3    H229870   0.899   0.568   2.607  0.2723  0.3948  0.0796
 2819TIP3   OH229871   6.478   2.588  14.873 -0.0900 -0.3236 -0.1735
 2819TIP3    H129872   6.410   2.629  14.819  0.8298  0.8863 -0.4343
 2819TIP3    H229873   6.530   2.536  14.813  1.5243  1.7883 -0.6723
 2820TIP3   OH229874   2.359   0.716  14.903  0.2121  0.2846  0.2610
 2820TIP3    H129875   2.317   0.645  14.952 -2.4279  0.0074 -2.2446
 2820TIP3    H229876   2.331   0.796  14.948  0.2139 -0.0889  0.9318
 2821TIP3   OH229877   4.393   1.635  13.207 -0.3203 -0.1591 -0.0365
 2821TIP3    H129878   4.437   1.703  13.257 -0.8745  0.6896 -0.7019
 2821TIP3    H229879   4.456   1.563  13.204  0.5034  0.5512  0.1367
 2822TIP3   OH229880   6.353   4.423  14.911  0.3466 -0.0803  0.5066
 2822TIP3    H129881   6.404   4.365  14.856  0.5407  1.1573 -0.6357
 2822TIP3    H229882   6.418   4.472  14.962  0.3502  1.4489 -0.9018
 2823TIP3   OH229883   5.832   5.381  12.699  0.2035  1.0906 -0.2206
 2823TIP3    H129884   5.904   5.440  12.677 -0.6087  2.4590  0.7007
 2823TIP3    H229885   5.861   5.336  12.779  1.4041 -0.8234 -1.6827
 2824TIP3   OH229886   1.499   6.164   5.422  0.0160 -0.4306 -0.2888
 2824TIP3    H129887   1.578   6.217   5.431  0.4524 -1.2527  0.8980
 2824TIP3    H229888   1.432   6.226   5.392  1.3058  0.0864 -2.2119
 2825TIP3   OH229889   2.949   0.155  17.204 -0.0129 -0.1395  0.1432
 2825TIP3    H129890   2.882   0.107  17.155 -2.1116  1.5743  1.2497
 2825TIP3    H229891   2.979   0.094  17.271  0.7688 -1.4884 -1.3962
 2826TIP3   OH229892   1.320   3.956   0.212 -0.2101 -0.2845  0.1645
 2826TIP3    H129893   1.235   3.978   0.176  0.6408 -1.0556 -2.3965
 2826TIP3    H229894   1.383   4.006   0.160  1.0225 -1.0947  0.8305
 2827TIP3   OH229895   4.066   4.794   4.919 -0.5293  0.2229 -0.2246
 2827TIP3    H129896   4.151   4.787   4.963 -0.4123 -0.8990 -0.6110
 2827TIP3    H229897   4.050   4.888   4.912  1.1056  0.4614 -0.9499
 2828TIP3   OH229898   1.459   4.542   4.786 -0.1546  0.4556  0.2114
 2828TIP3    H129899   1.420   4.507   4.706 -1.3701  1.2353  0.4573
 2828TIP3    H229900   1.463   4.636   4.771  0.9815  0.4566  0.4849
 2829TIP3   OH229901   3.016   3.109   2.178  0.0472  0.0386 -0.1957
 2829TIP3    H129902   3.094   3.079   2.132  0.2127 -0.5217  0.4403
 2829TIP3    H229903   3.009   3.051   2.254 -2.5589 -1.7772 -1.7001
 2830TIP3   OH229904   4.695   1.228   0.566  0.3220  0.2129 -0.5715
 2830TIP3    H129905   4.727   1.317   0.554  1.6866  0.0211  1.3507
 2830TIP3    H229906   4.658   1.227   0.655  2.5714 -1.7265  0.4127
 2831TIP3   OH229907   6.640   6.013   1.473  0.1062  0.5781 -0.4398
 2831TIP3    H129908   6.618   5.920   1.466  0.0150  0.6614 -1.3403
 2831TIP3    H229909   6.696   6.019   1.549 -3.1370  0.3668  2.0951
 2832TIP3   OH229910   2.001   5.292  12.166 -0.2744 -0.4650  0.6160
 2832TIP3    H129911   1.938   5.337  12.109 -0.5766 -0.2423  1.1206
 2832TIP3    H229912   1.947   5.237  12.223  0.0347 -0.7750  0.6100
 2833TIP3   OH229913   6.073   2.852  12.982  0.0653  0.2091 -0.2645
 2833TIP3    H129914   6.043   2.941  12.959  1.3850  0.9193  0.7305
 2833TIP3    H229915   6.130   2.827  12.909 -1.1386 -0.2642 -1.0679
 2834TIP3   OH229916   4.316   6.179  13.973  0.2714 -0.4267 -0.1117
 2834TIP3    H129917   4.396   6.181  14.024  1.0011  0.5798 -1.2604
 2834TIP3    H229918   4.252   6.135  14.029  0.9893  0.8434  1.7370
 2835TIP3   OH229919   5.957   6.420  15.006  0.0255 -0.0625  0.7595
 2835TIP3    H129920   5.974   6.509  14.975  1.0635 -1.1140 -1.8708
 2835TIP3    H229921   5.878   6.393  14.960 -0.0848 -0.6189  1.2657
 2836TIP3   OH229922   5.696   0.963  16.109 -0.2993  0.0659  0.0867
 2836TIP3    H129923   5.737   0.890  16.155  1.7094 -0.1332 -1.9304
 2836TIP3    H229924   5.616   0.926  16.072  0.3144 -0.9252 -0.2669
 2837TIP3   OH229925   0.272   4.150  11.446 -0.0943  0.0395  0.1362
 2837TIP3    H129926   0.186   4.184  11.422 -0.2743 -0.4879  0.0059
 2837TIP3    H229927   0.271   4.147  11.541  0.4444  1.7021  0.1905
 2838TIP3   OH229928   1.851   0.586  12.082  0.1386 -0.0228 -0.4911
 2838TIP3    H129929   1.843   0.676  12.114  2.0204  1.5734 -4.1171
 2838TIP3    H229930   1.923   0.548  12.133  0.1651  0.9532  0.2011
 2839TIP3   OH229931   4.202   2.333  11.583  0.0432 -0.0777  0.1143
 2839TIP3    H129932   4.215   2.422  11.552 -0.7264  0.3012  0.8722
 2839TIP3    H229933   4.255   2.279  11.524  0.5127  0.8743 -0.3390
 2840TIP3   OH229934   5.426   1.423   0.867 -0.4940 -0.0344 -0.8261
 2840TIP3    H129935   5.340   1.460   0.884 -0.9466 -0.9386 -1.1312
 2840TIP3    H229936   5.410   1.330   0.853  0.7771 -0.5640  1.0349
 2841TIP3   OH229937   0.295   2.779  13.100  0.0317  0.0287  0.1853
 2841TIP3    H129938   0.217   2.803  13.150 -1.0389 -0.0960 -1.4018
 2841TIP3    H229939   0.286   2.824  13.016  2.0524  0.6357  0.2550
 2842TIP3   OH229940   4.136   4.681  14.056  0.3187 -0.3843 -0.1276
 2842TIP3    H129941   4.213   4.625  14.048 -1.4183 -2.5867 -2.4229
 2842TIP3    H229942   4.169   4.769  14.038  2.0893 -1.4563 -2.4158
 2843TIP3   OH229943   1.699   6.154   0.683  0.0566 -0.0455  0.0236
 2843TIP3    H129944   1.736   6.236   0.652  1.7215 -0.7390  0.1402
 2843TIP3    H229945   1.646   6.123   0.609  1.3040 -0.0161 -0.9118
 2844TIP3   OH229946   4.913   2.324  12.269  0.2013  0.2061 -0.0826
 2844TIP3    H129947   4.967   2.294  12.342  1.6318  0.0153 -1.1946
 2844TIP3    H229948   4.975   2.367  12.210 -1.0344  0.9098 -0.8894
 2845TIP3   OH229949   0.406   0.802  12.670 -0.2106  0.2728 -0.3867
 2845TIP3    H129950   0.342   0.787  12.739 -0.4882  0.0040 -0.7012
 2845TIP3    H229951   0.408   0.897  12.659 -0.8811  0.2617 -0.6750
 2846TIP3   OH229952   3.637   0.680  12.180  0.0409 -0.1605  0.0651
 2846TIP3    H129953   3.626   0.760  12.231 -1.6062  0.3036 -1.0087
 2846TIP3    H229954   3.569   0.684  12.113 -0.6303 -2.8637  0.5265
 2847TIP3   OH229955   0.322   4.178  11.897 -0.0143  0.3217 -0.7498
 2847TIP3    H129956   0.276   4.106  11.941  0.6852  1.7857  2.5502
 2847TIP3    H229957   0.393   4.135  11.850  0.3146 -1.2167  1.0440
 2848TIP3   OH229958   6.118   6.413  13.981 -0.5808 -0.2663 -0.0774
 2848TIP3    H129959   6.051   6.481  13.972 -1.2760 -0.9927 -0.4648
 2848TIP3    H229960   6.144   6.392  13.891  1.8336  1.6199  0.1161
 2849TIP3   OH229961   1.476   5.384   1.435 -0.2151 -0.0885  0.3403
 2849TIP3    H129962   1.508   5.470   1.462  0.4712 -0.7522  1.6697
 2849TIP3    H229963   1.497   5.379   1.342 -0.2529  1.1736  0.2534
 2850TIP3   OH229964   6.321   3.604   4.597 -0.8355 -0.0772 -0.1319
 2850TIP3    H129965   6.373   3.685   4.593 -1.0031  0.1621  1.9530
 2850TIP3    H229966   6.260   3.611   4.523 -1.0491  1.8547  0.1924
 2851TIP3   OH229967   5.937   0.737   2.143  0.1037 -0.5606 -0.2615
 2851TIP3    H129968   5.931   0.769   2.233 -2.0825 -0.4848 -0.4120
 2851TIP3    H229969   5.978   0.650   2.151  0.5709 -0.2563  0.7247
 2852TIP3   OH229970   2.919   1.158   1.529  0.3260 -0.0764  0.2465
 2852TIP3    H129971   2.843   1.206   1.497  0.3193 -0.1497  0.1522
 2852TIP3    H229972   2.939   1.095   1.459 -0.2193 -0.8331  0.7645
 2853TIP3   OH229973   3.261   6.095   3.364  0.3662  0.2092  0.3999
 2853TIP3    H129974   3.200   6.050   3.305  0.0159 -1.3027  1.8784
 2853TIP3    H229975   3.334   6.121   3.308  1.4041 -3.7651 -0.2247
 2854TIP3   OH229976   3.026   3.096  14.791 -0.7321  0.1429 -0.2410
 2854TIP3    H129977   3.043   3.130  14.703 -2.6424  0.2925 -0.5693
 2854TIP3    H229978   3.049   3.168  14.850  0.3037  0.1317 -0.6218
 2855TIP3   OH229979   0.038   4.368   0.544  0.3080 -0.3378  0.3573
 2855TIP3    H129980   0.069   4.432   0.480 -0.1606 -1.0264 -0.5533
 2855TIP3    H229981   0.116   4.316   0.565  0.2418 -0.7536 -0.4056
 2856TIP3   OH229982   1.782   3.574   0.824  0.0153  0.1834 -0.1177
 2856TIP3    H129983   1.821   3.495   0.788  1.5500  1.2530 -0.8852
 2856TIP3    H229984   1.724   3.607   0.754 -0.4096 -0.1035  0.0960
 2857TIP3   OH229985   6.406   5.066  14.172 -0.1164 -0.5404 -0.6550
 2857TIP3    H129986   6.392   5.092  14.263 -1.8452  0.0313 -1.0643
 2857TIP3    H229987   6.501   5.062  14.163  0.1369  1.7235  0.5387
 2858TIP3   OH229988   5.402   0.376  13.991  0.0939  0.1462  0.4100
 2858TIP3    H129989   5.361   0.290  13.986 -0.0859  0.3075 -1.1539
 2858TIP3    H229990   5.467   0.376  13.921 -0.9264  1.7876 -0.5795
 2859TIP3   OH229991   4.902   0.825  15.777 -0.2625 -0.6622 -0.0850
 2859TIP3    H129992   4.908   0.920  15.773  0.1398 -0.7251 -1.0251
 2859TIP3    H229993   4.852   0.800  15.699 -3.1965 -1.0012  1.8209
 2860TIP3   OH229994   1.028   4.998  12.743  0.1178 -0.3904 -0.3397
 2860TIP3    H129995   0.935   4.997  12.720  0.6505 -0.7333 -2.6769
 2860TIP3    H229996   1.043   4.917  12.791 -0.1603 -1.9772 -2.8352
 2861TIP3   OH229997   3.276   3.181   2.950 -0.6392 -0.3775 -0.4182
 2861TIP3    H129998   3.316   3.094   2.950 -0.9491 -0.5270 -0.9965
 2861TIP3    H229999   3.350   3.241   2.949 -0.4217 -0.6331  0.0220
 2862TIP3   OH230000   4.559   3.587  12.056  0.4462  0.1304 -0.0839
 2862TIP3    H130001   4.493   3.525  12.024 -1.6832  2.6407 -0.6886
 2862TIP3    H230002   4.614   3.604  11.979  0.4653 -0.2584 -0.1596
 2863TIP3   OH230003   3.881   5.049  14.073  0.0210  0.3941 -0.0367
 2863TIP3    H130004   3.886   4.982  14.005 -0.3321  0.7708 -0.4305
 2863TIP3    H230005   3.870   4.999  14.154 -0.9397  0.0062 -0.4045
 2864TIP3   OH230006   3.418   6.636  11.996 -0.1816 -0.2925 -0.5617
 2864TIP3    H130007   3.379   6.677  11.918  1.2728  0.8766 -0.6966
 2864TIP3    H230008   3.479   6.571  11.961  0.0919 -0.1243 -0.4046
 2865TIP3   OH230009   3.355   0.120   4.724  0.5886 -0.0245  0.5705
 2865TIP3    H130010   3.361   0.025   4.712 -0.2949  0.1338 -1.2889
 2865TIP3    H230011   3.323   0.153   4.640 -2.8730  1.5302  2.3743
 2866TIP3   OH230012   0.499   2.686  17.085 -0.3476  0.0369 -0.1646
 2866TIP3    H130013   0.539   2.713  17.002 -0.5469  0.3236 -0.1677
 2866TIP3    H230014   0.429   2.750  17.100 -1.1771 -0.7934 -0.4423
 2867TIP3   OH230015   0.408   1.835   1.666 -0.3818  0.6309 -0.0390
 2867TIP3    H130016   0.448   1.754   1.636  0.2120 -0.4430  3.4046
 2867TIP3    H230017   0.321   1.836   1.627  0.1220 -0.9696 -1.2090
 2868TIP3   OH230018   4.606   2.248   3.846 -0.0353  0.5629 -0.0485
 2868TIP3    H130019   4.634   2.183   3.783  0.3158  1.6625 -1.0544
 2868TIP3    H230020   4.672   2.245   3.915  0.8506  0.9422 -0.8695
 2869TIP3   OH230021   2.546   1.158  14.570 -0.5168  0.4487  0.1329
 2869TIP3    H130022   2.598   1.120  14.641 -1.2336  1.2400  1.0921
 2869TIP3    H230023   2.586   1.124  14.490  1.4726  1.0430  0.8485
 2870TIP3   OH230024   6.663   1.162  15.579  0.2372 -0.0174 -0.0825
 2870TIP3    H130025   6.575   1.167  15.542  0.8380  2.5186 -1.2911
 2870TIP3    H230026   6.689   1.071  15.565 -2.3174 -0.9095  0.6533
 2871TIP3   OH230027   2.940   6.138  14.997  0.1129 -0.2146  0.2289
 2871TIP3    H130028   2.963   6.065  14.939 -1.9681  0.0139 -0.9457
 2871TIP3    H230029   2.873   6.186  14.948 -0.2521  1.1262  2.0130
 2872TIP3   OH230030   3.679   4.034  13.746  0.5002 -0.5832  0.5870
 2872TIP3    H130031   3.717   4.117  13.775  0.0557 -0.4878  0.9095
 2872TIP3    H230032   3.697   4.031  13.652  0.6669 -0.2001  0.6045
 2873TIP3   OH230033   3.762   2.289   5.022  0.6588 -0.1709 -0.0278
 2873TIP3    H130034   3.769   2.260   4.931  0.2975  0.0710 -0.1345
 2873TIP3    H230035   3.738   2.210   5.071  1.4636 -0.4281 -0.0524
 2874TIP3   OH230036   6.629   4.462  11.816 -0.7642  0.0046  0.3911
 2874TIP3    H130037   6.608   4.396  11.882  2.4632 -0.0997  1.3876
 2874TIP3    H230038   6.705   4.508  11.851 -0.4123  1.5091 -2.2027
 2875TIP3   OH230039   3.112   1.445   1.679  0.0075 -0.3124  0.4560
 2875TIP3    H130040   3.088   1.491   1.599 -1.6303  0.0597  1.1295
 2875TIP3    H230041   3.138   1.515   1.740  1.2157 -0.5902  0.2795
 2876TIP3   OH230042   3.365   5.161   3.817 -0.0002 -0.4267  0.0764
 2876TIP3    H130043   3.389   5.088   3.873  0.2356 -2.3863 -2.4869
 2876TIP3    H230044   3.280   5.136   3.779  0.0899  0.6113 -0.8475
 2877TIP3   OH230045   2.374   0.944  16.037 -0.2033  0.4259  0.5360
 2877TIP3    H130046   2.445   0.888  16.005 -0.4005  1.1255 -1.1923
 2877TIP3    H230047   2.321   0.886  16.092 -0.6552 -1.2468 -1.5822
 2878TIP3   OH230048   6.697   2.167   1.579  0.0851 -0.3352 -0.4603
 2878TIP3    H130049   6.712   2.164   1.484  0.2750  0.3376 -0.4547
 2878TIP3    H230050   6.629   2.101   1.594 -0.2562 -0.1507 -1.1263
 2879TIP3   OH230051   4.856   4.993  15.378 -0.0100 -0.0791 -0.4823
 2879TIP3    H130052   4.800   4.986  15.455  1.2211 -0.5874  0.3889
 2879TIP3    H230053   4.867   5.087  15.364 -1.6832  0.0389 -1.1342
 2880TIP3   OH230054   1.704   4.410   4.753  0.1073 -0.4705  0.6808
 2880TIP3    H130055   1.645   4.483   4.768  0.1344 -0.1692 -0.6618
 2880TIP3    H230056   1.671   4.368   4.673 -0.4222 -2.4337  1.8995
 2881TIP3   OH230057   0.816   5.511   5.864 -0.0396 -0.6419 -0.0159
 2881TIP3    H130058   0.764   5.591   5.876 -0.7962 -0.7482 -2.2682
 2881TIP3    H230059   0.774   5.446   5.920 -1.4601 -0.3224 -0.6807
 2882TIP3   OH230060   1.347   3.368   1.142 -0.2560  0.7638  0.7367
 2882TIP3    H130061   1.345   3.297   1.077 -0.6997  1.0021  0.4849
 2882TIP3    H230062   1.273   3.349   1.199 -0.1820  0.8489  0.8600
 2883TIP3   OH230063   3.011   6.375  14.025  0.0103  0.2042  0.2214
 2883TIP3    H130064   3.100   6.379  13.991 -0.2609 -1.5716 -0.7280
 2883TIP3    H230065   3.021   6.342  14.115  0.2389 -1.0404 -0.2509
 2884TIP3   OH230066   5.348   2.988   5.159  0.2282  0.0108 -0.2387
 2884TIP3    H130067   5.360   2.904   5.113  0.5459 -0.1433  0.1260
 2884TIP3    H230068   5.436   3.021   5.172  0.1862 -0.3094  0.9280
 2885TIP3   OH230069   0.865   2.949   5.488  0.0815  0.2178  0.6009
 2885TIP3    H130070   0.957   2.929   5.472  0.1875  0.2605  1.1681
 2885TIP3    H230071   0.862   2.978   5.579 -0.3640  1.0050  0.3384
 2886TIP3   OH230072   1.288   4.512   2.978  0.5411  0.2449  0.1017
 2886TIP3    H130073   1.318   4.457   3.050  0.5905  0.3548  0.1654
 2886TIP3    H230074   1.331   4.597   2.993  0.3023  0.3624  0.1205
 2887TIP3   OH230075   4.304   0.883   5.982 -0.2851 -0.3958  0.2338
 2887TIP3    H130076   4.338   0.837   6.059 -0.2512  0.2660  0.6196
 2887TIP3    H230077   4.307   0.976   6.006 -1.1098 -0.2440 -0.2276
 2888TIP3   OH230078   2.263   3.654  11.043  0.0777  0.1781  0.3112
 2888TIP3    H130079   2.188   3.681  10.989 -0.8631 -0.2430  1.3999
 2888TIP3    H230080   2.320   3.731  11.043  0.6143 -0.1632 -2.1559
 2889TIP3   OH230081   3.573   5.614   5.434  0.1441  0.4343 -0.5492
 2889TIP3    H130082   3.555   5.681   5.368  0.0307  0.1969 -0.7590
 2889TIP3    H230083   3.492   5.563   5.441  0.6465 -0.4858 -1.3223
 2890TIP3   OH230084   6.608   5.909  16.979 -0.1383  0.2373  0.2591
 2890TIP3    H130085   6.603   5.999  17.012 -1.8455  0.5048 -0.6619
 2890TIP3    H230086   6.530   5.866  17.014  0.5227 -0.8159  0.4612
 2891TIP3   OH230087   3.400   4.435  10.565  0.6283  0.0274  0.5850
 2891TIP3    H130088   3.369   4.504  10.624 -0.6331 -0.8997  1.0255
 2891TIP3    H230089   3.426   4.364  10.623  2.3760  0.3040  0.1521
 2892TIP3   OH230090   6.334   3.903  11.883  0.1868  0.2217 -0.0719
 2892TIP3    H130091   6.352   3.870  11.971 -2.7002 -0.2871  0.3765
 2892TIP3    H230092   6.420   3.933  11.850  1.5026 -0.6927  2.4167
 2893TIP3   OH230093   2.095   2.511   6.121 -0.5733  0.1031  0.1314
 2893TIP3    H130094   2.155   2.577   6.155 -0.0366 -0.8438  1.0565
 2893TIP3    H230095   2.020   2.561   6.088 -0.8063  1.1006  2.0992
 2894TIP3   OH230096   6.695   3.868  11.181  0.2767  0.2144 -0.3801
 2894TIP3    H130097   6.789   3.862  11.201 -0.4702 -2.2502  2.7721
 2894TIP3    H230098   6.677   3.789  11.131  0.0696  1.3182 -2.1019
 2895TIP3   OH230099   0.853   4.261   1.313  0.3194 -0.3145 -0.2380
 2895TIP3    H130100   0.858   4.185   1.370 -2.2301 -0.2931  0.0629
 2895TIP3    H230101   0.872   4.335   1.370 -0.3432 -0.4581  0.1703
 2896TIP3   OH230102   0.844   4.266  13.287 -0.5939 -0.1075 -0.0815
 2896TIP3    H130103   0.873   4.323  13.358 -0.3554 -0.7366  0.3324
 2896TIP3    H230104   0.753   4.246  13.307 -0.2200 -1.1421  0.6240
 2897TIP3   OH230105   1.176   4.524  13.216  0.2647 -0.3665  0.4050
 2897TIP3    H130106   1.162   4.433  13.243  0.0097 -0.1017  1.1768
 2897TIP3    H230107   1.124   4.533  13.136  0.3829 -0.9346  0.2629
 2898TIP3   OH230108   1.531   2.952  14.823  0.6644  0.2117 -0.0784
 2898TIP3    H130109   1.501   3.040  14.845  0.1088  0.2247 -0.8787
 2898TIP3    H230110   1.625   2.961  14.814  0.5472  0.8585 -0.7536
 2899TIP3   OH230111   0.223   2.940   3.113  0.5276 -0.8098 -0.7523
 2899TIP3    H130112   0.254   2.952   3.023  1.3828  1.1998 -0.1941
 2899TIP3    H230113   0.169   3.016   3.131  1.3569 -0.5851  0.8648
 2900TIP3   OH230114   0.841   1.161  16.749 -0.0438  0.0961  0.2725
 2900TIP3    H130115   0.795   1.230  16.797 -2.0752 -1.8812  1.1847
 2900TIP3    H230116   0.896   1.209  16.686 -0.8098  2.5615  1.4356
 2901TIP3   OH230117   1.623   6.360   2.682  0.1762  0.0513  0.4838
 2901TIP3    H130118   1.710   6.365   2.643  0.2994  2.0627  0.9741
 2901TIP3    H230119   1.610   6.445   2.724 -2.6955  0.4423 -1.0334
 2902TIP3   OH230120   6.212   4.408   1.018 -0.4640  0.1081  0.0127
 2902TIP3    H130121   6.146   4.342   1.040  0.6765 -1.3529 -0.8684
 2902TIP3    H230122   6.207   4.416   0.922  2.1987 -1.7316 -0.3260
 2903TIP3   OH230123   0.775   5.338  15.737 -0.0873  0.4258  0.3817
 2903TIP3    H130124   0.779   5.425  15.697 -1.1004  0.5654  0.5763
 2903TIP3    H230125   0.867   5.311  15.746  0.1362  0.0457 -2.7644
 2904TIP3   OH230126   5.899   3.533  12.443 -0.2268 -0.3420 -0.5214
 2904TIP3    H130127   5.835   3.603  12.431 -1.3573 -1.6607 -2.5093
 2904TIP3    H230128   5.849   3.462  12.484  0.7432 -0.2575  0.8375
 2905TIP3   OH230129   0.341   5.224   5.260 -0.8217 -0.1622  0.4046
 2905TIP3    H130130   0.344   5.311   5.300 -0.0604  0.0344 -0.0690
 2905TIP3    H230131   0.383   5.166   5.325 -0.5133 -0.0189  0.3349
 2906TIP3   OH230132   0.835   0.981  15.032  0.2064 -0.0298 -0.4750
 2906TIP3    H130133   0.880   0.969  14.948  0.4940 -0.6821 -0.2259
 2906TIP3    H230134   0.856   1.071  15.057  4.0163 -1.2772  1.1828
 2907TIP3   OH230135   5.436   2.737   4.088  0.9454  0.2749  0.5127
 2907TIP3    H130136   5.404   2.791   4.160 -0.0532 -0.1455  0.3852
 2907TIP3    H230137   5.469   2.799   4.024 -0.9642  0.7704  0.0006
 2908TIP3   OH230138   5.018   1.797   5.434  0.2056  0.0008  0.1977
 2908TIP3    H130139   5.113   1.801   5.422  0.1207  1.1962 -0.0574
 2908TIP3    H230140   5.001   1.844   5.515 -0.0927 -0.9093  0.6699
 2909TIP3   OH230141   1.812   1.341  14.591  0.0469 -0.0577  0.3953
 2909TIP3    H130142   1.834   1.308  14.678  0.0508 -0.4717  0.2361
 2909TIP3    H230143   1.842   1.432  14.592  0.8883 -0.3369  0.5104
 2910TIP3   OH230144   2.961   4.614  13.249  0.4073 -0.3790  0.1315
 2910TIP3    H130145   2.924   4.526  13.257  1.0137 -0.4114  2.8992
 2910TIP3    H230146   3.043   4.610  13.299  0.2036  1.8944  0.6839
 2911TIP3   OH230147   2.367   1.871   2.629 -0.4617  0.2596  0.3980
 2911TIP3    H130148   2.278   1.839   2.616  0.0862 -1.0376 -0.2668
 2911TIP3    H230149   2.361   1.966   2.615 -1.4428 -0.0230 -1.2467
 2912TIP3   OH230150   2.478   6.685  13.217 -0.1837  0.1274  0.0375
 2912TIP3    H130151   2.398   6.638  13.242  0.5545 -1.6219 -0.7715
 2912TIP3    H230152   2.459   6.718  13.129  0.3456 -1.2491 -0.6209
 2913TIP3   OH230153   5.588   4.315   4.567  0.4062 -0.5751  0.4859
 2913TIP3    H130154   5.492   4.311   4.562  0.5066 -1.7814 -0.6168
 2913TIP3    H230155   5.605   4.366   4.646 -1.1090 -3.2312  2.5963
 2914TIP3   OH230156   3.151   5.415  12.818 -0.0850  0.3427  0.1606
 2914TIP3    H130157   3.056   5.414  12.830  0.0457  1.7930  1.4697
 2914TIP3    H230158   3.187   5.391  12.903  0.7393  1.2742  0.0907
 2915TIP3   OH230159   1.786   5.651   3.561 -0.6133  0.3814 -0.2867
 2915TIP3    H130160   1.783   5.732   3.511 -1.3341  0.5024 -0.0612
 2915TIP3    H230161   1.826   5.676   3.644 -0.5880  0.4523 -0.3203
 2916TIP3   OH230162   6.391   3.921  15.635  0.5329  0.1480  0.2280
 2916TIP3    H130163   6.339   3.977  15.692 -0.4084 -1.2510  0.7892
 2916TIP3    H230164   6.476   3.965  15.628  0.6876  0.3096  2.7729
 2917TIP3   OH230165   4.392   2.088   0.112 -0.2557  0.3700  0.1277
 2917TIP3    H130166   4.447   2.040   0.174 -0.1461  0.9369  0.4694
 2917TIP3    H230167   4.452   2.115   0.043 -0.3376 -0.0748 -0.1193
 2918TIP3   OH230168   5.095   4.386  14.104 -0.2323 -0.2348  0.1750
 2918TIP3    H130169   5.108   4.477  14.130 -1.5468 -0.1483  0.5683
 2918TIP3    H230170   5.182   4.346  14.112  0.1347  0.7213  1.0725
 2919TIP3   OH230171   3.079   5.563   1.099  0.0620  0.5470 -0.1725
 2919TIP3    H130172   3.075   5.476   1.061  0.4657  0.5652 -0.2616
 2919TIP3    H230173   2.988   5.584   1.122  0.2019 -0.5731  1.4131
 2920TIP3   OH230174   4.767   6.722   4.307  0.0417 -0.2376  0.0892
 2920TIP3    H130175   4.709   6.646   4.310 -1.9107  1.2174 -0.0607
 2920TIP3    H230176   4.757   6.757   4.219  0.6801  0.3860  0.2574
 2921TIP3   OH230177   0.134   0.752   5.020  0.2630  0.1296  0.2151
 2921TIP3    H130178   0.067   0.819   5.011  1.1184  0.7030 -2.0912
 2921TIP3    H230179   0.217   0.799   5.018  0.8202 -0.8208  0.3624
 2922TIP3   OH230180   0.275   4.167  13.895 -0.2624  0.1035 -0.6017
 2922TIP3    H130181   0.243   4.106  13.829  1.5361  0.6034 -1.9793
 2922TIP3    H230182   0.287   4.114  13.973 -1.8384 -0.6256 -0.8250
 2923TIP3   OH230183   2.989   1.246  12.774  0.0020  0.0973 -0.1159
 2923TIP3    H130184   3.083   1.248  12.790 -0.1184 -0.0950  0.6570
 2923TIP3    H230185   2.954   1.315  12.830 -0.3714 -0.2068  0.0293
 2924TIP3   OH230186   4.333   2.887   1.919 -0.1531 -0.7995 -0.7519
 2924TIP3    H130187   4.370   2.953   1.860  2.2830 -0.9918  0.4873
 2924TIP3    H230188   4.362   2.803   1.884  0.1244 -0.9847 -0.1018
 2925TIP3   OH230189   5.434   2.341  12.232 -0.0964  0.5699 -0.3082
 2925TIP3    H130190   5.479   2.423  12.211 -0.8448  1.1100  0.1597
 2925TIP3    H230191   5.344   2.355  12.203 -0.0681 -0.3370 -0.8364
 2926TIP3   OH230192   6.448   4.532  13.404  0.0835  0.7149 -0.2736
 2926TIP3    H130193   6.357   4.562  13.393  0.2109  1.8166  1.5681
 2926TIP3    H230194   6.447   4.484  13.487  0.5964 -1.6576 -1.6101
 2927TIP3   OH230195   0.226   4.683  14.493 -0.1829 -0.2592  0.2530
 2927TIP3    H130196   0.239   4.757  14.433 -1.2804 -0.9012 -0.7933
 2927TIP3    H230197   0.178   4.722  14.567 -0.8754  0.0734 -0.3525
 2928TIP3   OH230198   3.253   4.569   4.818  0.4564  0.1981 -0.4996
 2928TIP3    H130199   3.297   4.651   4.841  0.3613  0.3576 -0.8745
 2928TIP3    H230200   3.178   4.564   4.877  1.5503 -0.5873  0.8539
 2929TIP3   OH230201   3.806   6.513  13.805 -0.1663  0.3434  0.3600
 2929TIP3    H130202   3.784   6.465  13.726 -0.9495 -1.5562  1.6838
 2929TIP3    H230203   3.884   6.468  13.839  0.3112  1.2956  0.5572
 2930TIP3   OH230204   2.707   1.132  16.533 -0.2863 -0.4751  0.0331
 2930TIP3    H130205   2.711   1.227  16.549  0.2224 -0.4528 -0.2121
 2930TIP3    H230206   2.664   1.124  16.448  1.0842 -0.3913 -0.6746
 2931TIP3   OH230207   2.434   5.325  12.389 -0.2223 -0.4897 -0.0498
 2931TIP3    H130208   2.492   5.281  12.451 -1.2696 -2.0186 -0.1192
 2931TIP3    H230209   2.378   5.380  12.444 -0.2181 -0.7577  0.2255
 2932TIP3   OH230210   5.140   4.479   4.740  0.0512  0.0755 -0.6235
 2932TIP3    H130211   5.214   4.463   4.798  1.0071  1.5706 -1.4129
 2932TIP3    H230212   5.088   4.546   4.785  1.7800  2.6252 -2.2991
 2933TIP3   OH230213   0.853   3.302   0.983  0.4205 -0.6200 -0.7541
 2933TIP3    H130214   0.809   3.286   1.067  0.2598 -1.3850 -0.9818
 2933TIP3    H230215   0.900   3.384   0.996 -2.0343  0.8546 -0.8940
 2934TIP3   OH230216   2.024   2.563  13.827 -0.3576  0.3562  0.5124
 2934TIP3    H130217   2.013   2.468  13.833 -1.5360  0.5369  1.3944
 2934TIP3    H230218   2.119   2.575  13.815 -0.0128 -0.8628  1.8683
 2935TIP3   OH230219   0.089   5.599   1.424  0.2754  0.1530 -0.6431
 2935TIP3    H130220   0.065   5.639   1.507 -0.1835 -0.9682 -0.2244
 2935TIP3    H230221   0.025   5.529   1.411 -1.0759  1.7624 -3.0708
 2936TIP3   OH230222   4.950   0.456  12.669 -0.0467 -0.2066 -0.5323
 2936TIP3    H130223   4.911   0.376  12.702 -0.9001 -0.1116 -1.3060
 2936TIP3    H230224   4.963   0.511  12.747 -1.3921 -0.2594 -0.2624
 2937TIP3   OH230225   1.634   0.873  12.445  0.8053 -0.0652 -0.1230
 2937TIP3    H130226   1.542   0.857  12.469  0.6873 -0.7450 -0.9901
 2937TIP3    H230227   1.634   0.962  12.409 -0.0655 -1.0516 -2.7251
 2938TIP3   OH230228   3.594   2.258   1.937  0.3193  0.4269 -0.2076
 2938TIP3    H130229   3.636   2.258   1.851 -1.3619 -1.1095 -1.0521
 2938TIP3    H230230   3.522   2.195   1.929 -1.2193  1.8791  1.6579
 2939TIP3   OH230231   3.738   0.730  13.645 -0.1069 -0.6963  0.3106
 2939TIP3    H130232   3.655   0.738  13.693 -1.7438  1.7474 -2.7488
 2939TIP3    H230233   3.722   0.660  13.582 -0.9906  1.8697 -2.3888
 2940TIP3   OH230234   3.744   4.203  11.593 -0.0074  0.3251  0.3260
 2940TIP3    H130235   3.705   4.252  11.521  0.1058  0.3967  0.3140
 2940TIP3    H230236   3.669   4.161  11.636 -0.1666  0.9421  0.6599
 2941TIP3   OH230237   5.524   5.310  11.348  0.3405  0.3257 -0.0989
 2941TIP3    H130238   5.480   5.346  11.425 -0.4041  1.3098 -0.9636
 2941TIP3    H230239   5.468   5.335  11.275  1.2240 -0.2857 -0.9987
 2942TIP3   OH230240   0.543   3.800  14.892  0.3283 -0.5028  0.4109
 2942TIP3    H130241   0.637   3.800  14.910  0.0251 -0.8303  2.0362
 2942TIP3    H230242   0.509   3.727  14.943 -0.8748 -0.1186  0.1684
 2943TIP3   OH230243   3.475   0.127   0.482  0.5783  0.4569 -0.3141
 2943TIP3    H130244   3.407   0.179   0.526 -0.0607 -0.7854  0.1988
 2943TIP3    H230245   3.431   0.092   0.404  0.6362 -0.2732 -0.0298
 2944TIP3   OH230246   3.951   6.489   0.058  0.1612 -0.5852 -0.5323
 2944TIP3    H130247   3.903   6.468  -0.022  1.9586 -1.0454 -1.4942
 2944TIP3    H230248   4.002   6.410   0.077  1.1467  0.1893  0.0632
 2945TIP3   OH230249   2.798   0.855   5.222  0.6526 -0.0146  0.0284
 2945TIP3    H130250   2.709   0.867   5.256  0.1924 -0.2206 -1.0671
 2945TIP3    H230251   2.785   0.835   5.129  1.7336 -2.0165  0.2751
 2946TIP3   OH230252   2.090   4.812  16.488 -0.2757  0.2840  1.0262
 2946TIP3    H130253   2.106   4.898  16.451  0.8415 -0.6714 -0.8120
 2946TIP3    H230254   2.019   4.775  16.435 -0.5167 -0.0529  1.5744
 2947TIP3   OH230255   1.380   0.451   1.905  0.7351  0.0620  0.0628
 2947TIP3    H130256   1.474   0.446   1.920  0.4162 -0.5037  2.0705
 2947TIP3    H230257   1.361   0.380   1.844  1.3500 -0.9866  1.0853
 2948TIP3   OH230258   6.212   2.991   5.124 -0.1969 -0.2510 -0.1283
 2948TIP3    H130259   6.270   3.028   5.190 -0.3757  2.1450 -1.2786
 2948TIP3    H230260   6.271   2.953   5.058  0.0961  2.0151 -1.2035
 2949TIP3   OH230261   3.537   6.656  10.903 -0.4351  0.3683 -0.3245
 2949TIP3    H130262   3.605   6.659  10.835 -2.2333 -0.7660 -2.2513
 2949TIP3    H230263   3.481   6.731  10.884 -0.8864  0.1087 -0.0353
 2950TIP3   OH230264   3.244   4.552   5.972 -0.2355  0.4434  0.1006
 2950TIP3    H130265   3.302   4.543   5.896 -1.4821 -0.7574 -0.7140
 2950TIP3    H230266   3.262   4.640   6.004  0.8556  0.6940 -1.1330
 2951TIP3   OH230267   0.247   6.324   1.928  0.7265 -0.0311  0.1042
 2951TIP3    H130268   0.281   6.327   1.839  0.8872 -1.8002  0.0806
 2951TIP3    H230269   0.322   6.340   1.984  0.8325  0.0437 -0.0615
 2952TIP3   OH230270   2.523   1.165  16.824 -0.8734  0.8757 -0.2492
 2952TIP3    H130271   2.617   1.179  16.838 -1.2078  2.2633  0.7528
 2952TIP3    H230272   2.486   1.162  16.912 -1.2334 -3.9939 -0.4772
 2953TIP3   OH230273   6.541   5.093   1.483  0.5749  0.2922  0.0672
 2953TIP3    H130274   6.572   5.013   1.441  0.3421  0.3222 -0.1636
 2953TIP3    H230275   6.552   5.161   1.417 -0.2045  0.2580 -0.1048
 2954TIP3   OH230276   1.942   1.164  17.044 -0.1160 -1.0837  0.7169
 2954TIP3    H130277   2.033   1.187  17.022  0.3338  0.3382  3.8814
 2954TIP3    H230278   1.889   1.220  16.988  0.9773  0.0907  0.8511
 2955TIP3   OH230279   4.278   3.491  17.022 -0.5288 -0.0204 -0.2876
 2955TIP3    H130280   4.227   3.493  17.103  2.1007  1.7422  1.4238
 2955TIP3    H230281   4.340   3.420  17.034  2.0059  2.2702  0.7007
 2956TIP3   OH230282   6.723   0.273   6.454  0.8823 -0.2514 -0.3530
 2956TIP3    H130283   6.642   0.226   6.433  0.9329 -0.9792  1.0612
 2956TIP3    H230284   6.793   0.214   6.428  0.9453 -0.6199  0.6206
 2957TIP3   OH230285   4.224   4.266  11.692 -0.3735  0.0702  0.2935
 2957TIP3    H130286   4.221   4.223  11.777  1.1174 -0.1920  0.2217
 2957TIP3    H230287   4.195   4.356  11.710 -2.8755 -0.7528  0.5533
 2958TIP3   OH230288   1.447   3.506   5.313 -0.3691  0.2021 -0.2693
 2958TIP3    H130289   1.541   3.506   5.329 -0.5500  0.0435  0.8441
 2958TIP3    H230290   1.414   3.581   5.362 -0.7325  0.7069 -1.2650
 2959TIP3   OH230291   2.970   2.185   6.189  0.6080  0.1679 -0.3452
 2959TIP3    H130292   2.964   2.250   6.259 -0.7341 -0.6866  0.3576
 2959TIP3    H230293   2.899   2.209   6.128 -2.2715 -2.6974  1.7270
 2960TIP3   OH230294   0.588   0.155   0.515  0.4409 -0.8132 -0.3888
 2960TIP3    H130295   0.524   0.206   0.563  0.0432 -2.3346  0.7344
 2960TIP3    H230296   0.580   0.185   0.424 -0.6227  0.2350  0.0501
 2961TIP3   OH230297   3.984   4.265   5.397  0.6305  0.2347  0.0196
 2961TIP3    H130298   4.034   4.347   5.405  0.6608  0.3611 -1.3793
 2961TIP3    H230299   4.042   4.206   5.350  1.4839 -1.3609  2.9585
 2962TIP3   OH230300   6.324   4.779   5.847 -0.0302 -0.3002 -0.1461
 2962TIP3    H130301   6.314   4.874   5.840 -0.4334 -0.4513 -1.7425
 2962TIP3    H230302   6.402   4.767   5.900 -0.8865  0.9146  1.4361
 2963TIP3   OH230303   1.804   3.177   0.446  0.2139 -0.0136 -0.6260
 2963TIP3    H130304   1.739   3.135   0.390  1.5462 -0.0942 -2.1581
 2963TIP3    H230305   1.801   3.270   0.422  2.0580 -0.3246 -2.1818
 2964TIP3   OH230306   2.938   0.800   3.706 -0.1232 -0.3207  0.1623
 2964TIP3    H130307   2.903   0.726   3.757 -1.2961 -0.3601 -0.6624
 2964TIP3    H230308   2.860   0.847   3.677  0.6404  1.5217  1.0725
 2965TIP3   OH230309   3.507   5.988  12.249 -0.7959 -0.5534 -0.1645
 2965TIP3    H130310   3.535   6.038  12.172  0.0167 -0.3331  0.2580
 2965TIP3    H230311   3.436   6.040  12.287 -0.2450  0.0675  0.0257
 2966TIP3   OH230312   4.183   4.496   0.375 -0.1242 -0.0597 -0.0061
 2966TIP3    H130313   4.259   4.490   0.434  0.2135  2.4153 -0.1203
 2966TIP3    H230314   4.146   4.408   0.375  0.2721 -0.3134  3.3858
 2967TIP3   OH230315   0.492   0.423  17.093  0.2049 -0.4908  0.0492
 2967TIP3    H130316   0.489   0.494  17.157 -0.4418 -0.6604  0.2048
 2967TIP3    H230317   0.584   0.394  17.094 -0.0949 -1.4509  1.9492
 2968TIP3   OH230318   4.096   4.237   0.411 -0.1895 -0.1197 -0.4503
 2968TIP3    H130319   4.133   4.151   0.431 -0.4624  0.2346  1.7096
 2968TIP3    H230320   4.112   4.249   0.318 -1.6980 -3.2795 -1.1910
 2969TIP3   OH230321   0.051   4.784  16.423  0.0733 -0.0460 -0.1191
 2969TIP3    H130322   0.027   4.692  16.412 -0.6799  0.1262  0.0481
 2969TIP3    H230323  -0.031   4.827  16.447  0.6926  0.4435  1.1581
 2970TIP3   OH230324   4.350   5.736  11.862 -0.6203 -0.4192 -0.5131
 2970TIP3    H130325   4.266   5.690  11.858  0.4892 -2.4873 -0.6023
 2970TIP3    H230326   4.390   5.722  11.776  0.7817 -1.3470  0.2636
 2971TIP3   OH230327   2.833   0.495   4.274 -0.4187  0.6288  0.3764
 2971TIP3    H130328   2.825   0.589   4.257 -0.9204  0.3082 -1.2955
 2971TIP3    H230329   2.920   0.472   4.241 -1.2246  0.0822 -1.4539
 2972TIP3   OH230330   6.496   5.923  15.906 -0.0460  0.1916  0.7615
 2972TIP3    H130331   6.555   5.981  15.955  0.3589  1.0035 -0.6848
 2972TIP3    H230332   6.540   5.838  15.908 -0.4437  0.0039  2.5311
 2973TIP3   OH230333   3.328   4.370   5.592  0.3020 -0.4914  0.8081
 2973TIP3    H130334   3.262   4.348   5.658 -0.2986  0.2747  0.4756
 2973TIP3    H230335   3.280   4.366   5.509  0.6689  0.0874  0.5638
 2974TIP3   OH230336   1.459   6.268   0.757  0.0990  0.1883 -0.1749
 2974TIP3    H130337   1.516   6.199   0.792  0.6544  0.0812 -1.2524
 2974TIP3    H230338   1.493   6.284   0.669 -1.7707 -0.1284 -0.9754
 2975TIP3   OH230339   4.168   4.266   0.164  0.6605  0.4579 -0.4780
 2975TIP3    H130340   4.125   4.225   0.088  2.6520 -1.6099 -0.5456
 2975TIP3    H230341   4.246   4.308   0.127 -0.0775  2.2866 -0.0234
 2976TIP3   OH230342   1.723   5.192  13.311 -0.1708 -0.5007 -0.1303
 2976TIP3    H130343   1.637   5.231  13.324 -0.4364 -1.2212  0.3044
 2976TIP3    H230344   1.732   5.129  13.382  0.9101 -0.1076  0.0968
 2977TIP3   OH230345   4.651   4.937  15.564 -0.5884  0.1563 -0.1370
 2977TIP3    H130346   4.598   4.946  15.485  0.1877 -0.4401 -0.7349
 2977TIP3    H230347   4.623   5.010  15.619 -0.4522  1.1690 -1.3637
 2978TIP3   OH230348   5.518   0.108  13.318  0.3598  0.8874 -0.0941
 2978TIP3    H130349   5.606   0.142  13.302  0.1129  1.4495 -0.2733
 2978TIP3    H230350   5.532   0.019  13.351  0.9715  0.7804 -0.6356
 2979TIP3   OH230351   0.825   4.821  16.797  0.0252  0.0036  0.4269
 2979TIP3    H130352   0.800   4.744  16.747  1.1542  1.5269 -2.5675
 2979TIP3    H230353   0.742   4.869  16.810 -0.2690 -0.4084  0.0685
 2980TIP3   OH230354   5.529   3.225   2.317  0.1849 -0.1584 -0.0233
 2980TIP3    H130355   5.472   3.302   2.324 -0.5431 -0.9246  3.4879
 2980TIP3    H230356   5.470   3.154   2.293  0.1538 -0.3644  0.6452
 2981TIP3   OH230357   1.669   5.566  11.566 -0.2609 -0.6631 -0.3176
 2981TIP3    H130358   1.623   5.562  11.482  0.1200  0.8589 -0.6283
 2981TIP3    H230359   1.754   5.604  11.544 -0.5405  0.7260  0.8941
 2982TIP3   OH230360   2.471   3.901  14.114 -0.2124  0.0339 -0.0772
 2982TIP3    H130361   2.551   3.868  14.075  0.0042 -0.9400  1.1573
 2982TIP3    H230362   2.500   3.946  14.194 -0.7176  1.3551 -0.6156
 2983TIP3   OH230363   1.551   2.005  12.242  0.0299  0.4854  0.0418
 2983TIP3    H130364   1.459   1.989  12.264 -0.7188  0.9668 -2.6008
 2983TIP3    H230365   1.598   1.929  12.277 -1.2588  0.5656  2.0132
 2984TIP3   OH230366   6.711   6.645  15.386 -0.4567 -0.2813  0.1023
 2984TIP3    H130367   6.625   6.685  15.374 -0.7327 -0.8976  0.0478
 2984TIP3    H230368   6.693   6.559  15.423  0.2291  0.2782  1.7949
 2985TIP3   OH230369   4.808   6.004   2.496  0.0860  0.7746  0.3714
 2985TIP3    H130370   4.901   6.002   2.515  0.5220 -1.2117 -1.7347
 2985TIP3    H230371   4.766   5.974   2.577  1.4299 -0.8278  0.4891
 2986TIP3   OH230372   6.405   4.764   6.135 -0.4058  0.0031 -0.1876
 2986TIP3    H130373   6.415   4.712   6.215  1.3005  0.6455  0.0291
 2986TIP3    H230374   6.318   4.741   6.103 -1.3764  0.2405  2.2031
 2987TIP3   OH230375   3.123   2.728   1.508  0.0609  0.9548  0.2034
 2987TIP3    H130376   3.099   2.697   1.421  1.1681  0.1954  0.1495
 2987TIP3    H230377   3.072   2.674   1.568  0.7687  0.1107  0.0638
 2988TIP3   OH230378   6.081   6.626  16.594 -0.1772 -0.7615 -0.0813
 2988TIP3    H130379   6.077   6.716  16.629 -0.7506  0.2671 -2.7009
 2988TIP3    H230380   6.164   6.592  16.629  1.0998  1.5199 -0.7288
 2989TIP3   OH230381   0.750   3.314  16.746 -0.2783  0.4484 -0.2462
 2989TIP3    H130382   0.790   3.303  16.659 -0.8604  0.2306 -0.4859
 2989TIP3    H230383   0.729   3.407  16.751 -3.7320 -0.1694 -1.8731
 2990TIP3   OH230384   4.477   1.393  17.224 -0.6193 -0.2299 -0.1863
 2990TIP3    H130385   4.488   1.304  17.256 -3.1883 -0.8948 -1.0749
 2990TIP3    H230386   4.472   1.446  17.304 -3.3043 -1.4262  0.4975
 2991TIP3   OH230387   5.052   0.456   3.180 -0.3300  0.5082 -0.2871
 2991TIP3    H130388   5.055   0.459   3.275  0.0571  0.9999 -0.3138
 2991TIP3    H230389   4.973   0.506   3.157  0.0602  1.1347 -0.2617
 2992TIP3   OH230390   2.885   2.365  15.010  0.1374  0.5711 -0.2635
 2992TIP3    H130391   2.893   2.324  15.096  0.1084 -0.0043 -0.5271
 2992TIP3    H230392   2.865   2.292  14.951  2.0823  0.6546 -1.0716
 2993TIP3   OH230393   6.024   2.006   5.074  0.5357 -0.2948 -0.3455
 2993TIP3    H130394   6.030   2.074   5.007  1.3425 -0.7861 -0.7784
 2993TIP3    H230395   6.038   1.925   5.026  1.8176 -0.6020  0.5309
 2994TIP3   OH230396   6.107   3.525   2.289  0.3668 -0.2044 -0.0316
 2994TIP3    H130397   6.113   3.605   2.342 -0.7736  0.8724 -1.4531
 2994TIP3    H230398   6.153   3.459   2.339  0.6797  1.1753  1.5475
 2995TIP3   OH230399   3.519   6.177  15.601  0.6325 -0.4923  0.2079
 2995TIP3    H130400   3.557   6.240  15.662  0.6880 -0.8695  0.5607
 2995TIP3    H230401   3.568   6.189  15.520 -1.4948  2.2234 -0.7650
 2996TIP3   OH230402   6.490   4.259  14.691  0.4243  0.4280 -0.2971
 2996TIP3    H130403   6.585   4.268  14.703  0.4298  1.0359 -0.8236
 2996TIP3    H230404   6.478   4.166  14.672  0.8761  0.2749  0.1449
 2997TIP3   OH230405   0.229   4.371  17.078 -0.1324  0.0482 -0.1164
 2997TIP3    H130406   0.251   4.371  17.172 -0.2422 -0.2139 -0.0920
 2997TIP3    H230407   0.162   4.304  17.069  2.7038 -2.7848 -1.0504
 2998TIP3   OH230408   5.989   1.129   0.645  0.3467  0.7455  0.0751
 2998TIP3    H130409   5.974   1.138   0.739  1.0569  0.6524  0.2025
 2998TIP3    H230410   6.084   1.135   0.635  0.2849  0.6437 -0.6238
 2999TIP3   OH230411   2.773   0.747  11.611  0.0064  0.0655  0.8422
 2999TIP3    H130412   2.761   0.841  11.605  0.0292 -0.0196 -0.7074
 2999TIP3    H230413   2.691   0.714  11.648 -0.4102  0.5834  0.3825
 3000TIP3   OH230414   5.419   2.488  14.192  0.2425 -0.2436  0.1311
 3000TIP3    H130415   5.492   2.510  14.134 -0.6582  1.9815 -0.2260
 3000TIP3    H230416   5.380   2.410  14.154  1.1802 -0.2423 -0.8463
 3001TIP3   OH230417   4.044   5.816  15.726  0.1427 -0.0817  0.4596
 3001TIP3    H130418   4.055   5.897  15.775  0.0003  0.3177 -0.1608
 3001TIP3    H230419   4.017   5.752  15.791 -0.5819  0.5678  0.8008
 3002TIP3   OH230420   4.193   2.346   1.727 -0.2733  0.1707 -0.1180
 3002TIP3    H130421   4.195   2.344   1.823 -1.8474  1.9402 -0.0156
 3002TIP3    H230422   4.272   2.298   1.700  0.0597 -0.5556  2.0418
 3003TIP3   OH230423   1.466   2.681   0.112  0.0169 -0.2014  0.2197
 3003TIP3    H130424   1.372   2.668   0.106  0.2452 -1.1466 -1.8795
 3003TIP3    H230425   1.478   2.776   0.102 -0.6320 -0.2391 -0.9518
 3004TIP3   OH230426   6.144   3.679  13.736 -0.3074  0.6359  0.2626
 3004TIP3    H130427   6.091   3.711  13.663  0.3350 -0.3479 -0.6574
 3004TIP3    H230428   6.153   3.585  13.720 -1.5456  0.1032  2.5268
 3005TIP3   OH230429   1.767   2.540   0.255  0.0255 -0.0489  0.5667
 3005TIP3    H130430   1.775   2.446   0.269  0.0067  0.0147  1.0051
 3005TIP3    H230431   1.850   2.576   0.287  0.3658  0.0020 -0.3568
 3006TIP3   OH230432   6.694   2.112   0.494 -0.1947  0.2943  0.4839
 3006TIP3    H130433   6.708   2.024   0.461  0.0925  0.2576  0.6935
 3006TIP3    H230434   6.782   2.149   0.501 -0.2259  0.1998  1.4740
 3007TIP3   OH230435   5.032   1.090   2.947  0.4868  0.0491  0.1288
 3007TIP3    H130436   4.995   1.021   3.002  0.0893  0.0182 -0.1775
 3007TIP3    H230437   4.982   1.169   2.971  1.8440  0.5387  1.4623
 3008TIP3   OH230438   1.750   6.116   5.250  0.1474  0.1525  0.3306
 3008TIP3    H130439   1.791   6.173   5.316 -0.7017  1.2431 -0.0732
 3008TIP3    H230440   1.729   6.036   5.298  1.2861  0.1936  0.9229
 3009TIP3   OH230441   4.542   0.586   3.221  0.0258 -0.6738 -0.4897
 3009TIP3    H130442   4.523   0.639   3.298 -1.3246 -0.4171 -0.9878
 3009TIP3    H230443   4.506   0.500   3.242  1.6122 -1.2412  0.0415
 3010TIP3   OH230444   2.271   2.732  16.213  0.8587  0.6631 -0.0698
 3010TIP3    H130445   2.218   2.716  16.291  3.1988  0.1345  1.4546
 3010TIP3    H230446   2.244   2.818  16.182 -3.2527 -0.9113 -1.3131
 3011TIP3   OH230447   2.231   4.335   6.048 -0.1662 -0.2324 -0.3656
 3011TIP3    H130448   2.182   4.279   6.109  0.5562 -1.6667 -1.0619
 3011TIP3    H230449   2.179   4.415   6.042 -1.3824 -0.9310  0.4598
 3012TIP3   OH230450   1.437   5.508  14.235 -0.0660 -0.3640  0.1066
 3012TIP3    H130451   1.489   5.587  14.253 -0.4668  0.3568 -1.8279
 3012TIP3    H230452   1.369   5.509  14.303 -0.2349  1.1068 -0.0703
 3013TIP3   OH230453   1.766   5.479   0.717 -0.0773 -0.0139 -0.7837
 3013TIP3    H130454   1.804   5.525   0.792  2.5259  0.5690 -2.4415
 3013TIP3    H230455   1.754   5.389   0.749  3.0491 -0.3020 -0.3444
 3014TIP3   OH230456   0.346   3.229  12.257  0.3247 -0.2442 -0.4713
 3014TIP3    H130457   0.389   3.262  12.178 -1.2029  0.1987 -1.1239
 3014TIP3    H230458   0.263   3.194  12.226  0.1171 -0.9157  0.8152
 3015TIP3   OH230459   5.340   0.305  11.162 -0.4537 -0.4304  0.4431
 3015TIP3    H130460   5.256   0.349  11.153 -1.1850 -2.0660 -0.9782
 3015TIP3    H230461   5.324   0.235  11.226 -0.4498 -1.3615 -0.5599
 3016TIP3   OH230462   1.477   5.622  12.689  0.3203  0.1576  0.2484
 3016TIP3    H130463   1.444   5.707  12.719 -0.0295 -0.1880  0.8631
 3016TIP3    H230464   1.399   5.566  12.689  0.5060 -0.0990 -0.3819
 3017TIP3   OH230465   1.027   5.426   5.676 -0.2035 -0.5653 -0.4935
 3017TIP3    H130466   1.062   5.378   5.751 -0.5844  0.7748  0.5675
 3017TIP3    H230467   0.952   5.474   5.710  0.7433  1.5676 -1.2492
 3018TIP3   OH230468   4.560   4.210  15.348  0.4807 -0.1647 -0.1790
 3018TIP3    H130469   4.605   4.188  15.429 -0.0388  0.1907  0.2055
 3018TIP3    H230470   4.488   4.267  15.375  0.2898 -0.0679 -0.8826
 3019TIP3   OH230471   1.909   3.503   2.672 -0.4448  0.3751 -0.3800
 3019TIP3    H130472   1.989   3.469   2.631 -0.1210  2.2276 -1.3035
 3019TIP3    H230473   1.838   3.468   2.617 -0.2414 -0.5568 -0.0666
 3020TIP3   OH230474   3.744   4.151   4.204 -0.3311 -0.6442 -0.5771
 3020TIP3    H130475   3.799   4.218   4.163 -1.6767 -0.8785 -2.8210
 3020TIP3    H230476   3.687   4.201   4.263 -1.7904  0.3198 -2.7440
 3021TIP3   OH230477   6.412   0.757   1.586 -0.3434  0.2426  0.2131
 3021TIP3    H130478   6.395   0.808   1.665  0.4976 -2.1302  1.9847
 3021TIP3    H230479   6.503   0.729   1.594 -0.3324 -0.2871 -1.4601
 3022TIP3   OH230480   5.091   2.953  11.195  0.7947  0.2161 -0.0894
 3022TIP3    H130481   5.011   2.951  11.143  1.2898  0.3789 -0.8645
 3022TIP3    H230482   5.061   2.969  11.284 -0.1621 -1.3093 -0.1219
 3023TIP3   OH230483   6.082   5.599   3.109  0.7076 -1.3941 -0.7848
 3023TIP3    H130484   6.099   5.517   3.154 -0.9047 -1.4481 -0.2237
 3023TIP3    H230485   5.996   5.626   3.141  0.7221 -0.0722 -1.8204
 3024TIP3   OH230486   1.259   3.647  15.407  0.2651  0.4158 -0.4161
 3024TIP3    H130487   1.246   3.562  15.365 -0.7630 -0.1212  0.9425
 3024TIP3    H230488   1.352   3.666  15.394  0.5617 -1.0330 -0.5391
 3025TIP3   OH230489   3.438   2.796   6.088  0.7418 -0.6358  0.2890
 3025TIP3    H130490   3.499   2.760   6.023  0.6989 -0.2064  0.0136
 3025TIP3    H230491   3.454   2.743   6.167  1.5454 -0.4532  0.2521
 3026TIP3   OH230492   1.540   0.688  15.206  0.2977 -0.4267  0.3475
 3026TIP3    H130493   1.491   0.628  15.150  0.4469 -0.0431 -0.1988
 3026TIP3    H230494   1.628   0.691  15.166  0.3480 -0.0081  0.4919
 3027TIP3   OH230495   3.448   3.020  11.906  0.8465  0.1435 -0.2852
 3027TIP3    H130496   3.365   2.977  11.926  1.1423 -0.5589 -0.5533
 3027TIP3    H230497   3.514   2.951  11.916  1.3692  0.6367 -0.3084
 3028TIP3   OH230498   6.130   2.403   5.964 -0.0875 -0.5448 -0.3021
 3028TIP3    H130499   6.133   2.485   6.012  0.6596  1.2806 -3.3334
 3028TIP3    H230500   6.068   2.419   5.893 -0.7070 -2.9626 -0.3500
 3029TIP3   OH230501   5.318   2.206   1.365 -0.0109 -0.3230  0.0254
 3029TIP3    H130502   5.381   2.266   1.325 -1.3153  1.1991  0.2461
 3029TIP3    H230503   5.369   2.126   1.382  1.7663  0.7604 -0.1178
 3030TIP3   OH230504   5.523   0.249   0.812 -0.4563 -0.6049 -0.3818
 3030TIP3    H130505   5.526   0.327   0.868  0.7768 -1.8496  1.3606
 3030TIP3    H230506   5.540   0.281   0.724 -0.6516  1.1797  0.2145
 3031TIP3   OH230507   2.283   2.369  15.711 -0.0775 -0.3026  0.3997
 3031TIP3    H130508   2.350   2.346  15.776  2.3029  2.6175 -0.9145
 3031TIP3    H230509   2.213   2.409  15.762  1.0828  0.5624  1.3437
 3032TIP3   OH230510   6.381   3.465   3.667  0.1197 -0.3177  0.0115
 3032TIP3    H130511   6.414   3.466   3.577 -0.5835 -0.7238 -0.2511
 3032TIP3    H230512   6.331   3.384   3.673  2.0795 -1.4547  1.4497
 3033TIP3   OH230513   1.189   6.648   4.474  0.4330  0.0149 -0.0390
 3033TIP3    H130514   1.172   6.685   4.560  1.8457  1.0565 -0.1823
 3033TIP3    H230515   1.280   6.618   4.478  1.3283  2.2701 -1.8825
 3034TIP3   OH230516   3.206   1.315  17.089  0.2083 -0.0694  0.0858
 3034TIP3    H130517   3.198   1.321  16.993 -2.3091 -0.2664  0.2431
 3034TIP3    H230518   3.151   1.386  17.122 -2.6614 -2.8200  1.4198
 3035TIP3   OH230519   3.925   3.227   6.335 -0.5899 -0.4762 -0.2611
 3035TIP3    H130520   3.930   3.133   6.352 -0.5343 -0.1619  1.5574
 3035TIP3    H230521   3.980   3.240   6.258  0.8135 -1.6897  0.5018
 3036TIP3   OH230522   4.982   2.969  16.810 -0.2864  0.1590 -0.1113
 3036TIP3    H130523   4.957   2.916  16.733 -1.9590  0.3484  0.2805
 3036TIP3    H230524   4.974   3.059  16.780 -0.0207  0.2227  0.0116
 3037TIP3   OH230525   0.645   1.553  14.356  0.2179 -0.2761  0.1754
 3037TIP3    H130526   0.719   1.512  14.400  0.2854 -1.5350 -1.0729
 3037TIP3    H230527   0.573   1.548  14.419  0.6775 -0.8040  0.6589
 3038TIP3   OH230528   0.909   2.401   5.649  0.0256  0.3894 -0.4565
 3038TIP3    H130529   0.966   2.449   5.710 -0.9025  2.1143 -0.9270
 3038TIP3    H230530   0.969   2.370   5.580  1.0443 -1.3712  1.1590
 3039TIP3   OH230531   2.068   6.394  17.176  0.1455  0.1460 -0.0107
 3039TIP3    H130532   2.020   6.360  17.252 -0.3836 -0.3735 -0.5720
 3039TIP3    H230533   2.001   6.406  17.109  0.8159 -0.7289 -0.8503
 3040TIP3   OH230534   4.331   4.598  15.387  0.1076  0.0428  0.1110
 3040TIP3    H130535   4.350   4.549  15.467 -0.9664  1.4845  1.2661
 3040TIP3    H230536   4.410   4.648  15.370  0.7835 -1.1938 -0.4170
 3041TIP3   OH230537   3.854   0.684   0.983  0.1131  0.2789 -0.2623
 3041TIP3    H130538   3.862   0.678   0.888  1.6824  0.1752 -0.1354
 3041TIP3    H230539   3.781   0.625   1.005 -0.9726  1.1516 -1.4885
 3042TIP3   OH230540   1.290   1.849  16.577 -0.1880 -0.4594  0.3875
 3042TIP3    H130541   1.280   1.761  16.540 -0.6275  0.1644 -1.0323
 3042TIP3    H230542   1.201   1.875  16.599 -0.3201  0.4009 -1.0755
 3043TIP3   OH230543   6.506   1.499   6.778 -0.0872  0.3617  0.2776
 3043TIP3    H130544   6.481   1.417   6.737  1.9812 -0.6201  0.9330
 3043TIP3    H230545   6.553   1.547   6.709  0.6655  0.0338  0.5587
 3044TIP3   OH230546   1.076   4.812   2.246  0.3122 -0.1338 -0.1650
 3044TIP3    H130547   1.062   4.728   2.203  2.4342 -1.5499  1.7777
 3044TIP3    H230548   1.050   4.798   2.337 -0.4513  1.6725 -0.0748
 3045TIP3   OH230549   5.382   5.375   0.456  0.4593  0.6123  0.0297
 3045TIP3    H130550   5.357   5.302   0.399  1.0229  0.1188  0.4182
 3045TIP3    H230551   5.477   5.377   0.454  0.4962  0.2971  1.3334
 3046TIP3   OH230552   3.356   0.382  16.689  0.3005 -0.4969  0.0665
 3046TIP3    H130553   3.414   0.446  16.649 -1.3429 -0.0472 -1.6535
 3046TIP3    H230554   3.373   0.301  16.641  0.4997 -0.7102  0.4917
 3047TIP3   OH230555   3.413   2.549  11.133 -0.7297  0.0272  0.0234
 3047TIP3    H130556   3.406   2.548  11.037  0.7437  1.1806 -0.0997
 3047TIP3    H230557   3.399   2.640  11.158 -0.2609 -0.1275  0.8597
 3048TIP3   OH230558   0.774   1.131   3.517 -0.5411  0.0945  0.4936
 3048TIP3    H130559   0.801   1.134   3.425 -2.8886 -1.3995 -0.2669
 3048TIP3    H230560   0.790   1.041   3.544 -0.1012  0.4676  1.4982
 3049TIP3   OH230561   6.683   3.217   3.486  0.1282  0.4148  0.0974
 3049TIP3    H130562   6.588   3.214   3.476  0.0630  1.2759  0.3994
 3049TIP3    H230563   6.710   3.295   3.438  0.7309 -0.0514 -0.3312
 3050TIP3   OH230564   4.122   0.159  13.498 -0.3498  0.1541 -0.0521
 3050TIP3    H130565   4.074   0.111  13.566 -0.2432 -0.1057 -0.1609
 3050TIP3    H230566   4.112   0.251  13.523 -0.2052  0.0548  0.3850
 3051TIP3   OH230567   2.006   2.643  11.069 -0.7264 -0.0077 -0.7172
 3051TIP3    H130568   2.037   2.650  10.979 -2.2828  1.2835 -1.1800
 3051TIP3    H230569   1.997   2.733  11.099  1.0593 -0.4301  1.2063
 3052TIP3   OH230570   4.373   4.320  14.258  0.0922  1.1482 -0.3023
 3052TIP3    H130571   4.341   4.389  14.200 -0.0826  2.3939  1.2328
 3052TIP3    H230572   4.422   4.262  14.201 -2.2944  0.8870 -2.1682
 3053TIP3   OH230573   5.301   0.396   1.392 -0.3039 -0.2659  0.2597
 3053TIP3    H130574   5.278   0.412   1.484 -0.9459 -0.7222  0.1828
 3053TIP3    H230575   5.228   0.344   1.358  0.6365 -1.3852 -0.1010
 3054TIP3   OH230576   2.316   3.827  11.331  0.0407 -0.0086  0.5041
 3054TIP3    H130577   2.389   3.866  11.379 -0.2051 -0.5463  1.3311
 3054TIP3    H230578   2.290   3.752  11.384 -0.1862 -0.6600 -0.5247
 3055TIP3   OH230579   3.167   3.443  11.394 -0.2240  0.4941 -0.4126
 3055TIP3    H130580   3.177   3.523  11.446  1.1962  0.0669  0.0002
 3055TIP3    H230581   3.144   3.475  11.307 -0.4662  1.3140 -0.0597
 3056TIP3   OH230582   6.431   1.702  16.422 -0.1781  0.8981 -0.6796
 3056TIP3    H130583   6.401   1.631  16.479 -1.3063  2.5623  0.8462
 3056TIP3    H230584   6.511   1.733  16.464  0.5028  0.3113 -1.5380
 3057TIP3   OH230585   0.038   4.745   3.775  0.2345 -0.3064  0.0635
 3057TIP3    H130586  -0.026   4.769   3.842 -1.0770 -2.2493 -0.4284
 3057TIP3    H230587  -0.012   4.746   3.693  2.0023  2.8299 -1.0360
 3058TIP3   OH230588   3.398   0.567   2.915  0.2034 -0.3174 -0.3653
 3058TIP3    H130589   3.326   0.565   2.978  1.1485  1.4451  0.8271
 3058TIP3    H230590   3.401   0.658   2.886  0.3500 -0.9261 -2.3162
 3059TIP3   OH230591   3.474   4.596   1.252  0.1205 -0.4143 -0.0353
 3059TIP3    H130592   3.528   4.545   1.313 -4.7933 -4.0017  1.6460
 3059TIP3    H230593   3.452   4.675   1.300 -0.1314 -1.1962  1.1510
 3060TIP3   OH230594   5.236   6.533  17.068  0.1587  0.0386  0.2012
 3060TIP3    H130595   5.330   6.522  17.083  0.5641  2.1639 -0.6509
 3060TIP3    H230596   5.220   6.490  16.984  0.4019 -0.1695  0.2626
 3061TIP3   OH230597   1.739   6.320   3.615 -0.3441 -0.4715  0.5001
 3061TIP3    H130598   1.788   6.306   3.534  1.6469 -0.3660  1.6783
 3061TIP3    H230599   1.655   6.357   3.586 -0.3670 -2.1187 -1.6344
 3062TIP3   OH230600   0.181   1.794  11.625  0.4682  0.1864  0.1482
 3062TIP3    H130601   0.230   1.853  11.567 -0.4566  0.2816 -0.5384
 3062TIP3    H230602   0.199   1.828  11.713  1.5681  0.2706 -0.1004
 3063TIP3   OH230603   1.833   0.171  13.112 -0.0255  0.4742 -0.4751
 3063TIP3    H130604   1.780   0.218  13.048  0.1066 -0.6985 -1.4588
 3063TIP3    H230605   1.771   0.112  13.156 -0.1602  1.4271  0.6380
 3064TIP3   OH230606   4.459   6.230   0.475 -0.4617  0.3241 -0.3749
 3064TIP3    H130607   4.540   6.202   0.518 -0.3630  1.5136  0.2301
 3064TIP3    H230608   4.392   6.172   0.509 -0.3838  1.2398  1.3982
 3065TIP3   OH230609   2.383   1.565  15.355 -0.0703 -0.0035  0.6423
 3065TIP3    H130610   2.365   1.659  15.362  0.4935  0.0187  2.0763
 3065TIP3    H230611   2.310   1.530  15.303 -0.1841  1.2539 -0.0540
 3066TIP3   OH230612   0.137   3.788  13.323 -0.0413 -0.1169 -0.0854
 3066TIP3    H130613   0.063   3.738  13.289 -0.6024  0.3046  0.5094
 3066TIP3    H230614   0.214   3.734  13.303 -0.8126 -2.2723  2.4993
 3067TIP3   OH230615   6.609   5.050   3.214 -0.3284 -0.6165 -0.7455
 3067TIP3    H130616   6.545   5.033   3.283  0.7751  1.4407  0.8542
 3067TIP3    H230617   6.577   5.128   3.170  0.2403 -0.5155 -0.9810
 3068TIP3   OH230618   1.067   5.005  11.150 -0.4225  0.0259 -0.1895
 3068TIP3    H130619   0.995   5.068  11.151  0.5085  1.1171  0.9516
 3068TIP3    H230620   1.025   4.921  11.168 -1.7156  0.2627 -1.9386
 3069TIP3   OH230621   1.237   1.596  16.506 -0.0611  0.0115 -0.0426
 3069TIP3    H130622   1.200   1.594  16.594 -0.5906  0.4417 -0.2543
 3069TIP3    H230623   1.255   1.505  16.485 -2.0406 -0.3050 -0.3894
 3070TIP3   OH230624   4.459   1.721  11.563 -0.3825 -0.0623 -0.0308
 3070TIP3    H130625   4.410   1.647  11.597  0.8828 -0.5523  0.7659
 3070TIP3    H230626   4.512   1.685  11.492 -1.7769  0.6263 -1.4315
 3071TIP3   OH230627   2.568   2.805  13.206  0.0358 -0.2106 -0.4654
 3071TIP3    H130628   2.509   2.869  13.247  0.7111 -1.2279  2.1834
 3071TIP3    H230629   2.510   2.749  13.154 -1.4969 -1.7367  2.8047
 3072TIP3   OH230630   6.608   6.658  13.215  0.0006 -0.1012  0.3482
 3072TIP3    H130631   6.655   6.731  13.254 -0.5319  0.8192 -0.7077
 3072TIP3    H230632   6.666   6.626  13.146 -1.1899  1.4916 -1.4316
 3073TIP3   OH230633   0.071   3.692  13.787  0.4438 -0.7029  0.2025
 3073TIP3    H130634   0.125   3.638  13.730 -1.8364 -2.1328 -0.6504
 3073TIP3    H230635   0.071   3.646  13.871  1.2092 -0.2534  0.4580
 3074TIP3   OH230636   4.500   0.135   4.209  0.1444 -0.1932 -0.4276
 3074TIP3    H130637   4.560   0.101   4.143  0.8846 -1.3315  0.7824
 3074TIP3    H230638   4.413   0.108   4.179  0.4380 -0.3241 -1.1587
 3075TIP3   OH230639   5.803   3.266   3.965  0.0300  0.2504  0.0529
 3075TIP3    H130640   5.852   3.281   4.046 -0.4370 -0.5844  0.5042
 3075TIP3    H230641   5.857   3.204   3.915  1.1355  2.0512 -1.0477
 3076TIP3   OH230642   5.454   0.964   3.755 -0.2038 -0.2622 -0.3332
 3076TIP3    H130643   5.489   1.012   3.831  2.9899  1.3894 -2.7455
 3076TIP3    H230644   5.510   0.887   3.748 -0.2168 -0.1861 -1.2663
 3077TIP3   OH230645   0.259   2.247  17.176 -0.3806 -0.2227 -0.0883
 3077TIP3    H130646   0.253   2.167  17.228 -1.1435 -0.0637  0.0714
 3077TIP3    H230647   0.206   2.230  17.099 -0.8512  0.2682  0.1263
 3078TIP3   OH230648   2.254   6.276  14.606 -0.1476  0.0075 -0.6059
 3078TIP3    H130649   2.194   6.240  14.671 -1.6246  3.9656  0.3818
 3078TIP3    H230650   2.336   6.291  14.653  0.2097 -1.2384 -0.8186
 3079TIP3   OH230651   0.954   1.970   3.002 -0.1472 -0.0849  0.2304
 3079TIP3    H130652   1.030   1.996   3.055  0.2572 -1.1061  0.1443
 3079TIP3    H230653   0.948   1.875   3.013 -1.5635  0.0136  0.4376
 3080TIP3   OH230654   0.994   5.428  16.538  0.0667 -0.6462 -0.9425
 3080TIP3    H130655   0.931   5.375  16.489  1.7717 -1.8565 -1.8669
 3080TIP3    H230656   0.999   5.386  16.624 -0.6932 -0.2951 -0.7206
 3081TIP3   OH230657   0.400   0.615   2.982  0.4352  0.6469 -0.2457
 3081TIP3    H130658   0.377   0.641   2.892  2.4674 -0.6699 -1.1751
 3081TIP3    H230659   0.364   0.685   3.037 -2.0944  0.7671 -1.9381
 3082TIP3   OH230660   0.875   1.268   1.023  0.1910  0.1744  0.1741
 3082TIP3    H130661   0.882   1.355   1.063 -0.3983 -0.1806  1.0579
 3082TIP3    H230662   0.950   1.220   1.058 -0.3173 -0.1324  0.8545
 3083TIP3   OH230663   0.175   0.956  13.010  0.5764 -0.5019  0.1373
 3083TIP3    H130664   0.187   0.890  12.942  1.6851  0.3479 -0.5187
 3083TIP3    H230665   0.124   1.025  12.967 -0.2981 -0.7772  0.7225
 3084TIP3   OH230666   3.296   1.061   3.068 -0.2110  0.3596  0.7342
 3084TIP3    H130667   3.254   1.140   3.032 -0.4587 -0.2759 -0.3864
 3084TIP3    H230668   3.370   1.095   3.118  0.0976  1.2704 -0.3113
 3085TIP3   OH230669   0.510   5.499  10.559 -0.9687  0.4388  0.5333
 3085TIP3    H130670   0.586   5.473  10.611  0.0994  2.0820 -0.1455
 3085TIP3    H230671   0.547   5.527  10.475 -2.3622  0.8343  0.0444
 3086TIP3   OH230672   4.027   0.345  13.723 -0.1309  0.4577  0.1132
 3086TIP3    H130673   4.074   0.337  13.806 -1.7587 -0.4441  0.9800
 3086TIP3    H230674   3.961   0.276  13.726 -0.3986  0.5979 -1.8170
 3087TIP3   OH230675   3.694   4.015  16.287  0.1591 -0.1122  0.7302
 3087TIP3    H130676   3.788   4.014  16.272  0.6420  1.0809  3.3066
 3087TIP3    H230677   3.666   4.101  16.256  0.3041  0.3644  1.8841
 3088TIP3   OH230678   2.298   5.215   4.170 -0.0485 -0.2462  0.7367
 3088TIP3    H130679   2.221   5.194   4.223  0.6069  0.4890  2.0139
 3088TIP3    H230680   2.263   5.240   4.085 -1.3131  1.1096  1.6302
 3089TIP3   OH230681   1.205   3.515  17.039  0.1674 -0.1736 -0.1148
 3089TIP3    H130682   1.261   3.527  16.962 -0.0621  1.4272 -0.0420
 3089TIP3    H230683   1.136   3.455  17.009 -1.6376  2.7616 -2.0939
 3090TIP3   OH230684   0.853   5.494  12.805  0.7464 -0.6777 -0.0448
 3090TIP3    H130685   0.779   5.485  12.865  0.7269  1.0970  0.2312
 3090TIP3    H230686   0.814   5.527  12.724  1.1843 -0.0523 -0.0043
 3091TIP3   OH230687   4.045   3.866  13.395  0.1721  0.0906 -0.2718
 3091TIP3    H130688   4.088   3.805  13.455 -0.9938  1.3380  1.8793
 3091TIP3    H230689   3.965   3.820  13.369 -0.5009  0.5019  1.0213
 3092TIP3   OH230690   1.486   2.516   4.904 -0.4689 -0.1510  0.3488
 3092TIP3    H130691   1.474   2.544   4.814 -2.4449 -1.3454  0.2044
 3092TIP3    H230692   1.557   2.570   4.937 -1.5411  2.2193 -1.0960
 3093TIP3   OH230693   2.938   5.212  12.631 -0.2137 -0.1732 -0.2925
 3093TIP3    H130694   2.934   5.307  12.630 -0.0530 -0.1675 -0.3770
 3093TIP3    H230695   2.866   5.184  12.574  0.2567 -0.0873 -0.9364
 3094TIP3   OH230696   4.843   1.677   2.669  0.0400  0.4350 -0.2029
 3094TIP3    H130697   4.755   1.700   2.639  0.7599  1.4986 -1.5795
 3094TIP3    H230698   4.862   1.594   2.624  0.6438  1.4179 -1.8333
 3095TIP3   OH230699   0.419   6.117   3.591  0.3020 -0.4507 -0.8556
 3095TIP3    H130700   0.365   6.167   3.530  0.8024  0.7875 -0.2932
 3095TIP3    H230701   0.438   6.036   3.544 -1.7313 -0.7580 -1.2074
 3096TIP3   OH230702   3.392   0.226  13.188  0.3892 -0.6915  0.3138
 3096TIP3    H130703   3.305   0.234  13.149  0.0426  0.4151  1.2752
 3096TIP3    H230704   3.378   0.240  13.282  1.1660 -3.5575  0.9207
 3097TIP3   OH230705   5.497   2.125   3.435  0.0273  0.4403  0.6573
 3097TIP3    H130706   5.454   2.210   3.426  1.4553  1.0648 -0.4975
 3097TIP3    H230707   5.529   2.105   3.347 -0.4123 -1.3830  0.8752
 3098TIP3   OH230708   6.059   0.773  16.607 -0.4654  0.4724 -1.1212
 3098TIP3    H130709   6.147   0.786  16.644 -1.0000  0.3569  0.2287
 3098TIP3    H230710   6.047   0.678  16.606 -0.7189  0.5017 -0.9510
 3099TIP3   OH230711   2.078   3.875   2.013  0.2803  0.1379 -0.2326
 3099TIP3    H130712   2.159   3.844   2.054  0.0556 -0.0938  0.0396
 3099TIP3    H230713   2.017   3.888   2.086  0.1500  0.5520 -0.4127
 3100TIP3   OH230714   5.560   1.599   2.835  1.1132  0.0082  0.0008
 3100TIP3    H130715   5.485   1.571   2.887  0.3604  1.1883 -0.4324
 3100TIP3    H230716   5.531   1.591   2.744  0.4597  3.1725 -0.1388
 3101TIP3   OH230717   0.199   1.212   1.085  0.1553 -0.1051  0.4491
 3101TIP3    H130718   0.237   1.296   1.109 -0.9936  1.0106 -1.4309
 3101TIP3    H230719   0.245   1.147   1.138  2.7987  1.4510  0.1024
 3102TIP3   OH230720   4.375   2.596  16.485  0.0887  0.3249  0.6375
 3102TIP3    H130721   4.471   2.590  16.476  0.2719  1.9151  1.3773
 3102TIP3    H230722   4.355   2.688  16.466 -1.0617  0.4782  2.5160
 3103TIP3   OH230723   2.015   6.552  12.689 -0.1590  0.0798 -0.5148
 3103TIP3    H130724   2.069   6.593  12.621 -1.6642 -0.1646 -1.9075
 3103TIP3    H230725   2.051   6.584  12.771  2.8948 -1.0487 -1.3369
 3104TIP3   OH230726   0.735   5.912  15.506 -0.3925  0.1183 -0.2251
 3104TIP3    H130727   0.735   5.820  15.478 -3.4504  0.1369 -0.3881
 3104TIP3    H230728   0.705   5.910  15.597 -0.7320  0.9854 -0.3130
 3105TIP3   OH230729   5.375   1.864  15.857 -0.3542 -0.0158  0.4787
 3105TIP3    H130730   5.386   1.957  15.837 -1.9780  0.4346  1.5326
 3105TIP3    H230731   5.426   1.850  15.936  1.2081 -0.4196 -0.5725
 3106TIP3   OH230732   3.778   6.278   1.762  0.4256  0.7229  0.2731
 3106TIP3    H130733   3.739   6.363   1.747 -0.4849  0.2515 -0.0557
 3106TIP3    H230734   3.865   6.284   1.721  0.1469  1.3058 -0.2353
 3107TIP3   OH230735   0.734   3.412  16.044  0.3593  0.0771 -0.0830
 3107TIP3    H130736   0.670   3.469  16.088  0.0375 -0.8119  0.6132
 3107TIP3    H230737   0.808   3.470  16.027 -0.4382  1.0103 -0.4743
 3108TIP3   OH230738   5.319   3.547   4.321 -0.4370  0.3261  0.0645
 3108TIP3    H130739   5.375   3.470   4.334  0.1810  0.5972 -0.8841
 3108TIP3    H230740   5.245   3.514   4.270 -1.3076 -0.0972  1.5854
 3109TIP3   OH230741   4.813   2.795   1.387 -0.3934  0.3479 -0.0210
 3109TIP3    H130742   4.834   2.702   1.396  2.0957  0.8983  0.3282
 3109TIP3    H230743   4.741   2.810   1.448  0.3473 -1.0166  1.2187
 3110TIP3   OH230744   6.750   1.181   5.884  0.3214  0.1129 -0.0181
 3110TIP3    H130745   6.796   1.241   5.826  0.2215  0.0128 -0.2001
 3110TIP3    H230746   6.774   1.094   5.853  2.4226  0.0110  1.7313
 3111TIP3   OH230747   1.639   3.856  14.461  0.3857 -0.7305 -0.0774
 3111TIP3    H130748   1.671   3.791  14.398  1.7267  0.0933 -0.2664
 3111TIP3    H230749   1.697   3.932  14.448 -0.8324  0.3045  0.5005
 3112TIP3   OH230750   1.947   2.429   2.935  0.1632 -0.2243  0.7568
 3112TIP3    H130751   1.921   2.482   3.010  0.3765  2.5954 -1.0720
 3112TIP3    H230752   2.042   2.426   2.940  0.2545  0.9095  0.0437
 3113TIP3   OH230753   1.682   1.622  14.303 -0.2967  0.0655 -0.3278
 3113TIP3    H130754   1.703   1.690  14.368  0.8208 -0.5192 -0.0617
 3113TIP3    H230755   1.761   1.569  14.298 -1.3415 -1.5617 -0.1139
 3114TIP3   OH230756   6.152   2.549   1.178 -0.1725  0.0421 -0.2284
 3114TIP3    H130757   6.076   2.549   1.119 -1.0202  0.5477  0.8574
 3114TIP3    H230758   6.126   2.603   1.252 -0.5157 -3.4658  2.3750
 3115TIP3   OH230759   2.399   5.192  12.661 -0.1693  0.4379  0.2303
 3115TIP3    H130760   2.349   5.169  12.740 -0.2370  0.7014  0.2633
 3115TIP3    H230761   2.334   5.223  12.599  0.1713  2.6883  0.9618
 3116TIP3   OH230762   0.991   4.591  10.794 -0.0899  1.1493 -0.0741
 3116TIP3    H130763   0.941   4.639  10.860  0.4094 -0.1437  1.2933
 3116TIP3    H230764   0.926   4.562  10.730 -0.6485  2.0536  0.0833
 3117TIP3   OH230765   3.928   5.405   1.132  0.3325  0.5507 -0.1763
 3117TIP3    H130766   3.921   5.324   1.082 -0.5008 -0.2318  1.1759
 3117TIP3    H230767   3.869   5.466   1.089  1.6941  0.7602 -1.7856
 3118TIP3   OH230768   6.100   4.005  16.763  0.3645 -0.4507  0.3725
 3118TIP3    H130769   6.032   3.943  16.737  0.4549 -0.3106 -0.2040
 3118TIP3    H230770   6.177   3.951  16.782  1.0988 -0.3982 -2.1916
 3119TIP3   OH230771   2.091   1.692  13.806  0.0866  0.3522 -0.4395
 3119TIP3    H130772   2.086   1.611  13.755 -2.8820 -0.1752  0.6051
 3119TIP3    H230773   2.126   1.664  13.891  2.5561  0.8086 -1.2678
 3120TIP3   OH230774   3.335   2.498  16.643  0.8814 -0.1298  0.4979
 3120TIP3    H130775   3.397   2.427  16.623  2.6062  1.0762  1.3618
 3120TIP3    H230776   3.336   2.554  16.565 -1.0604 -1.4454 -0.4864
 3121TIP3   OH230777   2.390   0.764   3.608 -0.6086  0.3934  0.5357
 3121TIP3    H130778   2.308   0.770   3.657 -1.9894 -2.2701 -1.2987
 3121TIP3    H230779   2.456   0.803   3.665 -3.0433  2.1121  2.2730
 3122TIP3   OH230780   3.211   3.790  13.556  0.7085 -0.4633 -0.1817
 3122TIP3    H130781   3.120   3.783  13.585  0.4807  0.8852 -0.5164
 3122TIP3    H230782   3.238   3.877  13.586  2.1826 -1.2221  0.7351
 3123TIP3   OH230783   1.348   2.565   1.203  0.2537 -0.3192 -0.3248
 3123TIP3    H130784   1.319   2.476   1.224  1.3671 -0.5243  0.3945
 3123TIP3    H230785   1.350   2.610   1.288  1.4620 -0.1471 -0.4367
 3124TIP3   OH230786   1.185   5.801   5.175 -0.4820 -0.3587 -0.1825
 3124TIP3    H130787   1.203   5.893   5.192  1.8717 -1.2366  2.6187
 3124TIP3    H230788   1.110   5.780   5.230 -0.9506 -0.1311 -0.7385
 3125TIP3   OH230789   2.545   2.503  16.581  0.5892  0.0326 -0.5202
 3125TIP3    H130790   2.595   2.423  16.563  0.3409  0.0081 -1.1210
 3125TIP3    H230791   2.473   2.474  16.637  0.4138 -0.1982 -0.8583
 3126TIP3   OH230792   0.026   4.185   2.160  0.2056  0.1839  0.0410
 3126TIP3    H130793   0.081   4.177   2.082 -0.1264  0.9149 -0.2774
 3126TIP3    H230794   0.047   4.108   2.213  0.0368 -0.6060 -1.0180
 3127TIP3   OH230795   6.154   5.481  16.105 -0.3839 -0.8060  0.1786
 3127TIP3    H130796   6.241   5.518  16.121 -0.2982 -0.4214 -1.0697
 3127TIP3    H230797   6.116   5.539  16.039 -2.2256 -0.0349  1.8859
 3128TIP3   OH230798   1.790   1.001   6.835 -0.1754 -0.3933  0.6854
 3128TIP3    H130799   1.771   1.077   6.780  1.2458 -0.2889  0.2964
 3128TIP3    H230800   1.746   0.928   6.792  0.1494 -0.1422 -0.0848
 3129TIP3   OH230801   4.265   6.487   2.887 -0.2243  0.1617 -0.3487
 3129TIP3    H130802   4.279   6.558   2.825  2.4260  1.1770  1.3067
 3129TIP3    H230803   4.269   6.529   2.973  0.2783 -1.8228  0.6261
 3130TIP3   OH230804   2.739   5.510  17.070 -0.4039  0.1480  0.2084
 3130TIP3    H130805   2.674   5.458  17.117 -0.3603  1.5867  1.9324
 3130TIP3    H230806   2.687   5.570  17.017 -0.4602 -2.0695 -2.3595
 3131TIP3   OH230807   2.143   6.176  15.311  0.1965 -0.1161 -0.3776
 3131TIP3    H130808   2.073   6.187  15.376 -0.8249 -0.5018 -1.3926
 3131TIP3    H230809   2.224   6.181  15.362 -0.5891 -0.4623  0.9359
 3132TIP3   OH230810   6.215   1.800   2.682 -0.6057 -0.1677  0.2878
 3132TIP3    H130811   6.220   1.705   2.689 -0.0358 -0.2607 -1.1871
 3132TIP3    H230812   6.267   1.821   2.604  0.1795  1.4381  1.2064
 3133TIP3   OH230813   0.364   5.609   0.988 -0.1482 -0.0002  0.0849
 3133TIP3    H130814   0.327   5.526   1.018 -2.5932 -0.2278 -3.2397
 3133TIP3    H230815   0.288   5.666   0.975  1.3787  2.2816  0.8875
 3134TIP3   OH230816   5.930   2.935  15.404 -0.2134 -0.2751  0.1281
 3134TIP3    H130817   6.012   2.929  15.355 -0.3829 -0.4679 -0.1315
 3134TIP3    H230818   5.905   3.027  15.397 -0.0793 -0.2409  0.1040
 3135TIP3   OH230819   3.548   4.185   2.219 -0.3261 -0.1135 -0.0793
 3135TIP3    H130820   3.466   4.140   2.239 -1.1997 -0.1834 -3.4666
 3135TIP3    H230821   3.609   4.115   2.196  0.2811  0.0299  1.0665
 3136TIP3   OH230822   5.729   4.219   1.600 -0.0194  0.1181  0.2850
 3136TIP3    H130823   5.802   4.189   1.545 -1.3105 -1.5217 -0.5616
 3136TIP3    H230824   5.707   4.143   1.654 -0.3272  0.9839  1.4061
 3137TIP3   OH230825   3.461   4.901   3.974  0.3881  0.6162 -0.5561
 3137TIP3    H130826   3.533   4.895   3.912  0.0359  1.2583 -1.0302
 3137TIP3    H230827   3.431   4.811   3.985  0.8430  0.4298 -0.8582
 3138TIP3   OH230828   5.630   2.923  14.919 -0.2120 -0.0199 -0.2664
 3138TIP3    H130829   5.616   2.845  14.865  2.3555 -0.3869 -0.4315
 3138TIP3    H230830   5.655   2.992  14.857 -2.5356  1.0071 -0.1348
 3139TIP3   OH230831   6.389   3.803   2.128 -0.1168  0.2117  0.1016
 3139TIP3    H130832   6.409   3.721   2.173  1.9237 -0.0354 -1.2042
 3139TIP3    H230833   6.459   3.862   2.155 -0.9704  1.2110  0.1711
 3140TIP3   OH230834   4.873   5.905   3.904 -0.0825  0.1232 -0.1072
 3140TIP3    H130835   4.874   5.810   3.905  1.0069  0.1349  0.6276
 3140TIP3    H230836   4.877   5.928   3.811  1.0039 -0.5447 -0.2272
 3141TIP3   OH230837   5.895   1.041  14.162 -0.1819 -0.5714 -0.4739
 3141TIP3    H130838   5.874   1.076  14.075 -0.1882 -3.3832 -1.6413
 3141TIP3    H230839   5.824   0.980  14.182 -1.5081  1.8364  2.6489
 3142TIP3   OH230840   0.750   4.506   5.132 -0.1542 -0.2672 -0.9104
 3142TIP3    H130841   0.691   4.527   5.061  0.6891 -0.6750 -1.7455
 3142TIP3    H230842   0.782   4.418   5.112  0.5455 -0.1505 -0.3524
 3143TIP3   OH230843   3.000   3.122  15.827  0.1283 -0.5779 -0.3151
 3143TIP3    H130844   2.964   3.037  15.852  0.1730 -0.3090  0.6872
 3143TIP3    H230845   2.924   3.180  15.824  0.3705 -0.1525  1.1981
 3144TIP3   OH230846   6.075   5.511   0.047  0.1654  0.7056  0.0231
 3144TIP3    H130847   6.019   5.539  -0.026 -0.3753  2.0279  0.9165
 3144TIP3    H230848   6.030   5.543   0.125  0.1226 -1.7322  1.0367
 3145TIP3   OH230849   1.634   1.024  14.275  0.0627 -0.3908 -0.7268
 3145TIP3    H130850   1.616   1.101  14.220  0.7596  1.3554  1.3969
 3145TIP3    H230851   1.708   0.981  14.231  0.1771  0.5813 -1.5225
 3146TIP3   OH230852   3.472   5.164  11.336 -0.3161  1.1388 -0.2911
 3146TIP3    H130853   3.463   5.199  11.424 -0.0223  1.8348 -0.5314
 3146TIP3    H230854   3.387   5.179  11.295 -1.9392 -3.1057  1.2247
 3147TIP3   OH230855   3.037   6.767   4.268 -0.1294 -0.5649  0.4276
 3147TIP3    H130856   2.988   6.833   4.317 -0.1029 -0.9308  0.9573
 3147TIP3    H230857   3.118   6.755   4.318 -0.7254 -1.9791  1.1013
 3148TIP3   OH230858   4.829   2.634   4.912  0.6143 -0.0232  0.3641
 3148TIP3    H130859   4.885   2.677   4.847  2.9017 -0.1222  2.2006
 3148TIP3    H230860   4.830   2.541   4.888  0.5190  0.0983 -0.1092
 3149TIP3   OH230861   1.454   4.377  13.120 -0.6006 -0.5504 -0.2921
 3149TIP3    H130862   1.520   4.356  13.053 -0.8042 -1.2810 -0.2712
 3149TIP3    H230863   1.370   4.360  13.077 -0.7561 -0.1575 -0.1401
 3150TIP3   OH230864   5.953   6.495   6.066  0.0198  0.2225  0.4193
 3150TIP3    H130865   6.014   6.431   6.104  1.7953  1.1819 -0.7386
 3150TIP3    H230866   6.009   6.568   6.039 -1.5136  0.6657 -1.6723
 3151TIP3   OH230867   2.636   6.686   2.751 -0.4496  0.1365 -0.6417
 3151TIP3    H130868   2.709   6.742   2.726 -1.3472  0.4479 -2.5882
 3151TIP3    H230869   2.678   6.604   2.778  0.7374  1.0680  0.4489
 3152TIP3   OH230870   3.480   6.114   6.214 -0.8046  0.0832  0.1226
 3152TIP3    H130871   3.567   6.152   6.220 -0.6613  0.1405 -2.0500
 3152TIP3    H230872   3.430   6.176   6.162 -1.6131 -0.8827 -0.2716
 3153TIP3   OH230873   2.322   4.145   4.167 -0.0840 -0.1034  0.0727
 3153TIP3    H130874   2.333   4.141   4.072 -1.5527  0.6689 -0.1400
 3153TIP3    H230875   2.351   4.233   4.191 -0.1532 -0.1374  0.2776
 3154TIP3   OH230876   0.703   0.769   5.475  0.3202  0.5213  0.3364
 3154TIP3    H130877   0.755   0.743   5.551 -0.1350  0.3551  0.5947
 3154TIP3    H230878   0.689   0.863   5.487  0.1360  0.4694  0.5267
 3155TIP3   OH230879   4.014   2.205   2.054  0.3519  0.2993  0.7894
 3155TIP3    H130880   4.069   2.158   2.115  1.0103 -0.1226 -0.1128
 3155TIP3    H230881   4.027   2.298   2.075  1.4979  0.2069  0.5035
 3156TIP3   OH230882   1.018   3.858   2.585  0.4134  0.1516  0.0007
 3156TIP3    H130883   1.025   3.953   2.580  0.4651  0.1691  0.4133
 3156TIP3    H230884   1.108   3.827   2.587  0.4004  0.0604 -0.7303
 3157TIP3   OH230885   5.021   6.584  14.496 -0.0742  0.3172 -0.3330
 3157TIP3    H130886   4.970   6.592  14.415 -0.3395 -0.0054 -0.1973
 3157TIP3    H230887   5.094   6.645  14.484 -0.3072  0.5315 -0.6693
 3158TIP3   OH230888   0.721   4.033   4.271 -0.3337  0.2611 -0.0761
 3158TIP3    H130889   0.654   4.072   4.215 -1.3488 -0.6530  0.4834
 3158TIP3    H230890   0.745   3.951   4.227 -0.0293  0.2835  0.0439
 3159TIP3   OH230891   4.710   3.942   5.836  0.0933  0.5825 -0.0129
 3159TIP3    H130892   4.706   3.977   5.925  1.4249 -1.5274  0.9236
 3159TIP3    H230893   4.619   3.928   5.812 -0.2483  0.0769  1.4953
 3160TIP3   OH230894   1.464   3.732   1.523  0.3844  0.4406 -0.5251
 3160TIP3    H130895   1.519   3.657   1.547  0.4780  0.6802  0.0311
 3160TIP3    H230896   1.409   3.700   1.452  0.7140 -0.0324 -0.5708
 3161TIP3   OH230897   6.001   5.555   5.288 -0.7966 -0.3131 -0.5352
 3161TIP3    H130898   5.998   5.460   5.279  2.0139 -0.3974 -1.1765
 3161TIP3    H230899   6.088   5.573   5.324 -1.5694  1.9716  0.3335
 3162TIP3   OH230900   2.205   3.522  11.925  0.0422  0.4790  0.8654
 3162TIP3    H130901   2.187   3.469  11.847  0.5913  1.9822 -0.3287
 3162TIP3    H230902   2.213   3.459  11.996  0.3969 -1.0060 -0.4573
 3163TIP3   OH230903   4.381   6.584   2.108 -0.1016  0.4758 -0.4454
 3163TIP3    H130904   4.409   6.625   2.026 -1.4810  0.0333 -1.1479
 3163TIP3    H230905   4.288   6.605   2.115  0.1478  1.0627  1.3464
 3164TIP3   OH230906   5.376   2.520  13.188 -0.3384  0.1106  0.5706
 3164TIP3    H130907   5.331   2.452  13.138  1.5258  0.1536 -1.2267
 3164TIP3    H230908   5.349   2.602  13.147  0.7609  0.1783 -0.0380
 3165TIP3   OH230909   1.677   5.730  15.881  0.3720  0.4412  0.0269
 3165TIP3    H130910   1.736   5.750  15.808  0.2865 -0.2204 -0.2242
 3165TIP3    H230911   1.702   5.642  15.908 -0.5693  0.1150 -0.1506
 3166TIP3   OH230912   1.761   3.950   1.398  0.7072  0.2236 -0.5300
 3166TIP3    H130913   1.726   3.951   1.487  0.5278  1.0237 -0.6027
 3166TIP3    H230914   1.785   3.859   1.382  2.8168  0.4479  1.1523
 3167TIP3   OH230915   0.128   2.018   3.173  0.3373  0.1626 -0.4089
 3167TIP3    H130916   0.052   1.986   3.223  1.7374 -0.9554  1.0648
 3167TIP3    H230917   0.112   2.111   3.162  0.0807  0.4885  2.3727
 3168TIP3   OH230918   3.410   0.930   0.080 -0.5791  0.1113 -0.2689
 3168TIP3    H130919   3.407   0.864   0.010  0.7495  0.8448 -1.0384
 3168TIP3    H230920   3.335   0.986   0.062  0.3589  0.9121 -1.7429
 3169TIP3   OH230921   4.036   1.759  13.325  0.1458  0.6495 -0.7158
 3169TIP3    H130922   4.075   1.740  13.240 -0.7461  0.7850 -1.1573
 3169TIP3    H230923   3.945   1.732  13.317  0.0729  0.5772  0.2279
 3170TIP3   OH230924   1.896   5.839  16.318  0.1893  0.2554  0.1174
 3170TIP3    H130925   1.970   5.882  16.360  1.8398 -0.1593 -2.2735
 3170TIP3    H230926   1.846   5.910  16.279  0.6555  0.3425 -0.3247
 3171TIP3   OH230927   5.094   4.727  17.080 -0.0085 -0.2182 -0.2153
 3171TIP3    H130928   5.007   4.726  17.039 -0.0688 -1.8019 -0.0920
 3171TIP3    H230929   5.086   4.666  17.154  1.5643 -1.3693 -0.9719
 3172TIP3   OH230930   6.745   4.532  15.250 -0.2729 -0.4576  0.3215
 3172TIP3    H130931   6.809   4.580  15.302  0.1009 -1.2636  0.6022
 3172TIP3    H230932   6.778   4.538  15.160  0.0817 -0.6972  0.4391
 3173TIP3   OH230933   5.701   5.575   3.397  0.4894 -0.1468 -0.3345
 3173TIP3    H130934   5.708   5.490   3.440  0.3340 -0.4461 -0.8864
 3173TIP3    H230935   5.626   5.618   3.439  1.1436  0.0979  0.5836
 3174TIP3   OH230936   4.802   2.842  12.657  0.1657 -0.5318 -0.4574
 3174TIP3    H130937   4.886   2.868  12.620  0.2701  2.9565  1.9943
 3174TIP3    H230938   4.739   2.903  12.619 -1.2351 -2.6836 -1.7490
 3175TIP3   OH230939   3.425   5.781  12.970  0.5924  0.3889  0.2048
 3175TIP3    H130940   3.497   5.721  12.987  1.8744  1.4360 -1.4141
 3175TIP3    H230941   3.356   5.753  13.031  1.6950 -1.7540  0.5273
 3176TIP3   OH230942   4.014   2.371   0.385 -0.1126 -0.1281 -0.2784
 3176TIP3    H130943   3.998   2.448   0.331 -1.1387 -0.4299 -0.4282
 3176TIP3    H230944   4.030   2.301   0.322  0.3352 -0.1410 -0.1526
 3177TIP3   OH230945   6.414   5.584   4.196  0.0468  0.4986  0.1127
 3177TIP3    H130946   6.434   5.677   4.197  0.5991  0.4013 -0.6920
 3177TIP3    H230947   6.348   5.575   4.127 -0.4541  0.3789  0.6060
 3178TIP3   OH230948   0.713   0.787   3.275  0.1848 -0.4596 -0.1014
 3178TIP3    H130949   0.667   0.791   3.359  1.5123 -2.9194  0.8193
 3178TIP3    H230950   0.679   0.708   3.233 -1.8147  1.7614 -2.7486
 3179TIP3   OH230951   0.322   1.353  14.649  0.3010 -0.1190  0.3863
 3179TIP3    H130952   0.320   1.257  14.650 -0.2571 -0.1480 -1.8710
 3179TIP3    H230953   0.296   1.378  14.738  0.8530 -2.0515  1.1244
 3180TIP3   OH230954   3.321   1.370   5.374  0.5216 -0.2331  0.0421
 3180TIP3    H130955   3.354   1.393   5.460 -0.9878 -1.4797  0.9794
 3180TIP3    H230956   3.375   1.296   5.347  0.0287 -0.7744  0.5469
 3181TIP3   OH230957   5.314   4.201  11.618 -0.0728  0.3500 -0.3682
 3181TIP3    H130958   5.348   4.155  11.694  2.6431  0.7147 -1.3165
 3181TIP3    H230959   5.286   4.131  11.559 -1.2255  0.0520  0.5078
 3182TIP3   OH230960   4.945   3.188   0.099 -0.0974 -0.0307  0.2645
 3182TIP3    H130961   4.888   3.112   0.107 -1.6030  1.0827  0.3535
 3182TIP3    H230962   4.935   3.216   0.008 -0.2151  0.5658  0.4582
 3183TIP3   OH230963   0.222   3.650  16.744  0.0837 -0.0353  0.8825
 3183TIP3    H130964   0.276   3.706  16.688 -1.0241  0.4579  0.2833
 3183TIP3    H230965   0.177   3.591  16.684 -1.6906  0.9957  1.1521
 3184TIP3   OH230966   5.457   4.028  11.809  0.1402  0.5725 -0.2965
 3184TIP3    H130967   5.551   4.015  11.795  0.3262  0.1777  1.1410
 3184TIP3    H230968   5.415   3.963  11.753  0.8660 -1.5439  1.4931
 3185TIP3   OH230969   6.244   3.466   1.564 -0.1596  0.6348 -0.3794
 3185TIP3    H130970   6.209   3.425   1.643  0.5187 -1.3412 -1.0630
 3185TIP3    H230971   6.222   3.559   1.573 -0.7241  0.3210  1.7721
 3186TIP3   OH230972   2.236   0.521  13.973 -0.5353  0.4186  0.4402
 3186TIP3    H130973   2.170   0.566  13.921  1.2561  0.3611 -1.9445
 3186TIP3    H230974   2.271   0.453  13.915  0.2166 -0.8667  2.3403
 3187TIP3   OH230975   3.498   2.110   3.598 -0.0773 -0.2154  0.2568
 3187TIP3    H130976   3.402   2.107   3.603 -0.0677  1.0740  1.2338
 3187TIP3    H230977   3.522   2.190   3.643  1.6225 -1.6846  2.0302
 3188TIP3   OH230978   5.053   3.506   1.525  0.0869  0.0589  0.0470
 3188TIP3    H130979   5.071   3.592   1.487  1.4018 -0.0050  0.5278
 3188TIP3    H230980   5.002   3.525   1.604  0.8393  0.4358  0.4503
 3189TIP3   OH230981   4.283   1.575  14.669 -0.1884 -0.4643  0.4932
 3189TIP3    H130982   4.287   1.670  14.671 -0.4615 -0.4336 -0.0951
 3189TIP3    H230983   4.361   1.546  14.717 -0.6937  0.0453  1.6383
 3190TIP3   OH230984   2.159   1.216  15.902  0.2021  0.1614  0.4399
 3190TIP3    H130985   2.112   1.272  15.963 -0.3715 -0.0028  0.1461
 3190TIP3    H230986   2.205   1.153  15.957 -0.9777 -0.5040  0.6619
 3191TIP3   OH230987   0.631   4.201  14.107  0.3988  0.1540  0.3152
 3191TIP3    H130988   0.550   4.156  14.131 -0.2614  1.5196  0.7206
 3191TIP3    H230989   0.654   4.251  14.185  1.7498 -0.3734  0.2644
 3192TIP3   OH230990   1.218   3.083   1.076 -0.5716 -0.0801 -0.1535
 3192TIP3    H130991   1.298   3.094   1.025 -0.7616 -0.1416 -0.4638
 3192TIP3    H230992   1.151   3.064   1.012 -0.6914 -0.7943  0.1792
 3193TIP3   OH230993   5.850   0.117   1.937  0.1720 -0.2038 -0.0267
 3193TIP3    H130994   5.838   0.117   1.842 -0.8848  0.7442  0.1002
 3193TIP3    H230995   5.773   0.071   1.971  0.0714  0.2931  0.4240
 3194TIP3   OH230996   1.840   0.493  13.747 -0.3200 -0.1683 -0.2870
 3194TIP3    H130997   1.914   0.442  13.715  0.6800  0.4859  0.9630
 3194TIP3    H230998   1.764   0.436  13.735  0.5796 -1.3721 -0.2806
 3195TIP3   OH230999   5.590   6.749  11.271 -0.2520 -0.2303 -0.4213
 3195TIP3    H131000   5.550   6.821  11.319 -0.2001 -0.5782  0.1542
 3195TIP3    H231001   5.677   6.740  11.310 -0.2711 -0.6226 -0.4639
 3196TIP3   OH231002   2.408   4.392   1.691 -1.2283 -0.2955  0.2233
 3196TIP3    H131003   2.364   4.311   1.717 -1.6819 -0.9006 -2.2855
 3196TIP3    H231004   2.338   4.446   1.654 -0.1728 -0.6578 -2.4051
 3197TIP3   OH231005   4.854   5.704  14.277  0.0117  0.0801  0.3474
 3197TIP3    H131006   4.810   5.764  14.217 -1.5654 -0.0906  1.3043
 3197TIP3    H231007   4.847   5.746  14.363 -1.6371 -1.6838  1.1321
 3198TIP3   OH231008   5.568   4.855  13.643 -0.4149 -0.5007  0.0200
 3198TIP3    H131009   5.568   4.844  13.548  1.2215 -0.8231  0.0504
 3198TIP3    H231010   5.601   4.943  13.658  1.2430 -1.1582  0.3486
 3199TIP3   OH231011   3.647   4.416   2.311  0.2579  0.3434 -0.3285
 3199TIP3    H131012   3.595   4.343   2.277 -0.3121 -0.5075  2.2752
 3199TIP3    H231013   3.590   4.493   2.301 -1.3827 -0.5038  2.0451
 3200TIP3   OH231014   5.807   0.200   2.914 -0.1476  0.3148  0.4032
 3200TIP3    H131015   5.883   0.257   2.922 -0.8667  1.8745 -2.8385
 3200TIP3    H231016   5.775   0.190   3.003  0.1588  4.8131  1.1560
 3201TIP3   OH231017   6.575   5.397  10.184  0.2077  0.0618  0.7437
 3201TIP3    H131018   6.486   5.366  10.168  0.2420 -0.2030  1.0576
 3201TIP3    H231019   6.568   5.492  10.184  0.1489  0.0570 -0.4758
 3202TIP3   OH231020   6.766   5.756  15.177  1.0254  0.0219  0.3479
 3202TIP3    H131021   6.755   5.844  15.212 -0.7396 -0.6327  1.5606
 3202TIP3    H231022   6.747   5.699  15.252 -1.9557 -1.4197 -1.4108
 3203TIP3   OH231023   1.226   4.750  16.271 -0.1668  0.0345  0.4497
 3203TIP3    H131024   1.293   4.691  16.238 -1.3379 -0.8131 -0.4135
 3203TIP3    H231025   1.177   4.778  16.194 -0.2725  1.3327  0.9665
 3204TIP3   OH231026   1.220   3.459   2.736 -0.1829  0.2907  0.4071
 3204TIP3    H131027   1.291   3.415   2.781  1.3127  0.8955 -1.2958
 3204TIP3    H231028   1.198   3.534   2.791  1.8026  1.1812  0.0384
 3205TIP3   OH231029   5.438   4.505   6.185  0.0372  0.6041 -0.3375
 3205TIP3    H131030   5.472   4.594   6.172 -0.6614  0.9157 -0.0345
 3205TIP3    H231031   5.345   4.517   6.205 -0.3134 -0.2739 -1.4411
 3206TIP3   OH231032   2.015   1.599  16.387  0.2441  0.0844 -0.0034
 3206TIP3    H131033   2.079   1.670  16.392 -0.2109  0.5182 -0.2950
 3206TIP3    H231034   2.065   1.524  16.354  0.2475  0.8614 -1.8398
 3207TIP3   OH231035   2.639   3.424   4.065 -1.1384 -0.7476  0.3111
 3207TIP3    H131036   2.580   3.430   4.140 -0.4472  0.2058  0.7832
 3207TIP3    H231037   2.725   3.448   4.099 -0.4868 -2.0513 -0.3951
 3208TIP3   OH231038   5.791   1.812  16.894 -0.1865 -0.4743  0.1436
 3208TIP3    H131039   5.883   1.786  16.898 -0.0971 -0.2785 -0.6459
 3208TIP3    H231040   5.788   1.881  16.828 -1.2056 -1.7700 -1.1868
 3209TIP3   OH231041   4.817   4.012  13.003  0.5228 -0.1344 -0.1300
 3209TIP3    H131042   4.770   4.096  13.007 -0.3130 -0.6559  1.2592
 3209TIP3    H231043   4.873   4.012  13.081  0.8428 -0.6788 -0.3583
 3210TIP3   OH231044   5.809   5.889   2.264 -0.5356  0.9748  0.1808
 3210TIP3    H131045   5.820   5.833   2.188 -0.4000  1.3945 -0.1121
 3210TIP3    H231046   5.892   5.881   2.312 -1.6146 -1.4191  1.7344
 3211TIP3   OH231047   1.731   0.606   3.196 -0.3517  0.0214  0.3285
 3211TIP3    H131048   1.701   0.694   3.221 -0.1544  0.1650  0.0656
 3211TIP3    H231049   1.653   0.565   3.158 -0.2479  0.3610 -0.2679
 3212TIP3   OH231050   2.353   1.266  15.082 -0.0955  0.1178  0.1743
 3212TIP3    H131051   2.448   1.271  15.086 -0.0447 -1.4859  1.7183
 3212TIP3    H231052   2.325   1.349  15.044  1.9334  0.4517 -0.5939
 3213TIP3   OH231053   0.373   3.923  13.468  0.2116 -0.0525  0.7113
 3213TIP3    H131054   0.446   3.863  13.476 -0.5776 -1.0067  0.8830
 3213TIP3    H231055   0.317   3.884  13.401 -0.1882  0.6132  0.6541
 3214TIP3   OH231056   4.123   1.573  14.142  0.4132  0.4548 -0.1593
 3214TIP3    H131057   4.145   1.664  14.164  0.7291  0.0765  1.1215
 3214TIP3    H231058   4.158   1.522  14.215 -3.1190 -0.3242  1.0903
 3215TIP3   OH231059   3.226   4.923   0.807  0.3277 -0.1105 -0.1581
 3215TIP3    H131060   3.312   4.954   0.780  0.4995 -0.4769 -0.0337
 3215TIP3    H231061   3.170   4.936   0.730  0.3150  0.8267  0.0066
 3216TIP3   OH231062   4.286   6.456   3.339 -0.6673 -0.5013 -0.1010
 3216TIP3    H131063   4.200   6.460   3.380 -0.4900  2.4183  0.0987
 3216TIP3    H231064   4.269   6.478   3.247 -0.2541 -0.8173 -0.2509
 3217TIP3   OH231065   1.622   3.467  15.801  0.1457  0.0901 -0.0693
 3217TIP3    H131066   1.600   3.486  15.892 -0.4285 -0.4203 -0.1008
 3217TIP3    H231067   1.613   3.551  15.756  0.9392  0.4540  0.4400
 3218TIP3   OH231068   1.222   2.825  14.862  0.2815 -0.0850 -0.4515
 3218TIP3    H131069   1.308   2.865  14.847 -0.2301  0.7377 -1.2160
 3218TIP3    H231070   1.164   2.898  14.882 -0.3797 -0.5756 -0.5414
 3219TIP3   OH231071   5.177   5.615   2.950 -0.1212  0.3830  0.3493
 3219TIP3    H131072   5.165   5.524   2.922  0.5750 -0.3489  2.2653
 3219TIP3    H231073   5.107   5.630   3.013 -1.5762  1.9324 -1.6137
 3220TIP3   OH231074   1.787   6.255  13.222 -0.2432 -0.5550  0.0859
 3220TIP3    H131075   1.741   6.241  13.139 -1.3553 -1.0213  0.7698
 3220TIP3    H231076   1.837   6.175  13.236  0.7451 -0.0634 -0.6407
 3221TIP3   OH231077   5.291   0.374  12.333 -0.5369 -0.7780  0.1965
 3221TIP3    H131078   5.344   0.299  12.360  0.3449 -0.6815 -1.1833
 3221TIP3    H231079   5.201   0.344  12.339 -0.3021 -1.1957  1.8509
 3222TIP3   OH231080   6.471   4.638   4.064 -0.4110 -0.2638  0.1945
 3222TIP3    H131081   6.496   4.576   3.995  0.2743 -1.3251  1.3666
 3222TIP3    H231082   6.458   4.583   4.141  2.0637  1.2125  1.7493
 3223TIP3   OH231083   4.732   3.101  10.766 -0.6505  0.6931 -0.1545
 3223TIP3    H131084   4.795   3.030  10.768 -1.0747  0.3311  0.4364
 3223TIP3    H231085   4.647   3.058  10.778 -0.9291  1.2664 -0.0631
 3224TIP3   OH231086   5.414   2.807   4.788  0.2581  0.2092  0.0837
 3224TIP3    H131087   5.362   2.789   4.709  1.4113 -0.7522 -0.4643
 3224TIP3    H231088   5.464   2.886   4.766  0.3947  0.0828 -0.0635
 3225TIP3   OH231089   5.298   3.823   1.971 -0.3253 -0.3376 -0.0100
 3225TIP3    H131090   5.302   3.730   1.994 -0.2882  0.0234  1.4952
 3225TIP3    H231091   5.385   3.857   1.991 -0.0078 -0.1943 -1.5749
 3226TIP3   OH231092   6.591   5.761   1.378 -0.9525 -0.5570 -0.2308
 3226TIP3    H131093   6.590   5.694   1.447  0.2457 -2.7195 -2.2445
 3226TIP3    H231094   6.650   5.726   1.312  0.4147  2.9577 -0.9487
 3227TIP3   OH231095   5.732   5.661   2.837 -0.4376  0.0523 -0.3374
 3227TIP3    H131096   5.776   5.578   2.856  0.5199  0.9623  1.5218
 3227TIP3    H231097   5.645   5.652   2.873  0.0697  0.3011  0.9610
 3228TIP3   OH231098   0.527   1.568  14.698  0.1120  0.4440  0.0603
 3228TIP3    H131099   0.519   1.562  14.793  1.6379 -1.2061  0.1241
 3228TIP3    H231100   0.460   1.509  14.664  1.3995 -1.1852  0.2248
 3229TIP3   OH231101   3.178   6.246  13.523 -0.2689  0.3992  0.6597
 3229TIP3    H131102   3.154   6.219  13.611  0.2402 -1.5733  0.2232
 3229TIP3    H231103   3.233   6.175  13.490  1.3631  2.1403 -0.4514
 3230TIP3   OH231104   3.048   6.022   0.282 -0.0592 -0.5766  0.0665
 3230TIP3    H131105   3.066   5.957   0.349  0.2325  0.5320  1.0834
 3230TIP3    H231106   2.953   6.035   0.286  0.2552  1.4211  2.1268
 3231TIP3   OH231107   2.003   2.235   1.023  0.0315  0.8525 -0.0599
 3231TIP3    H131108   1.920   2.226   1.071  0.0873  3.0394  0.4908
 3231TIP3    H231109   1.982   2.292   0.949  1.1131  1.6567  0.2461
 3232TIP3   OH231110   1.841   3.339   5.555 -0.0548  0.3347  0.0329
 3232TIP3    H131111   1.755   3.373   5.578  0.0309  0.2114  0.5435
 3232TIP3    H231112   1.834   3.316   5.462 -0.4295  0.7537 -0.0430
 3233TIP3   OH231113   3.442   6.673  10.619  0.0578  0.5548 -0.1387
 3233TIP3    H131114   3.498   6.750  10.611  0.7162  0.0708 -0.2776
 3233TIP3    H231115   3.362   6.697  10.573 -0.1362  1.5206  0.6838
 3234TIP3   OH231116   0.769   4.712   3.113 -0.0779 -0.2385 -0.0660
 3234TIP3    H131117   0.864   4.707   3.104 -0.1481  0.8629 -1.5961
 3234TIP3    H231118   0.754   4.728   3.206  1.3606  2.7789 -0.3203
 3235TIP3   OH231119   0.083   4.257  15.083 -0.0459 -0.7421 -0.6584
 3235TIP3    H131120   0.151   4.323  15.094  0.2748 -1.3287  1.0796
 3235TIP3    H231121   0.130   4.174  15.080 -0.6643 -1.1612  0.6501
 3236TIP3   OH231122   5.707   2.236   1.205 -0.0744 -0.0494  0.1527
 3236TIP3    H131123   5.675   2.209   1.119  0.4250  0.6250 -0.2523
 3236TIP3    H231124   5.706   2.156   1.257  1.1296 -0.7964 -0.9309
 3237TIP3   OH231125   5.680   4.684   3.393  0.2310  0.0335 -0.1058
 3237TIP3    H131126   5.596   4.655   3.428  1.2645 -2.2821  0.5849
 3237TIP3    H231127   5.693   4.631   3.315  0.8516  0.6673 -0.4351
 3238TIP3   OH231128   5.826   6.349   2.662  0.6638  0.0116 -0.0466
 3238TIP3    H131129   5.806   6.258   2.640 -1.3326  0.4807 -0.1985
 3238TIP3    H231130   5.804   6.398   2.583 -0.0783  0.8596  0.6773
 3239TIP3   OH231131   0.901   4.199  16.132 -0.0068  0.3749  0.5073
 3239TIP3    H131132   0.925   4.118  16.087 -0.8367 -0.1814  1.0535
 3239TIP3    H231133   0.984   4.248  16.139  0.7466 -0.9998  1.3204
 3240TIP3   OH231134   5.062   6.256  14.176 -0.0855 -0.3396 -0.3671
 3240TIP3    H131135   5.129   6.289  14.235  0.2207 -0.1627 -0.8134
 3240TIP3    H231136   5.111   6.217  14.104 -0.4244 -2.1984  0.3794
 3241TIP3   OH231137   2.546   4.465  15.046 -0.1723 -0.1499 -0.0674
 3241TIP3    H131138   2.527   4.477  15.139 -0.8582  3.4246 -0.5737
 3241TIP3    H231139   2.634   4.501  15.035  0.8219 -2.6239 -0.4423
 3242TIP3   OH231140   4.311   4.518   2.860 -0.8275 -0.0518 -0.3839
 3242TIP3    H131141   4.263   4.490   2.782 -1.4098 -0.9932  0.3092
 3242TIP3    H231142   4.383   4.456   2.867 -0.7657  0.0445 -0.1843
 3243TIP3   OH231143   4.820   5.555   4.852  0.3959  0.7543 -0.2956
 3243TIP3    H131144   4.821   5.463   4.876  0.2628  0.4585 -1.3923
 3243TIP3    H231145   4.809   5.602   4.935 -2.6137 -0.3279 -0.0163
 3244TIP3   OH231146   1.480   5.209   4.529 -0.3430  0.1410 -0.8242
 3244TIP3    H131147   1.412   5.274   4.510  0.5203  1.6103  0.9439
 3244TIP3    H231148   1.443   5.154   4.598 -0.1467  0.2629 -0.6215
 3245TIP3   OH231149   1.977   6.296  12.767 -0.0246  0.2978  0.0840
 3245TIP3    H131150   1.998   6.383  12.733 -0.4031  0.6572  0.7686
 3245TIP3    H231151   2.059   6.247  12.760  0.5518  1.1259  0.9731
 3246TIP3   OH231152   2.410   2.694   3.622 -0.1481 -0.1929  0.1423
 3246TIP3    H131153   2.403   2.746   3.542  0.6990  1.9696  1.4203
 3246TIP3    H231154   2.334   2.719   3.674  0.7347  0.4813  1.1416
 3247TIP3   OH231155   1.569   0.009  12.347 -0.2836  0.7401  0.3265
 3247TIP3    H131156   1.544   0.091  12.305  0.6289  0.7839 -0.1376
 3247TIP3    H231157   1.664   0.013  12.353 -0.1459 -0.7020 -0.5772
 3248TIP3   OH231158   5.849   1.001   6.073 -0.1551  0.2482 -0.5222
 3248TIP3    H131159   5.939   0.983   6.103  0.0294 -0.1716 -1.3155
 3248TIP3    H231160   5.858   1.075   6.014 -0.4799  0.8746  0.2075
 3249TIP3   OH231161   5.846   0.641  11.724 -0.6229  0.3964  0.4799
 3249TIP3    H131162   5.860   0.695  11.647  0.7599 -0.4562  0.1004
 3249TIP3    H231163   5.923   0.657  11.779 -1.3475  0.6063  1.4391
 3250TIP3   OH231164   6.097   1.401   5.585  0.0853  0.1498 -0.3940
 3250TIP3    H131165   6.047   1.459   5.528 -0.6985  0.0140  0.1574
 3250TIP3    H231166   6.122   1.455   5.660  0.9910  0.2877 -0.7797
 3251TIP3   OH231167   0.687   0.673   1.792  0.5469 -0.2281  0.8311
 3251TIP3    H131168   0.597   0.639   1.783  1.3804 -2.0425 -1.0800
 3251TIP3    H231169   0.705   0.668   1.886 -1.3402  0.1647  1.2459
 3252TIP3   OH231170   2.868   5.598   1.273 -0.0837  0.5859 -0.3028
 3252TIP3    H131171   2.803   5.643   1.220 -0.2133 -0.2090 -0.8279
 3252TIP3    H231172   2.818   5.553   1.341 -0.0547  0.2778 -0.4836
 3253TIP3   OH231173   6.450   4.515  12.880 -0.5286 -0.0652 -0.1703
 3253TIP3    H131174   6.430   4.459  12.805  0.3685  0.2875 -0.6857
 3253TIP3    H231175   6.365   4.548  12.909 -0.9836 -1.0670 -0.3515
 3254TIP3   OH231176   0.647   6.786   1.723 -0.2991 -0.2207  0.1862
 3254TIP3    H131177   0.709   6.715   1.703  0.8557  0.7568  0.2257
 3254TIP3    H231178   0.699   6.866   1.713 -1.6785  0.6359 -0.1730
 3255TIP3   OH231179   5.509   1.903  11.369  0.1416  0.1795  0.0177
 3255TIP3    H131180   5.533   1.907  11.276 -0.2817  0.2834 -0.0890
 3255TIP3    H231181   5.592   1.888  11.414 -0.0528 -3.0096 -0.6008
 3256TIP3   OH231182   6.527   2.162  14.844 -0.4712  0.2975  0.6219
 3256TIP3    H131183   6.590   2.151  14.916  0.1273  1.0415  0.2105
 3256TIP3    H231184   6.566   2.228  14.787  0.3396 -2.1429 -1.7956
 3257TIP3   OH231185   4.812   1.285   2.902 -0.3505  0.4163 -0.1426
 3257TIP3    H131186   4.776   1.293   2.814  0.0500  2.1827 -0.1478
 3257TIP3    H231187   4.864   1.363   2.915  1.0143 -0.6541  1.0291
 3258TIP3   OH231188   3.559   4.372   0.718  0.8323 -0.2232 -0.7245
 3258TIP3    H131189   3.523   4.461   0.724  1.3570 -0.0393 -0.1545
 3258TIP3    H231190   3.653   4.386   0.707  1.1266 -0.7122  1.0089
 3259TIP3   OH231191   6.428   6.342   0.763  0.1361  0.1591  0.4824
 3259TIP3    H131192   6.428   6.254   0.726 -0.7637 -0.3652  1.7091
 3259TIP3    H231193   6.519   6.371   0.754  0.4508 -0.9055  0.1101
 3260TIP3   OH231194   5.829   6.250  12.288 -0.4278  0.1065 -0.2414
 3260TIP3    H131195   5.889   6.212  12.352 -0.6155 -0.8099 -0.6060
 3260TIP3    H231196   5.755   6.189  12.285 -0.2738 -0.0226 -1.5582
 3261TIP3   OH231197   0.772   6.693  14.605 -0.1632  0.1907  0.3959
 3261TIP3    H131198   0.814   6.753  14.543  1.9887 -0.6957  0.9320
 3261TIP3    H231199   0.686   6.677  14.568  0.4932  0.9294 -1.5480
 3262TIP3   OH231200   4.272   4.419   0.824  0.1163 -0.0293  0.3346
 3262TIP3    H131201   4.198   4.417   0.763 -0.7912 -0.9910  1.4273
 3262TIP3    H231202   4.231   4.428   0.911  1.4494  3.1357  0.6930
 3263TIP3   OH231203   2.512   0.929   5.309 -0.3092  0.2052 -0.1485
 3263TIP3    H131204   2.463   0.995   5.357  1.4289  1.3323  0.1086
 3263TIP3    H231205   2.525   0.967   5.222 -0.2998 -0.2913 -0.3669
 3264TIP3   OH231206   6.292   1.321  13.842 -0.6929  0.0128  0.1682
 3264TIP3    H131207   6.201   1.293  13.833  0.1388 -3.1302  0.7853
 3264TIP3    H231208   6.310   1.314  13.936  0.2665  0.2570  0.0054
 3265TIP3   OH231209   1.772   5.377  15.678  0.8151  0.2656  0.4159
 3265TIP3    H131210   1.730   5.353  15.760 -1.0252  0.8596 -0.3373
 3265TIP3    H231211   1.866   5.365  15.695  0.3073 -2.0938  1.7637
 3266TIP3   OH231212   6.012   5.010   0.875  0.0127 -0.5173  0.3418
 3266TIP3    H131213   6.093   4.977   0.912  0.8854  2.3198  1.1151
 3266TIP3    H231214   5.943   4.960   0.919  1.2948 -3.3618 -0.7423
 3267TIP3   OH231215   0.361   3.244  10.570  0.4439  1.3055 -0.5598
 3267TIP3    H131216   0.432   3.308  10.567  0.9759  0.7793  0.6487
 3267TIP3    H231217   0.381   3.184  10.498  0.2113  2.1937 -1.3810
 3268TIP3   OH231218   5.973   0.414  14.418 -0.3067 -0.9799  0.3997
 3268TIP3    H131219   5.946   0.339  14.471  1.6514 -1.9932 -0.0204
 3268TIP3    H231220   6.007   0.376  14.337  0.4428  0.3696  0.0605
 3269TIP3   OH231221   5.644   3.373  15.849  0.0994 -0.0204 -0.2156
 3269TIP3    H131222   5.566   3.384  15.903 -0.9768 -2.2925 -1.2228
 3269TIP3    H231223   5.640   3.443  15.785  0.0025  1.1192  1.0179
 3270TIP3   OH231224   4.409   3.530   3.509 -0.5779 -0.0363 -0.1267
 3270TIP3    H131225   4.331   3.580   3.484 -2.5415 -2.0755  1.6842
 3270TIP3    H231226   4.398   3.445   3.466  0.8122 -0.2375 -0.1157
 3271TIP3   OH231227   0.634   6.119  11.075 -0.0275 -0.1928  0.0275
 3271TIP3    H131228   0.623   6.103  10.982 -2.0405  0.4932  0.1399
 3271TIP3    H231229   0.728   6.136  11.086  0.3174 -0.9218 -1.7532
 3272TIP3   OH231230   0.783   4.683   5.380  0.8656 -0.2595  0.1063
 3272TIP3    H131231   0.854   4.636   5.422 -0.0776 -1.4135  0.4381
 3272TIP3    H231232   0.783   4.650   5.290 -0.1841 -1.3611  0.5017
 3273TIP3   OH231233   3.753   4.915  14.623 -0.5628 -0.0163  0.2784
 3273TIP3    H131234   3.769   4.821  14.609 -1.4528 -0.1042 -0.1840
 3273TIP3    H231235   3.806   4.959  14.556 -0.4379 -0.2061  0.2527
 3274TIP3   OH231236   4.697   0.070   4.039 -0.4564  0.5657 -0.6224
 3274TIP3    H131237   4.664   0.108   3.958 -0.2103  2.3274  0.0800
 3274TIP3    H231238   4.790   0.054   4.023 -0.4701  0.6468 -0.7820
 3275TIP3   OH231239   1.578   4.324  14.525 -0.7846  0.6613 -0.1064
 3275TIP3    H131240   1.492   4.301  14.559 -0.4720  0.2296  0.3873
 3275TIP3    H231241   1.637   4.311  14.599  0.0241 -1.0920 -1.0469
 3276TIP3   OH231242   1.807   2.467  13.592 -0.2783 -0.1182  0.2026
 3276TIP3    H131243   1.902   2.463  13.606 -0.3703 -0.4822  0.7438
 3276TIP3    H231244   1.784   2.380  13.560 -0.2625  0.3221 -1.0239
 3277TIP3   OH231245   0.331   6.361   2.355  0.8445  0.3043  0.0197
 3277TIP3    H131246   0.380   6.374   2.274 -0.1157  1.1386 -0.4313
 3277TIP3    H231247   0.240   6.378   2.332  0.6102  0.9840  1.3642
 3278TIP3   OH231248   2.658   0.042  10.720  0.3282 -0.2153  0.5408
 3278TIP3    H131249   2.597   0.007  10.785  1.0483 -0.3631  1.1351
 3278TIP3    H231250   2.715  -0.032  10.698  0.4432 -0.0154  0.1509
 3279TIP3   OH231251   6.394   3.370  16.144 -0.5060 -0.0658 -0.1842
 3279TIP3    H131252   6.410   3.300  16.080  1.9735  0.8897 -0.6621
 3279TIP3    H231253   6.430   3.337  16.226 -3.6626 -1.2792  0.8118
 3280TIP3   OH231254   6.062   2.846   3.007  0.2420 -0.7755  0.3507
 3280TIP3    H131255   6.139   2.898   2.985 -1.6827  1.5915 -1.0749
 3280TIP3    H231256   6.078   2.818   3.097  1.5950  1.8874  1.0042
 3281TIP3   OH231257   0.351   6.493   5.011  0.1505  0.0460  0.2524
 3281TIP3    H131258   0.323   6.448   4.931 -1.8469 -0.0162  0.9627
 3281TIP3    H231259   0.349   6.586   4.989  2.7388 -0.0799 -0.7251
 3282TIP3   OH231260   0.820   5.234  13.705  0.1981 -0.3542  0.1323
 3282TIP3    H131261   0.761   5.236  13.780 -0.0917  3.1151 -0.1268
 3282TIP3    H231262   0.836   5.140  13.689 -1.4432 -1.1876  3.1294
 3283TIP3   OH231263   2.010   0.946   6.012  0.4715 -0.0400  0.6357
 3283TIP3    H131264   2.086   1.001   5.994 -0.0851  0.6551  0.4037
 3283TIP3    H231265   1.969   0.986   6.089  0.4353 -0.5198  0.8712
 3284TIP3   OH231266   2.474   4.337  11.058 -0.6020 -0.3357  0.4420
 3284TIP3    H131267   2.481   4.433  11.065 -1.1835 -0.2696  0.1586
 3284TIP3    H231268   2.564   4.308  11.043 -0.6280  0.2980 -1.0577
 3285TIP3   OH231269   6.328   6.121  11.281  0.7245  0.6491 -0.0985
 3285TIP3    H131270   6.272   6.061  11.330 -1.6631  3.0950  0.2664
 3285TIP3    H231271   6.273   6.154  11.211  1.9729  2.5119 -0.2308
 3286TIP3   OH231272   3.297   3.565  12.801  0.1899 -0.2254  0.3227
 3286TIP3    H131273   3.253   3.483  12.778  0.3303 -0.9826  2.6121
 3286TIP3    H231274   3.228   3.618  12.841  0.1472  0.7223 -0.9740
 3287TIP3   OH231275   5.585   0.927   5.972 -0.8544 -0.5079  0.2713
 3287TIP3    H131276   5.670   0.963   5.996 -0.3712 -0.9326 -0.7626
 3287TIP3    H231277   5.598   0.891   5.884 -2.4362  0.6022 -0.4668
 3288TIP3   OH231278   4.160   4.909  16.891  0.0809 -0.1698 -0.0046
 3288TIP3    H131279   4.208   4.832  16.859  2.0236  0.8023  0.4642
 3288TIP3    H231280   4.203   4.931  16.973 -0.6375  1.2639 -0.0073
 3289TIP3   OH231281   6.408   6.107   2.860  0.3569  0.4993 -0.2580
 3289TIP3    H131282   6.357   6.079   2.784  0.2145 -0.0427  0.0335
 3289TIP3    H231283   6.352   6.086   2.935  0.5955  0.8188  0.0117
 3290TIP3   OH231284   4.556   6.529  13.158 -0.3187 -0.3056  0.7819
 3290TIP3    H131285   4.472   6.565  13.129 -0.5787 -1.0823  0.5550
 3290TIP3    H231286   4.544   6.434  13.153  1.4380 -0.4464 -1.7984
 3291TIP3   OH231287   2.660   5.598   3.892 -0.3259 -0.4660 -0.0951
 3291TIP3    H131288   2.705   5.676   3.923  0.2176 -0.0944 -1.7519
 3291TIP3    H231289   2.647   5.545   3.970  0.8132  0.5194  0.7852
 3292TIP3   OH231290   5.328   6.210  11.590  0.5299 -0.4714  0.1954
 3292TIP3    H131291   5.278   6.139  11.550  0.4121 -0.1127 -0.3029
 3292TIP3    H231292   5.279   6.231  11.670  0.0335 -0.3104 -0.1461
 3293TIP3   OH231293   1.724   2.065  14.816  0.1849 -0.6075  0.2838
 3293TIP3    H131294   1.630   2.047  14.809 -0.1664  0.8157  1.0581
 3293TIP3    H231295   1.764   1.979  14.829 -0.9585 -1.2741 -0.4782
 3294TIP3   OH231296   0.218   5.281  12.333 -0.2262 -0.4426 -0.1149
 3294TIP3    H131297   0.126   5.307  12.331 -0.3504 -0.9800 -1.2798
 3294TIP3    H231298   0.223   5.219  12.406 -1.4658 -2.9721 -2.1458
 3295TIP3   OH231299   5.687   0.252  15.779  0.3750 -0.3457 -0.0402
 3295TIP3    H131300   5.645   0.167  15.790  0.3931 -0.2772  0.5749
 3295TIP3    H231301   5.659   0.303  15.855  3.3296 -1.0181  1.5843
 3296TIP3   OH231302   6.476   2.589   0.616  0.1374 -0.2907  0.7502
 3296TIP3    H131303   6.559   2.546   0.635  0.6908  0.2256 -0.4621
 3296TIP3    H231304   6.426   2.524   0.567  0.9007  0.3467 -0.9161
 3297TIP3   OH231305   3.124   6.190  13.008 -0.0370  0.5447  0.1074
 3297TIP3    H131306   3.208   6.204  12.965  0.0202 -1.5436 -0.5077
 3297TIP3    H231307   3.136   6.112  13.061 -1.7845 -0.2402 -0.5766
 3298TIP3   OH231308   0.960   5.584   4.673  0.2213 -0.6158 -0.1058
 3298TIP3    H131309   1.006   5.666   4.693 -2.3644  1.0407 -0.6964
 3298TIP3    H231310   0.952   5.585   4.577 -1.2536 -0.7244  0.0035
 3299TIP3   OH231311   4.677   0.939  11.623 -0.2908  0.2028 -0.2336
 3299TIP3    H131312   4.622   1.005  11.666  1.5903  2.0871 -0.5971
 3299TIP3    H231313   4.659   0.950  11.530 -0.5610 -0.3411 -0.2458
 3300TIP3   OH231314   6.402   1.260  15.698  0.2728 -0.4156 -0.3887
 3300TIP3    H131315   6.359   1.255  15.612 -0.1967  0.7426 -0.2259
 3300TIP3    H231316   6.450   1.343  15.696  0.8968 -0.7546  0.1826
 3301TIP3   OH231317   0.586   6.503  15.262 -0.5142 -0.9207 -0.1859
 3301TIP3    H131318   0.579   6.437  15.193  1.8779  0.1645 -1.5220
 3301TIP3    H231319   0.495   6.524  15.284 -1.3104 -2.2547 -2.0515
 3302TIP3   OH231320   0.020   0.074  15.680 -0.6289 -0.0862 -0.2593
 3302TIP3    H131321   0.057   0.115  15.601 -1.1471  3.0640  1.0472
 3302TIP3    H231322  -0.072   0.100  15.679 -0.9623 -1.1950  0.6948
 3303TIP3   OH231323   4.718   0.336   2.515  0.0593 -0.7991 -0.5284
 3303TIP3    H131324   4.628   0.346   2.546  0.2987  0.1321 -0.1074
 3303TIP3    H231325   4.758   0.421   2.532  1.0469 -1.2458 -0.6209
 3304TIP3   OH231326   1.381   0.400   4.147 -0.0813  0.0502  0.5368
 3304TIP3    H131327   1.412   0.486   4.174  1.8597 -0.3368 -0.3427
 3304TIP3    H231328   1.409   0.392   4.055 -3.4515 -0.0629 -0.5567
 3305TIP3   OH231329   5.367   6.383   5.380 -0.1292 -0.1771  0.4021
 3305TIP3    H131330   5.373   6.296   5.419 -0.8874 -0.2082  0.4588
 3305TIP3    H231331   5.449   6.394   5.332 -0.4110 -1.2675 -0.3249
 3306TIP3   OH231332   1.502   6.002  16.587 -0.0249  0.2002 -0.1359
 3306TIP3    H131333   1.559   5.925  16.584  1.3898  1.1603  0.8524
 3306TIP3    H231334   1.520   6.048  16.505  1.0003  0.7395  0.3811
 3307TIP3   OH231335   0.935   0.166  16.192 -0.4143 -0.4081 -0.0485
 3307TIP3    H131336   0.886   0.243  16.221 -1.1678 -1.1175  0.5982
 3307TIP3    H231337   0.894   0.093  16.238 -0.9202 -1.4458 -2.1064
 3308TIP3   OH231338   5.851   6.053  11.276 -0.2852  0.0420 -0.3068
 3308TIP3    H131339   5.888   6.097  11.199  1.4035  0.9371  1.0037
 3308TIP3    H231340   5.774   6.105  11.298  0.3273  0.9130 -0.2240
 3309TIP3   OH231341   2.814   0.068  16.642 -0.0207 -0.5877  0.0077
 3309TIP3    H131342   2.828   0.091  16.550  1.6389  0.2703  0.4367
 3309TIP3    H231343   2.835  -0.025  16.647  1.2821 -0.3211 -0.2298
 3310TIP3   OH231344   1.252   6.649   1.062 -0.0973  0.1922 -0.2435
 3310TIP3    H131345   1.204   6.577   1.020 -1.3934  1.1615 -0.4638
 3310TIP3    H231346   1.220   6.727   1.018 -1.2659  1.2148  2.3186
 3311TIP3   OH231347   2.305   4.851  11.066  0.2339  0.5941  0.1541
 3311TIP3    H131348   2.294   4.789  10.994 -1.0305  0.4390  0.4576
 3311TIP3    H231349   2.399   4.854  11.081  0.4016 -0.4069 -0.6011
 3312TIP3   OH231350   5.304   6.759   3.114  0.0762  0.1723 -0.4090
 3312TIP3    H131351   5.283   6.796   3.029  0.3521  1.7360  0.1936
 3312TIP3    H231352   5.260   6.673   3.114 -0.2993  0.3481 -1.9258
 3313TIP3   OH231353   4.120   6.446  16.884  0.5413  0.2387 -0.2518
 3313TIP3    H131354   4.123   6.508  16.958 -0.9060 -0.1744  0.1829
 3313TIP3    H231355   4.185   6.380  16.905  0.6644  0.5297  0.3027
 3314TIP3   OH231356   6.505   3.372   1.531 -0.2192 -0.2022  0.5681
 3314TIP3    H131357   6.412   3.384   1.548 -0.3246 -0.1880 -0.0056
 3314TIP3    H231358   6.542   3.350   1.616 -0.7012  0.0632  0.8497
 3315TIP3   OH231359   6.409   1.128  15.427  0.0818 -0.1964 -0.3873
 3315TIP3    H131360   6.376   1.199  15.372  2.8133  1.4251 -0.0126
 3315TIP3    H231361   6.454   1.070  15.366 -0.9553 -0.9168 -0.4902
 3316TIP3   OH231362   0.417   5.575   5.805  0.3910  0.4036 -0.0947
 3316TIP3    H131363   0.448   5.564   5.895  1.4223 -0.7827 -0.5788
 3316TIP3    H231364   0.461   5.654   5.775 -0.4764  1.1894  0.6442
 3317TIP3   OH231365   6.624   2.801   0.397  0.0348  0.0373  0.1667
 3317TIP3    H131366   6.709   2.778   0.360 -0.3484 -4.2317  1.6443
 3317TIP3    H231367   6.560   2.766   0.335 -0.7087  1.8307 -0.1373
 3318TIP3   OH231368   0.115   1.374   0.867  0.0988 -0.3126  0.2956
 3318TIP3    H131369   0.134   1.344   0.956 -0.4544 -1.8186 -0.0825
 3318TIP3    H231370   0.042   1.319   0.838 -0.6049  1.0578 -0.6166
 3319TIP3   OH231371   1.744   3.028  11.944  0.5494  0.1025  0.0929
 3319TIP3    H131372   1.811   3.096  11.956  0.6391 -0.0547  0.5090
 3319TIP3    H231373   1.662   3.072  11.965  0.4434  0.4787 -1.0707
 3320TIP3   OH231374   3.531   0.955  11.526 -0.0575 -0.1364  0.2706
 3320TIP3    H131375   3.607   0.997  11.566  0.0650 -0.4476  0.3662
 3320TIP3    H231376   3.565   0.871  11.493  0.4465  1.2098 -2.7484
 3321TIP3   OH231377   1.097   3.420  10.855  0.1377 -0.3607  0.5314
 3321TIP3    H131378   1.008   3.385  10.848  0.4763 -1.0518 -0.4378
 3321TIP3    H231379   1.123   3.437  10.764  1.2934 -0.9075  0.7534
 3322TIP3   OH231380   5.941   6.592   1.501  0.1240  0.1426  0.3126
 3322TIP3    H131381   5.946   6.503   1.466 -0.3941  0.7428 -1.3326
 3322TIP3    H231382   5.868   6.632   1.454  2.4196  2.4686 -1.4219
 3323TIP3   OH231383   0.906   0.652  10.954 -0.1746 -0.8234 -0.2721
 3323TIP3    H131384   0.957   0.660  10.873  1.4388  0.1461  0.8074
 3323TIP3    H231385   0.874   0.562  10.953  1.5712 -1.4748 -1.0148
 3324TIP3   OH231386   4.080   5.522  11.365 -0.7257  0.0617  0.2650
 3324TIP3    H131387   4.048   5.576  11.294 -1.7789 -0.0957  0.6169
 3324TIP3    H231388   4.014   5.531  11.434 -0.3078 -0.7245  0.7743
 3325TIP3   OH231389   5.951   6.071  12.440  0.5563 -0.2028  0.3478
 3325TIP3    H131390   5.902   5.989  12.436  0.4418 -0.0875 -0.7432
 3325TIP3    H231391   6.030   6.054  12.389 -0.4888  1.0281 -1.7789
 3326TIP3   OH231392   0.665   5.760  15.150  0.0496 -0.2654 -0.4803
 3326TIP3    H131393   0.647   5.848  15.182  1.4546 -0.0103 -0.3529
 3326TIP3    H231394   0.625   5.757  15.063 -0.5937  0.2630 -0.2064
 3327TIP3   OH231395   6.480   5.161  13.606  0.4025  0.4120  0.4402
 3327TIP3    H131396   6.566   5.194  13.631  1.1115 -0.3447 -0.9298
 3327TIP3    H231397   6.458   5.210  13.526 -0.4899  0.6824  0.8442
 3328TIP3   OH231398   0.805   6.348   2.560  0.0229 -0.7216  0.4802
 3328TIP3    H131399   0.747   6.292   2.612 -0.8019 -1.1059 -0.8341
 3328TIP3    H231400   0.748   6.387   2.494  0.7721  0.9401  0.7625
 3329TIP3   OH231401   3.376   0.091  14.908  0.2319  0.3264  0.5812
 3329TIP3    H131402   3.305   0.089  14.844 -0.9038 -0.0869  1.8610
 3329TIP3    H231403   3.409   0.001  14.910  0.7412  0.4972  0.0580
 3330TIP3   OH231404   1.879   4.270  15.179  0.5939  0.4047 -0.2846
 3330TIP3    H131405   1.905   4.335  15.114 -0.7470  1.4477  0.2029
 3330TIP3    H231406   1.925   4.297  15.259  0.4554  0.4335 -0.2154
 3331TIP3   OH231407   5.617   0.034  10.971 -0.0877 -0.3562 -0.1576
 3331TIP3    H131408   5.692   0.030  10.911 -0.4850  0.9633 -0.7600
 3331TIP3    H231409   5.653   0.074  11.050 -0.1370  0.2327 -0.4288
 3332TIP3   OH231410   4.309   2.970  12.251  0.2406  0.1899 -0.3826
 3332TIP3    H131411   4.333   3.053  12.293  0.8750 -0.2432  0.1133
 3332TIP3    H231412   4.364   2.965  12.173  1.0705 -0.3260  0.2229
 3333TIP3   OH231413   3.678   5.123   3.673 -0.5078 -0.1714  0.3490
 3333TIP3    H131414   3.611   5.178   3.633 -0.4487 -0.8593 -0.7043
 3333TIP3    H231415   3.740   5.185   3.712 -0.5570  0.5108 -0.6358
 3334TIP3   OH231416   1.015   0.546  17.188 -0.3618 -0.1087 -0.2418
 3334TIP3    H131417   1.095   0.547  17.135  0.5012  0.5923  1.0555
 3334TIP3    H231418   1.046   0.550  17.278 -1.8699  0.5246  0.2624
 3335TIP3   OH231419   6.254   6.643  12.072  0.2739 -0.1041 -0.2555
 3335TIP3    H131420   6.308   6.720  12.093 -0.1927  0.1177  0.1692
 3335TIP3    H231421   6.170   6.680  12.046 -0.3395 -0.5023  1.1223
 3336TIP3   OH231422   0.813   3.614   1.253  0.9919  0.3482 -0.0132
 3336TIP3    H131423   0.870   3.611   1.176  1.3118  1.7238  0.1650
 3336TIP3    H231424   0.730   3.649   1.220  1.0415  0.6755  0.2066
 3337TIP3   OH231425   0.792   4.078   2.921 -0.3698  0.0233 -0.1353
 3337TIP3    H131426   0.860   4.011   2.929 -0.3901 -0.0364 -0.4910
 3337TIP3    H231427   0.752   4.082   3.008 -1.2182 -1.3227 -0.4538
 3338TIP3   OH231428   5.174   3.443   4.778 -0.2830 -0.2789  0.0789
 3338TIP3    H131429   5.141   3.504   4.844 -0.0933  0.3371 -0.3886
 3338TIP3    H231430   5.096   3.410   4.734 -0.4197 -0.7900  0.6853
 3339TIP3   OH231431   2.128   0.190   1.212  0.4434  0.0769 -0.2102
 3339TIP3    H131432   2.148   0.099   1.190 -0.0525 -0.0732 -0.0552
 3339TIP3    H231433   2.119   0.233   1.127  1.2405  0.1108 -0.2829
 3340TIP3   OH231434   3.423   5.973   3.907  0.4220 -0.5504  0.4362
 3340TIP3    H131435   3.366   6.007   3.976  1.8767  1.7585  0.5884
 3340TIP3    H231436   3.512   5.995   3.937  1.0417  1.1974 -2.4993
 3341TIP3   OH231437   5.940   0.524  13.670  0.2785 -0.3476 -0.2265
 3341TIP3    H131438   5.896   0.600  13.630 -1.2441  0.2093  2.3892
 3341TIP3    H231439   6.000   0.562  13.734  0.5330 -1.3166  0.1084
 3342TIP3   OH231440   4.386   0.428   3.998  0.4722 -0.3216  0.0562
 3342TIP3    H131441   4.302   0.470   4.014  0.8764  0.5930 -0.2091
 3342TIP3    H231442   4.364   0.335   3.987 -0.0956 -0.6988  3.6716
 3343TIP3   OH231443   1.111   0.029  16.846  0.1203  0.0063  0.0878
 3343TIP3    H131444   1.182   0.093  16.835 -0.7243  1.0961  0.8466
 3343TIP3    H231445   1.146  -0.035  16.908  0.6819  0.1886 -0.0358
 3344TIP3   OH231446   6.714   4.404   0.037 -0.4919 -0.3004  0.0130
 3344TIP3    H131447   6.801   4.368   0.055 -0.2276 -0.1295 -0.8937
 3344TIP3    H231448   6.700   4.469   0.106  0.1500 -0.2429  0.0933
 3345TIP3   OH231449   3.421   2.322   0.793  0.1919  0.4111  0.2434
 3345TIP3    H131450   3.512   2.316   0.763 -0.0603 -0.0785 -0.4503
 3345TIP3    H231451   3.392   2.408   0.762  0.5171  0.7000  0.7430
 3346TIP3   OH231452   3.557   1.747   5.352 -0.6131 -0.0170 -0.3114
 3346TIP3    H131453   3.571   1.653   5.345 -0.1981  0.0146  0.0537
 3346TIP3    H231454   3.639   1.781   5.390 -0.4538  0.5817 -1.1604
 3347TIP3   OH231455   1.613   3.940   5.436  0.1632  0.8277  0.2019
 3347TIP3    H131456   1.576   4.003   5.374  2.3728  0.7396 -1.2407
 3347TIP3    H231457   1.642   3.994   5.510  0.5116  1.3290 -0.2928
 3348TIP3   OH231458   0.190   1.555   0.341 -0.0678 -0.0807 -0.0759
 3348TIP3    H131459   0.141   1.516   0.414 -0.3128  0.0696 -0.1562
 3348TIP3    H231460   0.165   1.502   0.265  1.5393 -1.3269  0.2517
 3349TIP3   OH231461   6.170   2.856  11.512  0.2252  0.0714 -0.6457
 3349TIP3    H131462   6.193   2.939  11.469  1.9714 -0.5929 -1.0506
 3349TIP3    H231463   6.197   2.789  11.449 -3.1973 -0.8063 -1.2734
 3350TIP3   OH231464   0.740   3.006  11.437 -0.1350 -0.5541  0.9132
 3350TIP3    H131465   0.776   3.002  11.526 -0.0976 -0.8615  0.8862
 3350TIP3    H231466   0.817   3.001  11.380 -0.0435  1.0772  0.8704
 3351TIP3   OH231467   2.226   3.147   2.784  0.2215 -0.0600  0.4720
 3351TIP3    H131468   2.290   3.218   2.779  0.0306  0.0194 -0.7868
 3351TIP3    H231469   2.144   3.192   2.805  0.1955  0.0421  0.1553
 3352TIP3   OH231470   3.141   6.285  15.463 -0.8502 -0.5008  0.5164
 3352TIP3    H131471   3.072   6.277  15.529 -1.6152  1.7281  0.0195
 3352TIP3    H231472   3.096   6.277  15.379 -0.3116 -0.4141  0.2147
 3353TIP3   OH231473   1.412   2.548   1.827 -0.3017 -0.2006  0.0747
 3353TIP3    H131474   1.431   2.464   1.870  0.3868  0.4698  1.0818
 3353TIP3    H231475   1.487   2.563   1.770 -0.9301 -0.7882 -0.9264
 3354TIP3   OH231476   2.711   5.877  15.716  0.4954 -0.3332 -0.1240
 3354TIP3    H131477   2.733   5.967  15.741 -1.1644 -0.2829  1.2935
 3354TIP3    H231478   2.795   5.836  15.698  1.2695  1.5252 -0.8670
 3355TIP3   OH231479   0.482   3.675   5.385  0.4193  0.1908  0.1442
 3355TIP3    H131480   0.393   3.663   5.419  1.2091 -0.7244  1.9437
 3355TIP3    H231481   0.498   3.597   5.331  0.1131  0.3998 -0.2544
 3356TIP3   OH231482   4.088   6.551  12.877  0.2015 -0.3871  0.2008
 3356TIP3    H131483   3.995   6.547  12.901  0.2818  0.2742  0.6109
 3356TIP3    H231484   4.111   6.460  12.858 -0.1427 -0.7614  1.5563
 3357TIP3   OH231485   6.487   2.995   1.022  0.1781  0.5540 -1.1597
 3357TIP3    H131486   6.425   2.926   0.999 -0.1011 -0.5312  2.5547
 3357TIP3    H231487   6.436   3.057   1.074  1.6869  0.6722  0.2271
 3358TIP3   OH231488   5.852   1.925   1.811  0.1869  0.0706 -0.3444
 3358TIP3    H131489   5.904   1.990   1.763  0.1181 -0.2611 -0.8685
 3358TIP3    H231490   5.899   1.843   1.800 -0.0888 -0.1016 -0.2509
 3359TIP3   OH231491   5.530   1.845  12.835 -0.6073  0.7100 -0.2177
 3359TIP3    H131492   5.444   1.803  12.847  0.4734 -0.7925  2.8636
 3359TIP3    H231493   5.593   1.773  12.840  1.0089  2.1162  0.4517
 3360TIP3   OH231494   1.730   0.223   2.262 -0.1531 -0.1960 -0.1723
 3360TIP3    H131495   1.701   0.135   2.237 -1.2408  0.4022 -1.0731
 3360TIP3    H231496   1.650   0.268   2.289 -0.0249  1.3167 -2.1751
 3361TIP3   OH231497   5.495   1.966  12.292 -0.0411  0.7297 -0.3992
 3361TIP3    H131498   5.469   1.983  12.382  1.0886  2.9418 -0.4469
 3361TIP3    H231499   5.412   1.960  12.244 -0.6432 -0.4159  0.7538
 3362TIP3   OH231500   6.581   6.722   5.199 -0.2688  0.1080  0.0188
 3362TIP3    H131501   6.508   6.783   5.190  0.2655  0.8400  0.5789
 3362TIP3    H231502   6.652   6.774   5.236  1.0468 -0.2272 -1.9777
 3363TIP3   OH231503   0.756   5.526   4.811 -0.1442 -0.2829  0.1343
 3363TIP3    H131504   0.716   5.462   4.752 -0.9707  0.8267 -0.5337
 3363TIP3    H231505   0.842   5.544   4.773 -0.4293 -0.0306 -0.3874
 3364TIP3   OH231506   3.337   4.248  13.206 -0.4324  0.1652  0.2010
 3364TIP3    H131507   3.364   4.166  13.163 -0.1436 -0.5507  1.7024
 3364TIP3    H231508   3.242   4.241  13.214 -0.4906  0.3192 -0.3685
 3365TIP3   OH231509   1.961   2.807   3.560  0.3055  0.1023  1.0563
 3365TIP3    H131510   1.920   2.871   3.501  2.4938  0.7895  0.2192
 3365TIP3    H231511   2.033   2.856   3.601  1.3514 -1.5284  1.1903
 3366TIP3   OH231512   2.457   6.306   1.933 -0.5819  0.3645 -0.2333
 3366TIP3    H131513   2.396   6.257   1.988  1.5561 -0.8058  1.1519
 3366TIP3    H231514   2.509   6.238   1.889  0.4489  1.3555 -0.5646
 3367TIP3   OH231515   5.413   4.672   3.974  0.2325  0.1471 -0.5340
 3367TIP3    H131516   5.468   4.691   4.051 -0.5621  0.3760 -0.0220
 3367TIP3    H231517   5.459   4.716   3.902 -0.4263  2.2283  0.2780
 3368TIP3   OH231518   1.298   4.211  11.874  0.3091 -0.2020 -0.2584
 3368TIP3    H131519   1.357   4.244  11.805  1.7178 -1.9078  0.1005
 3368TIP3    H231520   1.274   4.123  11.844 -0.4700 -0.2749  0.5812
 3369TIP3   OH231521   5.409   1.998  14.432 -0.2748 -0.1306  0.6456
 3369TIP3    H131522   5.504   1.996  14.444 -0.1550  0.7690 -0.1112
 3369TIP3    H231523   5.395   1.959  14.345 -0.5621  0.0735  0.5992
 3370TIP3   OH231524   1.923   1.546   4.878 -0.4933  0.3544 -0.6755
 3370TIP3    H131525   1.917   1.620   4.817 -2.0443 -0.1747 -1.1928
 3370TIP3    H231526   1.854   1.486   4.849 -0.5629 -0.3786  0.9770
 3371TIP3   OH231527   1.222   1.478  13.613  0.3019  0.3275 -0.2485
 3371TIP3    H131528   1.276   1.442  13.543  1.2785 -0.5172  0.9100
 3371TIP3    H231529   1.281   1.533  13.663 -0.6279  1.7113 -0.6372
 3372TIP3   OH231530   1.968   5.754   3.727  0.3973  0.3958 -0.1215
 3372TIP3    H131531   1.978   5.848   3.745 -0.6277  0.3694  0.5691
 3372TIP3    H231532   2.052   5.729   3.687  1.3261  1.2311  1.2501
 3373TIP3   OH231533   0.797   5.520   3.750  0.8028  0.0826  0.5475
 3373TIP3    H131534   0.881   5.567   3.758  1.7681 -1.6567  0.9459
 3373TIP3    H231535   0.733   5.588   3.732  2.2099  1.5292  0.9024
 3374TIP3   OH231536   2.018   3.792   1.756 -0.0827  0.8537 -0.2691
 3374TIP3    H131537   2.026   3.815   1.848 -0.6562  0.4953 -0.1269
 3374TIP3    H231538   1.926   3.811   1.734  0.1069  1.1541 -0.8229
 3375TIP3   OH231539   3.790   4.563   2.572 -0.0594  0.7241 -0.7797
 3375TIP3    H131540   3.815   4.516   2.652  1.5508  1.2598 -0.9358
 3375TIP3    H231541   3.828   4.650   2.583  0.2039  0.7921 -2.1310
 3376TIP3   OH231542   4.434   0.984  13.349  0.4003 -0.1605  0.3979
 3376TIP3    H131543   4.411   0.909  13.404  1.5353 -0.2692  0.7400
 3376TIP3    H231544   4.363   1.047  13.363 -0.7096 -1.2869 -0.1264
 3377TIP3   OH231545   4.002   5.871  12.955 -0.1393 -0.1287  0.5575
 3377TIP3    H131546   3.950   5.819  12.894 -0.6129  1.8311 -0.7400
 3377TIP3    H231547   4.030   5.947  12.904  1.0887  0.5740  2.2383
 3378TIP3   OH231548   5.579   3.146   3.060 -0.2414 -0.1198  0.1542
 3378TIP3    H131549   5.637   3.074   3.037  1.8375  1.4358  0.3486
 3378TIP3    H231550   5.560   3.190   2.977 -1.2762 -0.7009  0.0730
 3379TIP3   OH231551   6.714   1.791  15.678  0.2145 -0.3331  0.1933
 3379TIP3    H131552   6.627   1.819  15.649  0.7154 -0.0379 -1.0597
 3379TIP3    H231553   6.698   1.741  15.758 -1.1815 -0.9622 -0.4664
 3380TIP3   OH231554   0.926   5.316  12.063 -0.5798  0.0105  0.2455
 3380TIP3    H131555   0.836   5.333  12.035 -0.6505 -2.4192 -1.1111
 3380TIP3    H231556   0.979   5.326  11.984  0.0068 -1.0293  0.4958
 3381TIP3   OH231557   2.100   4.056   5.088  0.4500  0.9072 -0.7034
 3381TIP3    H131558   2.101   4.122   5.019 -1.8193  1.9141  0.1705
 3381TIP3    H231559   2.029   4.083   5.147  0.0906 -1.7544  0.1941
 3382TIP3   OH231560   6.019   5.692   0.992  0.6103  0.6103 -0.2241
 3382TIP3    H131561   6.068   5.722   1.069 -1.5016  1.8528  0.6705
 3382TIP3    H231562   6.023   5.766   0.931 -1.2352  1.2483  0.3914
 3383TIP3   OH231563   3.391   0.120  13.709 -0.1640 -0.4786 -0.6101
 3383TIP3    H131564   3.459   0.070  13.753 -0.2234 -0.3702 -0.3969
 3383TIP3    H231565   3.319   0.123  13.771 -0.3708 -0.6084 -0.8425
 3384TIP3   OH231566   6.444   4.154  16.504 -0.4153 -0.0413  0.1448
 3384TIP3    H131567   6.447   4.066  16.466 -0.5738  0.1200 -0.2423
 3384TIP3    H231568   6.403   4.141  16.590 -1.0437 -0.2584 -0.1764
 3385TIP3   OH231569   1.383   3.598   4.344 -0.0808 -0.0778 -0.1829
 3385TIP3    H131570   1.422   3.534   4.403  0.2951 -0.2646 -0.6332
 3385TIP3    H231571   1.454   3.625   4.286 -0.2015  0.8629  0.0969
 3386TIP3   OH231572   1.625   0.351  16.013 -0.9294 -0.6860  0.1495
 3386TIP3    H131573   1.617   0.279  16.076 -0.1935  0.1223  1.1980
 3386TIP3    H231574   1.629   0.429  16.067 -0.8793  0.0794 -0.9483
 3387TIP3   OH231575   2.761   1.771  12.486  0.0948 -0.2191 -0.4386
 3387TIP3    H131576   2.713   1.799  12.408 -0.7447  0.2921  0.2420
 3387TIP3    H231577   2.740   1.678  12.495  0.0005 -0.2224 -0.6787
 3388TIP3   OH231578   2.880   2.185  16.823 -0.1275  0.5572  0.3218
 3388TIP3    H131579   2.903   2.172  16.731 -0.1362 -0.2006  0.4318
 3388TIP3    H231580   2.952   2.236  16.859  0.4437 -0.1448  0.1790
 3389TIP3   OH231581   4.143   2.771   4.206 -0.3693  0.0667 -0.0290
 3389TIP3    H131582   4.082   2.719   4.153  0.8985 -0.9647 -0.4812
 3389TIP3    H231583   4.223   2.719   4.209  0.8356  1.8598 -0.2596
 3390TIP3   OH231584   2.112   5.565   0.733 -0.3066  0.3097  0.1824
 3390TIP3    H131585   2.139   5.556   0.825  1.3910  1.8643 -0.1290
 3390TIP3    H231586   2.017   5.553   0.735 -0.1285 -1.1169  1.9325
 3391TIP3   OH231587   2.899   3.343  14.107  0.4771  0.3329  0.2836
 3391TIP3    H131588   2.982   3.388  14.124 -0.0233  0.5255  2.2351
 3391TIP3    H231589   2.926   3.259  14.069  1.4706  1.3160 -1.2725
 3392TIP3   OH231590   6.696   4.698  13.838 -0.1695  0.3574  0.0528
 3392TIP3    H131591   6.639   4.770  13.812 -2.1480 -0.9959  0.5619
 3392TIP3    H231592   6.670   4.625  13.782 -0.6375 -0.9767  1.9367
 3393TIP3   OH231593   6.024   2.246  12.495  0.4637  0.4986  0.1173
 3393TIP3    H131594   5.962   2.282  12.432  3.5217  2.7123 -1.7510
 3393TIP3    H231595   6.107   2.290  12.475  3.4399 -4.6175  0.4393
 3394TIP3   OH231596   1.429   5.771  11.324 -0.3729 -0.1428 -0.1141
 3394TIP3    H131597   1.337   5.763  11.352  0.0408  0.2136  1.4159
 3394TIP3    H231598   1.460   5.850  11.367  1.0043 -0.9386  0.3748
 3395TIP3   OH231599   5.524   6.686   5.790  0.4053 -0.4047 -0.0445
 3395TIP3    H131600   5.442   6.648   5.821  1.2988  0.3554  3.5335
 3395TIP3    H231601   5.502   6.777   5.770  0.5351  0.0580  1.8290
 3396TIP3   OH231602   5.084   2.280  13.633 -0.3477  0.5298  0.1361
 3396TIP3    H131603   5.015   2.345  13.616 -0.2198  0.6052 -0.1035
 3396TIP3    H231604   5.058   2.238  13.715  0.1408  1.6409  0.8671
 3397TIP3   OH231605   0.530   4.448  14.313  0.4880  0.2997  0.4298
 3397TIP3    H131606   0.510   4.517  14.250 -1.1996 -0.7700 -0.2251
 3397TIP3    H231607   0.516   4.489  14.399 -1.2062  0.5800  0.0276
 3398TIP3   OH231608   6.039   1.146   4.620  0.1993  0.1959  0.1297
 3398TIP3    H131609   6.115   1.091   4.639 -0.3477 -0.0417  1.6977
 3398TIP3    H231610   5.993   1.101   4.550  1.3924  0.2505 -0.7125
 3399TIP3   OH231611   2.431   3.872   0.509  0.4546 -0.5648 -0.0506
 3399TIP3    H131612   2.484   3.934   0.560 -1.1003  0.2906  0.5703
 3399TIP3    H231613   2.451   3.892   0.418  0.6440  0.2504  0.1680
 3400TIP3   OH231614   4.494   2.130   4.972 -0.3218  0.1991 -0.1800
 3400TIP3    H131615   4.463   2.054   5.022  0.1766 -0.8497 -1.4565
 3400TIP3    H231616   4.580   2.104   4.939 -0.9593  0.5996 -2.1958
 3401TIP3   OH231617   4.505   2.242  13.919  0.1469  0.7837  0.3962
 3401TIP3    H131618   4.531   2.317  13.865  0.7830  0.5418  0.3684
 3401TIP3    H231619   4.564   2.245  13.994  1.9104 -1.1939 -0.8571
 3402TIP3   OH231620   1.653   1.688   0.087 -0.0488  0.2389  0.7672
 3402TIP3    H131621   1.741   1.659   0.065 -0.5312  0.5300 -1.6236
 3402TIP3    H231622   1.611   1.610   0.125  0.8537 -0.2218  0.8330
 3403TIP3   OH231623   3.249   5.233  14.269  0.3865 -0.2738  0.8150
 3403TIP3    H131624   3.321   5.187  14.312 -0.6446 -1.5607  1.1868
 3403TIP3    H231625   3.170   5.197  14.309 -0.5647 -0.7516 -1.4175
 3404TIP3   OH231626   0.150   3.978  15.413  0.0941  0.2210  0.3086
 3404TIP3    H131627   0.059   4.004  15.425  0.4607  1.4109  0.5810
 3404TIP3    H231628   0.180   3.954  15.500  0.8061  2.4217  0.7072
 3405TIP3   OH231629   1.933   1.846  11.618  0.2770 -0.0737 -0.5896
 3405TIP3    H131630   1.900   1.925  11.576  0.6238  0.5981  0.3875
 3405TIP3    H231631   1.885   1.774  11.576 -1.9497  0.8301  0.3263
 3406TIP3   OH231632   5.867   2.576   0.104 -0.3306 -0.0582 -0.6862
 3406TIP3    H131633   5.775   2.596   0.123 -0.6899 -1.2138 -1.2045
 3406TIP3    H231634   5.869   2.563   0.009  0.6151  1.2023 -0.8609
 3407TIP3   OH231635   4.608   6.062  12.922  0.0962 -0.2831 -0.7688
 3407TIP3    H131636   4.556   6.013  12.858 -1.7546 -0.8143  1.0946
 3407TIP3    H231637   4.545   6.090  12.988  2.2819 -1.4117  1.8693
 3408TIP3   OH231638   5.977   1.824  13.544 -0.2354 -0.0525 -0.1524
 3408TIP3    H131639   5.965   1.824  13.449 -0.4355  0.0106 -0.1276
 3408TIP3    H231640   5.976   1.731  13.568 -2.7997  0.0280  0.1109
 3409TIP3   OH231641   6.262   2.624   1.480  0.3677  0.5357  0.1954
 3409TIP3    H131642   6.292   2.631   1.571 -2.8905 -0.6657  1.4652
 3409TIP3    H231643   6.262   2.714   1.447  2.0362  0.9241  1.2299
 3410TIP3   OH231644   4.708   3.188   4.588  0.6087 -0.3391  0.0517
 3410TIP3    H131645   4.693   3.198   4.494  2.1467 -1.0065 -0.2747
 3410TIP3    H231646   4.636   3.134   4.619  0.2513 -0.3386 -0.7878
 3411TIP3   OH231647   2.633   6.538  10.977 -0.4601  0.1865  0.4577
 3411TIP3    H131648   2.710   6.569  10.928 -0.3138  0.7897  1.0532
 3411TIP3    H231649   2.561   6.591  10.944 -0.5448 -0.0967  0.1876
 3412TIP3   OH231650   4.712   5.698  11.549  0.4694  0.0140 -0.2936
 3412TIP3    H131651   4.802   5.691  11.580  0.2405  0.9263  0.6134
 3412TIP3    H231652   4.674   5.768  11.602 -0.9246 -0.7147 -0.3042
 3413TIP3   OH231653   6.042   2.241  11.294 -0.2671  0.2704  0.2128
 3413TIP3    H131654   5.959   2.217  11.254  0.6579  0.8306 -2.0908
 3413TIP3    H231655   6.105   2.179  11.257  0.9751  2.1272 -0.8609
 3414TIP3   OH231656   4.145   2.004  16.779 -0.6560  0.4721 -0.4606
 3414TIP3    H131657   4.093   1.994  16.699 -1.8933 -0.5858  0.4508
 3414TIP3    H231658   4.113   1.935  16.837  1.7804 -0.1740  0.1506
 3415TIP3   OH231659   5.659   1.244   5.346  0.1810  0.3594  0.5691
 3415TIP3    H131660   5.580   1.196   5.372 -0.1422  0.6198  0.0899
 3415TIP3    H231661   5.710   1.181   5.296  0.0797  0.3081  0.5290
 3416TIP3   OH231662   0.140   3.745  15.249  0.7780  0.1436  0.0396
 3416TIP3    H131663   0.045   3.733  15.254  0.9157 -0.5472  1.1200
 3416TIP3    H231664   0.158   3.814  15.313  1.1959 -0.9154  1.0874
 3417TIP3   OH231665   2.911   5.135   3.845  0.1951  0.7626  0.1972
 3417TIP3    H131666   2.941   5.059   3.894  0.8647  1.4531  0.8657
 3417TIP3    H231667   2.816   5.130   3.849  0.2266 -0.3294 -0.2178
 3418TIP3   OH231668   4.258   4.906  14.906  0.3235  0.4020  0.5685
 3418TIP3    H131669   4.259   4.847  14.981 -0.7592 -0.4096 -0.0450
 3418TIP3    H231670   4.340   4.888  14.860  1.1279  1.1068  1.6944
 3419TIP3   OH231671   5.638   6.205  16.176  0.2989  1.1210 -0.1244
 3419TIP3    H131672   5.619   6.221  16.269  1.7161 -0.4048  0.4344
 3419TIP3    H231673   5.554   6.174  16.140  0.2740 -0.2887  1.1089
 3420TIP3   OH231674   3.578   1.938  17.156 -0.3853 -0.3985 -0.3838
 3420TIP3    H131675   3.591   1.845  17.135  1.6379 -0.1098 -0.4959
 3420TIP3    H231676   3.583   1.942  17.252 -0.5354 -0.4042 -0.3753
 3421TIP3   OH231677   6.042   3.819  14.255  0.0769 -0.0915  0.2973
 3421TIP3    H131678   6.066   3.740  14.207 -1.3183  0.5846 -1.5527
 3421TIP3    H231679   6.013   3.788  14.341 -2.7943 -1.8024 -1.2590
 3422TIP3   OH231680   5.080   5.022  17.041  0.0050  0.6235  0.3443
 3422TIP3    H131681   4.986   5.013  17.028  0.0032  1.0548  0.0530
 3422TIP3    H231682   5.115   4.933  17.031 -0.5470  0.2076  1.9322
 3423TIP3   OH231683   0.921   3.512   1.917 -0.0408  0.1078  0.3114
 3423TIP3    H131684   0.997   3.461   1.890 -0.2881 -1.2727  2.1571
 3423TIP3    H231685   0.950   3.558   1.996  0.1056  2.6936 -1.1804
 3424TIP3   OH231686   4.166   1.121   2.944  0.2746  0.8247  0.0768
 3424TIP3    H131687   4.085   1.072   2.928  0.4530 -0.0387  1.7929
 3424TIP3    H231688   4.166   1.137   3.038 -0.1581  4.7810 -0.5038
 3425TIP3   OH231689   3.148   0.630   1.529  0.0142 -0.0353  0.0544
 3425TIP3    H131690   3.222   0.689   1.515 -0.0709 -0.3537 -1.8243
 3425TIP3    H231691   3.168   0.553   1.476 -0.7522 -0.9425  1.0545
 3426TIP3   OH231692   5.785   3.869  11.076  0.6764 -0.4200  0.1757
 3426TIP3    H131693   5.733   3.815  11.135  0.7227 -0.2086  0.4099
 3426TIP3    H231694   5.756   3.843  10.988  0.5063 -0.6307  0.2933
 3427TIP3   OH231695   5.547   4.859   1.625  0.2024  0.3532 -0.0703
 3427TIP3    H131696   5.498   4.793   1.674 -1.5330  1.7742  0.1470
 3427TIP3    H231697   5.629   4.868   1.672  1.2072 -2.9099 -1.1010
 3428TIP3   OH231698   1.979   4.431  14.724 -0.7391 -0.8898  0.1634
 3428TIP3    H131699   2.026   4.508  14.753 -0.4774 -1.0243  0.1026
 3428TIP3    H231700   2.047   4.372  14.692 -0.8482 -1.5428  1.1083
 3429TIP3   OH231701   3.737   4.673  14.809 -0.4834  0.0792  0.2258
 3429TIP3    H131702   3.748   4.724  14.889  0.4471  0.1343  0.0724
 3429TIP3    H231703   3.825   4.641  14.789 -0.5484  0.7765 -1.2376
 3430TIP3   OH231704   6.328   0.094   1.254  0.1719 -0.2020 -0.2690
 3430TIP3    H131705   6.235   0.095   1.231  0.3078 -0.9536 -0.9129
 3430TIP3    H231706   6.329   0.087   1.349 -0.4169  1.9583 -0.0874
 3431TIP3   OH231707   5.477   2.420   1.268  0.0738 -0.0202  0.0766
 3431TIP3    H131708   5.555   2.373   1.238  0.0563 -0.3205  0.4919
 3431TIP3    H231709   5.494   2.512   1.244  0.4154 -0.1310 -0.1144
 3432TIP3   OH231710   2.294   0.403   5.440 -0.6666 -0.5771 -0.0876
 3432TIP3    H131711   2.389   0.401   5.442 -0.6386  0.2882 -0.1068
 3432TIP3    H231712   2.272   0.404   5.346 -0.7056 -1.0804 -0.0843
 3433TIP3   OH231713   3.298   6.428  14.284  0.1413  0.2924  0.1741
 3433TIP3    H131714   3.389   6.453  14.269  0.5008 -1.2928 -0.3588
 3433TIP3    H231715   3.295   6.335  14.262 -1.2595 -0.0339  1.6694
 3434TIP3   OH231716   3.712   5.370  15.510 -0.6131  0.1520 -0.1235
 3434TIP3    H131717   3.648   5.411  15.452 -1.0334  0.3374  0.4739
 3434TIP3    H231718   3.677   5.382  15.598 -0.8187 -1.5789  0.0600
 3435TIP3   OH231719   4.571   5.835   0.693  0.1462 -0.0678  0.6103
 3435TIP3    H131720   4.488   5.814   0.650  0.1624  1.2638 -0.0997
 3435TIP3    H231721   4.619   5.752   0.693 -1.5183 -1.0466  1.8199
 3436TIP3   OH231722   1.669   6.200   0.084 -0.6537 -0.8422 -0.6427
 3436TIP3    H131723   1.699   6.290   0.070 -1.8385 -0.6385 -1.9700
 3436TIP3    H231724   1.731   6.164   0.149 -0.5769  1.1257  0.4203
 3437TIP3   OH231725   3.633   6.742   5.150 -0.0592 -0.0134  0.0976
 3437TIP3    H131726   3.691   6.738   5.226 -0.0930 -1.4810  0.0691
 3437TIP3    H231727   3.578   6.664   5.158 -0.0826 -0.1697 -1.4058
 3438TIP3   OH231728   0.974   2.568  15.162  0.5616  0.3965 -0.1439
 3438TIP3    H131729   0.886   2.551  15.129  0.6049  2.3610 -1.3959
 3438TIP3    H231730   0.960   2.619  15.242  0.5532  2.8543 -1.6603
 3439TIP3   OH231731   3.691   2.758   4.504  0.2758  0.0963  0.0052
 3439TIP3    H131732   3.739   2.675   4.504 -1.1916 -0.7757 -0.8412
 3439TIP3    H231733   3.737   2.813   4.440  1.1599 -0.1162  0.4570
 3440TIP3   OH231734   2.761   6.691   1.422 -0.2565  0.0917 -0.7905
 3440TIP3    H131735   2.715   6.764   1.381  3.7131  2.4869 -1.2160
 3440TIP3    H231736   2.784   6.723   1.509  0.9554 -0.8988 -0.7392
 3441TIP3   OH231737   2.693   1.432   1.345  0.7350  0.1957 -0.5915
 3441TIP3    H131738   2.700   1.338   1.360 -0.3373  0.2973  0.5974
 3441TIP3    H231739   2.779   1.457   1.310  1.2570 -1.0933 -0.2615
 3442TIP3   OH231740   3.491   0.091   1.863  0.0561  0.1964 -0.2893
 3442TIP3    H131741   3.565   0.029   1.863 -1.3014 -1.5155  2.8401
 3442TIP3    H231742   3.494   0.132   1.949 -1.7777  1.1857 -0.6929
 3443TIP3   OH231743   2.243   1.520  15.010 -0.0320  1.0692  0.2219
 3443TIP3    H131744   2.217   1.579  15.081  0.6890  1.4376  0.1880
 3443TIP3    H231745   2.291   1.576  14.950  0.2622  0.5328 -0.0414
 3444TIP3   OH231746   2.637   2.828   6.314 -0.5082 -0.0545  0.2894
 3444TIP3    H131747   2.573   2.836   6.242  0.2439  1.0056 -0.2859
 3444TIP3    H231748   2.698   2.901   6.299  0.0265 -0.2202  1.6409
 3445TIP3   OH231749   2.293   2.186  14.189 -0.1492  0.3494 -0.6597
 3445TIP3    H131750   2.343   2.112  14.155 -1.7069 -0.5253 -1.1100
 3445TIP3    H231751   2.264   2.158  14.275 -0.3013  0.6480 -0.6136
 3446TIP3   OH231752   5.302   3.305   5.175 -0.2047  0.6209  0.0514
 3446TIP3    H131753   5.328   3.213   5.169  0.7965  0.8997  0.1293
 3446TIP3    H231754   5.355   3.340   5.246 -0.1855  1.4018 -0.3465
 3447TIP3   OH231755   2.643   5.755   3.504  0.1601 -0.0915  0.0084
 3447TIP3    H131756   2.627   5.816   3.576  1.8821  0.1454  0.2183
 3447TIP3    H231757   2.647   5.810   3.426  1.4196  0.0495  0.1593
 3448TIP3   OH231758   4.406   4.411  15.579 -0.8332 -0.2783 -0.0528
 3448TIP3    H131759   4.501   4.407  15.586 -0.8490  1.1053  1.2029
 3448TIP3    H231760   4.380   4.321  15.559  0.7632 -0.5745 -0.8465
 3449TIP3   OH231761   0.882   1.509  15.251 -0.3041  0.1238  0.1578
 3449TIP3    H131762   0.851   1.599  15.261  1.4118  0.5369  2.3022
 3449TIP3    H231763   0.887   1.475  15.341  0.4229 -1.6154 -0.5138
 3450TIP3   OH231764   0.672   0.182  15.741 -0.1040  0.1360 -0.2240
 3450TIP3    H131765   0.721   0.177  15.659 -0.8519 -1.5137 -0.5918
 3450TIP3    H231766   0.737   0.209  15.806  0.4639  1.5680 -1.3752
 3451TIP3   OH231767   3.346   3.889   5.771 -0.8241  0.1673  0.4926
 3451TIP3    H131768   3.312   3.952   5.835  2.2181 -0.6090  3.0191
 3451TIP3    H231769   3.348   3.806   5.819  0.1468 -0.7304 -1.0856
 3452TIP3   OH231770   1.059   1.043   2.321  0.3283 -0.2476  0.4092
 3452TIP3    H131771   1.039   1.001   2.405  1.6298  0.0715  0.8880
 3452TIP3    H231772   1.146   1.082   2.333  0.4748 -0.0854 -1.0431
 3453TIP3   OH231773   0.890   1.029   3.271 -0.0837  0.0637 -0.4087
 3453TIP3    H131774   0.838   0.949   3.272 -0.9209  0.5910 -0.9064
 3453TIP3    H231775   0.883   1.062   3.181  0.7522  0.3792 -0.3695
 3454TIP3   OH231776   5.940   5.491  10.664  0.1315  0.0517 -0.2778
 3454TIP3    H131777   5.891   5.454  10.591 -0.0859 -3.1324  1.4015
 3454TIP3    H231778   5.938   5.586  10.649 -0.0706 -0.5025 -4.2479
 3455TIP3   OH231779   3.893   6.084  16.854 -0.1175 -0.9463  0.1767
 3455TIP3    H131780   3.951   6.022  16.898  2.5784  0.9492 -0.6012
 3455TIP3    H231781   3.901   6.063  16.761 -0.5347 -0.5486  0.0499
 3456TIP3   OH231782   1.956   3.971  16.888  0.2829 -0.5459 -0.2552
 3456TIP3    H131783   1.998   4.026  16.953  2.6219 -1.6824 -0.7414
 3456TIP3    H231784   1.966   4.020  16.806  0.7597 -0.8624 -0.3856
 3457TIP3   OH231785   2.944   5.591  12.383 -0.2081  0.2141 -0.3636
 3457TIP3    H131786   2.922   5.519  12.324 -1.6561  0.2333  0.1304
 3457TIP3    H231787   2.990   5.549  12.456 -1.1941 -0.2338  0.0016
 3458TIP3   OH231788   0.645   2.529   3.308  0.0485  0.1190 -0.0783
 3458TIP3    H131789   0.634   2.457   3.371  0.4822  0.4728  0.4082
 3458TIP3    H231790   0.557   2.564   3.297 -0.0909 -0.1848  0.0516
 3459TIP3   OH231791   4.295   5.853   0.086  0.1823  0.0142  1.0500
 3459TIP3    H131792   4.252   5.935   0.112  0.2390 -0.6809  3.4278
 3459TIP3    H231793   4.276   5.793   0.158  2.2688 -1.3158  0.5006
 3460TIP3   OH231794   4.319   5.621   0.229 -0.1996 -0.1116 -0.2949
 3460TIP3    H131795   4.401   5.616   0.278 -0.0987 -0.7852 -0.5159
 3460TIP3    H231796   4.318   5.540   0.177 -0.9049 -0.0087 -0.4453
 3461TIP3   OH231797   0.375   6.280  11.707 -0.0851 -0.0224 -0.4635
 3461TIP3    H131798   0.394   6.299  11.799  0.7942  0.0084 -0.6508
 3461TIP3    H231799   0.359   6.365  11.668  2.2167  0.2050 -0.9354
 3462TIP3   OH231800   3.578   5.417  13.738  0.0607  0.2883 -0.1505
 3462TIP3    H131801   3.673   5.404  13.743  0.2226  1.3926 -0.2178
 3462TIP3    H231802   3.567   5.512  13.743 -1.0925  0.1200  0.6829
 3463TIP3   OH231803   4.710   3.057   2.443  0.4995 -0.1254 -1.2136
 3463TIP3    H131804   4.617   3.035   2.450  0.5595 -0.2186 -0.7200
 3463TIP3    H231805   4.717   3.145   2.481  0.6868 -0.2955 -0.8559
 3464TIP3   OH231806   5.183   1.981   2.047  0.1866  0.2676 -0.0523
 3464TIP3    H131807   5.272   2.015   2.036  0.5988 -0.6645  0.3408
 3464TIP3    H231808   5.188   1.926   2.126 -0.8004  0.4196  0.1244
 3465TIP3   OH231809   5.332   3.233  12.265  0.0267  0.1015 -0.2269
 3465TIP3    H131810   5.376   3.150  12.243  0.8549 -0.0707  1.9233
 3465TIP3    H231811   5.239   3.213  12.256  0.2352 -0.9142 -0.2718
 3466TIP3   OH231812   5.824   1.398   5.212 -0.4834  0.0603  0.7376
 3466TIP3    H131813   5.745   1.379   5.262 -1.0330  0.1860 -0.0617
 3466TIP3    H231814   5.880   1.321   5.224 -0.6049  0.0947  1.5387
 3467TIP3   OH231815   4.885   3.091   3.261  0.1874  0.2577 -0.0022
 3467TIP3    H131816   4.899   3.158   3.328 -1.5155 -0.6005  1.2430
 3467TIP3    H231817   4.948   3.022   3.284  0.6088  0.5816 -0.1625
 3468TIP3   OH231818   3.015   3.824   2.425 -0.1766  0.3227  0.2819
 3468TIP3    H131819   2.959   3.755   2.461 -1.0454  0.4158 -0.8473
 3468TIP3    H231820   3.001   3.899   2.483 -1.1829  0.3249  0.0452
 3469TIP3   OH231821   6.111   5.077   5.370  0.1300  0.4876  0.4930
 3469TIP3    H131822   6.184   5.031   5.409  0.1908 -0.1017 -0.2982
 3469TIP3    H231823   6.034   5.047   5.419  0.0905 -0.9205 -0.3949
 3470TIP3   OH231824   3.612   4.735  16.575 -0.1097  0.3215  0.3284
 3470TIP3    H131825   3.540   4.673  16.588  0.7595 -1.2547 -1.9606
 3470TIP3    H231826   3.611   4.754  16.481  2.0479  0.7411  0.3494
 3471TIP3   OH231827   1.670   1.923   0.203  0.4137  0.0151  0.5938
 3471TIP3    H131828   1.649   1.842   0.158  1.0025  1.1129 -1.7375
 3471TIP3    H231829   1.749   1.904   0.253 -0.6832 -1.4293  1.8434
 3472TIP3   OH231830   4.070   3.328  14.771 -0.1548  0.3010  0.3090
 3472TIP3    H131831   4.086   3.233  14.775  2.2491  0.6405 -0.3272
 3472TIP3    H231832   4.147   3.363  14.726 -1.8983  2.3717 -1.1271
 3473TIP3   OH231833   2.563   2.636   4.260  0.5497  0.0264 -0.0402
 3473TIP3    H131834   2.563   2.631   4.164 -0.4288 -0.6181 -0.0157
 3473TIP3    H231835   2.497   2.701   4.280  0.5426 -0.0594  0.2075
 3474TIP3   OH231836   4.989   4.783   2.026 -0.1952 -0.0930  0.6193
 3474TIP3    H131837   4.923   4.801   1.959  0.5402 -0.5341 -0.2172
 3474TIP3    H231838   4.995   4.865   2.076 -0.5909  0.2994  0.0261
 3475TIP3   OH231839   2.507   2.093   1.748 -0.9621  0.1617 -0.2026
 3475TIP3    H131840   2.462   2.016   1.712 -0.8141 -0.9435  1.8690
 3475TIP3    H231841   2.575   2.056   1.804 -0.8339  1.8063  0.7539
 3476TIP3   OH231842   6.670   3.818   2.943 -0.6986 -0.0073  0.8174
 3476TIP3    H131843   6.656   3.816   3.038 -0.0768 -3.0466  0.9023
 3476TIP3    H231844   6.740   3.755   2.928 -2.0154 -0.8993 -1.8461
 3477TIP3   OH231845   5.389   5.948  16.285  0.6865 -0.2407 -0.1137
 3477TIP3    H131846   5.479   5.916  16.273  0.6686  0.1578 -1.3902
 3477TIP3    H231847   5.399   6.035  16.323  0.7490 -1.4861  2.8437
 3478TIP3   OH231848   6.436   0.981   4.920  0.1849 -0.2324 -0.1615
 3478TIP3    H131849   6.407   0.906   4.971 -2.3648  0.4921 -0.4618
 3478TIP3    H231850   6.444   1.052   4.983  2.8904 -0.7712  0.1747
 3479TIP3   OH231851   2.504   5.191  14.824  0.8084 -0.1800  0.2825
 3479TIP3    H131852   2.595   5.199  14.852  1.1129 -0.9829 -0.4637
 3479TIP3    H231853   2.502   5.234  14.738  0.6328 -0.7657 -0.0057
 3480TIP3   OH231854   6.001   3.280   1.210  0.6955  0.1914  0.0964
 3480TIP3    H131855   5.962   3.246   1.130  0.5882  0.7677 -0.1013
 3480TIP3    H231856   5.932   3.270   1.276  1.3975 -1.9520  0.5542
 3481TIP3   OH231857   0.027   1.582  10.960  0.4618 -0.0382  0.1351
 3481TIP3    H131858   0.020   1.665  10.913 -1.4749 -1.3400 -1.9812
 3481TIP3    H231859   0.088   1.530  10.907  1.4366 -0.1146  1.2914
 3482TIP3   OH231860   3.498   1.157  15.994 -0.5067  0.4348  0.7211
 3482TIP3    H131861   3.546   1.175  15.913  0.1186  0.5577  1.1173
 3482TIP3    H231862   3.490   1.243  16.036 -2.0844  0.5988  0.1034
 3483TIP3   OH231863   5.641   6.539   5.609  0.3830 -0.0592  0.7695
 3483TIP3    H131864   5.598   6.455   5.625  0.0692  0.1187  0.8609
 3483TIP3    H231865   5.603   6.598   5.675  0.5218  0.1817  0.6324
 3484TIP3   OH231866   5.240   3.254  14.815 -0.3790  0.6421 -0.1618
 3484TIP3    H131867   5.263   3.209  14.897  1.6204 -1.6006 -1.8777
 3484TIP3    H231868   5.155   3.218  14.791 -1.1394  1.5626  1.0629
 3485TIP3   OH231869   2.094   0.041  16.763  0.2151  0.6138 -0.1121
 3485TIP3    H131870   2.009   0.084  16.754  0.3251  0.8872  0.1328
 3485TIP3    H231871   2.086  -0.008  16.845 -0.4273 -1.0363 -1.1501
 3486TIP3   OH231872   5.598   6.708   4.681  0.4715 -0.1410  0.0956
 3486TIP3    H131873   5.577   6.672   4.767 -0.2438  1.5064  0.6185
 3486TIP3    H231874   5.536   6.780   4.669  2.6815  1.7256 -0.4122
 3487TIP3   OH231875   0.842   2.119  14.521  0.1315  0.2565  0.1871
 3487TIP3    H131876   0.904   2.165  14.464  1.1388 -0.9593  0.2693
 3487TIP3    H231877   0.784   2.188  14.554  1.8349  1.5325  0.6127
 3488TIP3   OH231878   3.064   3.376   6.947 -0.5564 -0.0880 -0.4069
 3488TIP3    H131879   3.058   3.356   6.854  3.2378 -1.1101 -0.5451
 3488TIP3    H231880   3.056   3.290   6.990  2.0529 -0.2501 -0.1355
 3489TIP3   OH231881   0.378   0.173  10.951  0.2507  0.0413  0.3609
 3489TIP3    H131882   0.408   0.097  10.902 -0.4766 -1.0339  1.5556
 3489TIP3    H231883   0.295   0.197  10.910  1.3614  1.3429 -1.1935
 3490TIP3   OH231884   4.343   6.342  12.211  0.5494 -0.0970  0.0369
 3490TIP3    H131885   4.392   6.377  12.286  0.8147  1.0869 -0.6703
 3490TIP3    H231886   4.379   6.389  12.136 -1.5167  0.6223 -0.5167
 3491TIP3   OH231887   3.742   3.141  11.265  0.5135 -0.5640 -0.2037
 3491TIP3    H131888   3.732   3.046  11.257  0.2654 -0.7417  1.8779
 3491TIP3    H231889   3.777   3.154  11.353 -1.8524  1.4497  0.5069
 3492TIP3   OH231890   4.879   5.539   3.409  0.4195  0.5123 -0.0619
 3492TIP3    H131891   4.786   5.546   3.389  0.6500  2.7436 -0.4197
 3492TIP3    H231892   4.897   5.445   3.407 -1.9599  0.0200  0.7154
 3493TIP3   OH231893   5.821   5.506  13.399 -0.3035 -0.3436  0.1924
 3493TIP3    H131894   5.884   5.577  13.412 -0.9765  0.4378 -0.7109
 3493TIP3    H231895   5.872   5.434  13.365  0.1156  0.2785 -0.5156
 3494TIP3   OH231896   0.988   0.085   1.686  0.0893 -0.2170 -0.2931
 3494TIP3    H131897   0.976   0.135   1.605  2.4868 -0.0173 -0.5507
 3494TIP3    H231898   0.923   0.121   1.745 -1.8341 -0.4943 -2.1695
 3495TIP3   OH231899   4.630   2.492  16.402  0.1430  0.7401  0.0544
 3495TIP3    H131900   4.710   2.480  16.453  1.1698  1.3305 -1.3802
 3495TIP3    H231901   4.617   2.409  16.357 -1.7199 -0.3800  2.5483
 3496TIP3   OH231902   2.058   4.128   5.856  0.3192 -0.7880 -0.0156
 3496TIP3    H131903   2.023   4.085   5.934  0.2345  1.1335  1.0146
 3496TIP3    H231904   2.152   4.139   5.875  0.4165 -0.8813 -0.4421
 3497TIP3   OH231905   2.037   3.172   0.211 -0.1151  0.1123 -0.4441
 3497TIP3    H131906   2.129   3.145   0.202 -0.3643 -1.2708  0.9067
 3497TIP3    H231907   1.987   3.091   0.200 -0.9888  0.3255  1.7219
 3498TIP3   OH231908   2.057   0.927   4.558  0.0317  0.2064  0.0437
 3498TIP3    H131909   2.135   0.947   4.506 -0.3539 -0.6969 -0.8994
 3498TIP3    H231910   1.983   0.950   4.502 -0.3944  1.0205  0.9195
 3499TIP3   OH231911   3.261   3.385   4.543 -0.4581  0.1648 -0.3117
 3499TIP3    H131912   3.352   3.361   4.561 -0.1347  1.4740 -0.1265
 3499TIP3    H231913   3.214   3.358   4.623 -0.2615 -0.5962 -0.4445
 3500TIP3   OH231914   5.295   1.704   4.893  0.6011  0.0823 -0.0503
 3500TIP3    H131915   5.358   1.642   4.857  0.3012  0.7332 -1.7650
 3500TIP3    H231916   5.210   1.660   4.885  0.5881  0.0431  0.2982
 3501TIP3   OH231917   1.761   4.137   0.487 -0.1482 -0.4984  0.4057
 3501TIP3    H131918   1.826   4.077   0.524 -1.2497 -1.5028  0.7436
 3501TIP3    H231919   1.762   4.118   0.393 -0.1762 -0.7354  0.4523
 3502TIP3   OH231920   4.167   2.635   4.991 -0.2086 -0.2574  0.0068
 3502TIP3    H131921   4.156   2.707   5.052  1.2832 -0.0997  0.1105
 3502TIP3    H231922   4.127   2.560   5.034  2.0917 -0.4851  1.8291
 3503TIP3   OH231923   3.190   6.004   0.790  0.2024 -0.5484 -0.0104
 3503TIP3    H131924   3.240   5.931   0.754  1.3571 -0.0486  0.5761
 3503TIP3    H231925   3.098   5.980   0.775  0.6445 -0.3901 -3.2186
 3504TIP3   OH231926   2.661   3.059  11.895 -0.2711 -0.0821  0.1969
 3504TIP3    H131927   2.586   3.119  11.895 -0.4141 -0.2504 -0.7311
 3504TIP3    H231928   2.649   3.006  11.816  0.5312 -0.4844  0.3403
 3505TIP3   OH231929   0.781   0.750   4.300  0.0256 -0.1934 -0.4001
 3505TIP3    H131930   0.858   0.784   4.346  0.8380 -0.6698 -1.4005
 3505TIP3    H231931   0.709   0.806   4.329  0.3063 -1.1658  2.3215
 3506TIP3   OH231932   2.870   0.222  11.134 -0.2142  0.0435 -0.2365
 3506TIP3    H131933   2.884   0.177  11.050  0.4932  0.5441 -0.3913
 3506TIP3    H231934   2.779   0.201  11.157 -0.2842 -0.4417 -0.9196
 3507TIP3   OH231935   6.177   4.029   0.651  0.1033  0.6161  0.2069
 3507TIP3    H131936   6.273   4.036   0.653  0.0628  1.2829 -0.0813
 3507TIP3    H231937   6.160   3.948   0.602  0.5156  0.6993 -0.0767
 3508TIP3   OH231938   2.322   6.416   3.164  0.0253 -0.4739 -0.0511
 3508TIP3    H131939   2.266   6.492   3.181  0.2161 -0.1504 -0.8507
 3508TIP3    H231940   2.260   6.346   3.144 -0.1100 -0.0050 -1.3847
 3509TIP3   OH231941   1.601   4.459   2.019  0.3324 -0.3778 -0.0088
 3509TIP3    H131942   1.600   4.394   1.949  1.1949 -0.4630  0.0483
 3509TIP3    H231943   1.637   4.413   2.095  1.7951  0.3716 -0.2102
 3510TIP3   OH231944   5.809   4.816  14.873  0.6243  0.7629 -0.4417
 3510TIP3    H131945   5.807   4.862  14.957 -0.9220  0.8371 -0.5141
 3510TIP3    H231946   5.888   4.850  14.829  2.4034 -0.5099  1.6456
 3511TIP3   OH231947   3.843   2.671   5.040  0.1597  0.3418 -0.2694
 3511TIP3    H131948   3.763   2.644   5.084  0.8121  1.9202  1.9653
 3511TIP3    H231949   3.826   2.655   4.947 -2.8360  0.9656  0.1362
 3512TIP3   OH231950   2.371   5.987   4.759 -0.4600  0.5517 -0.5087
 3512TIP3    H131951   2.333   5.901   4.776 -0.0745  0.2689 -1.1106
 3512TIP3    H231952   2.296   6.047   4.763 -0.9866 -0.0096 -1.7339
 3513TIP3   OH231953   3.876   2.012   6.576 -0.1915 -0.1725  0.0285
 3513TIP3    H131954   3.934   2.069   6.627 -2.9457  0.9413  2.0919
 3513TIP3    H231955   3.888   1.925   6.614 -1.6679  0.5144  2.1758
 3514TIP3   OH231956   2.811   4.408   1.217 -0.3965 -0.2707 -0.3389
 3514TIP3    H131957   2.869   4.456   1.157 -2.2939  1.7398 -0.6517
 3514TIP3    H231958   2.842   4.431   1.304  1.2791 -1.8126 -0.4940
 3515TIP3   OH231959   1.804   5.272   5.842  0.4486  0.2580  0.0337
 3515TIP3    H131960   1.882   5.216   5.845 -0.3829 -0.8487  1.2907
 3515TIP3    H231961   1.736   5.217   5.803 -0.8447 -0.2294  2.8465
 3516TIP3   OH231962   1.498   5.017   4.305  0.0460 -0.1300 -0.6470
 3516TIP3    H131963   1.473   5.074   4.378  2.3626 -0.8723  0.8090
 3516TIP3    H231964   1.438   4.943   4.311 -1.0077  0.7219 -0.6637
 3517TIP3   OH231965   3.268   2.318  15.770  0.1915  0.1846 -0.0435
 3517TIP3    H131966   3.318   2.245  15.733  0.8016  1.2609 -1.4183
 3517TIP3    H231967   3.188   2.322  15.717 -1.4425 -1.5656  2.1841
 3518TIP3   OH231968   4.776   1.945  13.146  0.1164  0.2209  0.4789
 3518TIP3    H131969   4.829   1.872  13.113  0.5908  0.7063  0.1551
 3518TIP3    H231970   4.741   1.987  13.067  0.7707  1.0261  0.6125
 3519TIP3   OH231971   3.341   2.061  13.470  0.4727 -0.1990 -0.5192
 3519TIP3    H131972   3.418   2.108  13.437  2.2880 -2.0425  0.9207
 3519TIP3    H231973   3.310   2.114  13.544  1.0459 -0.0254 -0.3996
 3520TIP3   OH231974   0.619   2.665  11.510  0.2046  0.5129  0.1351
 3520TIP3    H131975   0.711   2.665  11.537 -0.1809 -0.3366  1.4776
 3520TIP3    H231976   0.570   2.650  11.591 -1.2179  2.5920 -0.2823
 3521TIP3   OH231977   3.765   3.624   4.604 -0.0171  0.2618  0.0592
 3521TIP3    H131978   3.677   3.619   4.566  0.3959 -1.0434 -0.7504
 3521TIP3    H231979   3.750   3.620   4.699 -0.7197 -1.8087 -0.1216
 3522TIP3   OH231980   0.283   5.462  12.098  0.1284 -0.3254 -0.3811
 3522TIP3    H131981   0.304   5.415  12.018  1.4234 -1.2515  0.4735
 3522TIP3    H231982   0.243   5.397  12.155  1.6785 -0.3612  0.7077
 3523TIP3   OH231983   6.721   2.330  11.378 -0.0088  0.1458  0.0365
 3523TIP3    H131984   6.633   2.323  11.416 -0.4276  2.4460 -0.4446
 3523TIP3    H231985   6.778   2.285  11.441 -1.3475 -0.2062  1.0137
 3524TIP3   OH231986   0.932   0.689   0.702 -0.1880  0.1471 -0.0038
 3524TIP3    H131987   1.013   0.641   0.719 -0.8126 -1.0364 -0.3150
 3524TIP3    H231988   0.922   0.687   0.607 -1.8793 -1.9075  0.1976
 3525TIP3   OH231989   4.126   6.420   5.706 -0.2760  0.5340 -0.2821
 3525TIP3    H131990   4.073   6.341   5.693  2.7213 -1.3045 -2.0674
 3525TIP3    H231991   4.144   6.422   5.800  0.6023 -1.6331 -0.3722
 3526TIP3   OH231992   4.006   2.685  12.560  0.0562  0.4494 -0.5354
 3526TIP3    H131993   4.025   2.707  12.468 -1.8229  3.5664 -0.2431
 3526TIP3    H231994   3.985   2.592  12.558  1.5669  0.0967 -3.0232
 3527TIP3   OH231995   2.866   1.595  14.891 -0.4109  0.1764 -0.4104
 3527TIP3    H131996   2.825   1.523  14.845  0.4377 -0.0788 -0.7833
 3527TIP3    H231997   2.942   1.618  14.837  0.2102  0.3195  0.5036
 3528TIP3   OH231998   5.312   6.050  12.009  0.4260 -0.0834  0.4281
 3528TIP3    H131999   5.281   5.960  12.000 -1.7299  0.7132 -0.4210
 3528TIP3    H232000   5.274   6.080  12.091  0.9541  0.1330  0.5951
 3529TIP3   OH232001   2.267   1.594  17.170  0.2931  0.6108  0.0578
 3529TIP3    H132002   2.308   1.558  17.249  3.9265 -0.6413 -2.3056
 3529TIP3    H232003   2.188   1.540  17.159  1.1627 -0.9778  1.3140
 3530TIP3   OH232004   0.239   0.051   5.334  0.2374  0.1635  0.3781
 3530TIP3    H132005   0.146   0.072   5.326 -0.6664 -3.5336  0.2081
 3530TIP3    H232006   0.241  -0.031   5.383  3.2955 -0.6245 -0.9180
 3531TIP3   OH232007   0.757   5.076   1.628  0.2574 -0.3650  0.5024
 3531TIP3    H132008   0.845   5.057   1.658 -0.0197 -2.8450 -0.1571
 3531TIP3    H232009   0.701   5.052   1.702 -0.0109 -0.8138  0.1533
 3532TIP3   OH232010   5.061   1.955   1.313  0.3509  0.3215 -0.3883
 3532TIP3    H132011   5.087   2.044   1.289  0.5893 -0.2168 -2.2489
 3532TIP3    H232012   5.141   1.903   1.301  0.0723 -0.2280  0.1478
 3533TIP3   OH232013   2.254   2.966   3.507 -0.2053  0.3978  0.2541
 3533TIP3    H132014   2.344   2.935   3.499  0.4035  2.0857  0.2107
 3533TIP3    H232015   2.231   2.996   3.419 -0.7912  0.0191  0.2781
 3534TIP3   OH232016   6.414   5.754   0.519 -0.5294  0.5672  0.5723
 3534TIP3    H132017   6.404   5.747   0.614 -1.1592  1.3845  0.5656
 3534TIP3    H232018   6.418   5.663   0.488  1.0714  0.2960  1.5183
 3535TIP3   OH232019   2.084   1.533  14.587 -0.2856  0.8584  0.0136
 3535TIP3    H132020   2.143   1.508  14.516 -1.9987  2.2536 -1.9671
 3535TIP3    H232021   2.130   1.508  14.667  2.1146  0.1416 -1.5523
 3536TIP3   OH232022   0.629   6.753  11.067  0.5160  0.6409 -0.7694
 3536TIP3    H132023   0.642   6.681  11.006 -1.2252  0.7087 -1.2619
 3536TIP3    H232024   0.557   6.804  11.029  2.0032  2.8759 -0.6453
 3537TIP3   OH232025   3.912   0.174   0.674  0.1525 -0.6215 -0.5380
 3537TIP3    H132026   3.907   0.254   0.621 -0.2629 -0.0882  0.2903
 3537TIP3    H232027   4.000   0.140   0.656  0.4611  0.2019 -0.6477
 3538TIP3   OH232028   0.538   1.945  16.488 -0.7274  0.7036  0.5413
 3538TIP3    H132029   0.493   1.933  16.404  2.1670 -2.1524 -0.7109
 3538TIP3    H232030   0.552   2.040  16.494 -0.0621  0.8859 -2.7678
 3539TIP3   OH232031   4.622   2.866  16.278 -0.1625  0.3121 -0.1321
 3539TIP3    H132032   4.662   2.950  16.300 -1.7616  0.4543  2.5849
 3539TIP3    H232033   4.543   2.889  16.228 -0.2008  0.4017 -0.0300
 3540TIP3   OH232034   0.464   1.408   1.069  0.0586  0.6110  0.3227
 3540TIP3    H132035   0.494   1.497   1.089 -1.4244  1.2854 -0.3604
 3540TIP3    H232036   0.430   1.413   0.980 -1.8058 -0.1621  0.9514
 3541TIP3   OH232037   4.970   5.045  11.056 -0.3244  0.3088  0.0479
 3541TIP3    H132038   5.060   5.025  11.030 -0.6291 -1.7217  0.4660
 3541TIP3    H232039   4.980   5.095  11.138  0.4847  2.9780 -1.6054
 3542TIP3   OH232040   3.184   4.890   2.936  0.1249 -0.0306 -0.0130
 3542TIP3    H132041   3.266   4.896   2.984  1.3385  0.4706 -2.0945
 3542TIP3    H232042   3.154   4.981   2.929  0.6232  0.0516 -1.2897
 3543TIP3   OH232043   4.569   1.415   5.107  0.5633 -0.6960  0.2165
 3543TIP3    H132044   4.602   1.450   5.190 -1.8684  1.3242  0.4048
 3543TIP3    H232045   4.607   1.472   5.040 -1.2152  0.6551  0.3227
 3544TIP3   OH232046   0.658   4.478  16.422 -0.3343 -0.1113 -0.1132
 3544TIP3    H132047   0.685   4.387  16.437  0.0191  0.1670  0.9435
 3544TIP3    H232048   0.565   4.471  16.398 -0.0069 -0.8422 -1.1994
 3545TIP3   OH232049   5.033   4.025  15.742  0.1884 -0.4191 -0.2340
 3545TIP3    H132050   5.002   4.114  15.723  0.0218 -0.4477 -0.0892
 3545TIP3    H232051   5.127   4.028  15.722 -0.3048 -0.9406 -2.8958
 3546TIP3   OH232052   0.572   1.787  15.495 -0.1417  0.4672 -0.3567
 3546TIP3    H132053   0.665   1.791  15.516 -0.2118  3.2576 -0.3694
 3546TIP3    H232054   0.528   1.797  15.580 -0.4215  0.9622 -0.5562
 3547TIP3   OH232055   6.674   1.250   2.818 -0.2417  0.5567 -0.0386
 3547TIP3    H132056   6.727   1.259   2.740 -2.4240  1.9325 -1.4232
 3547TIP3    H232057   6.698   1.325   2.873  0.1437  0.4778 -0.1013
 3548TIP3   OH232058   5.110   6.304   0.068 -0.0423 -0.4097 -0.3122
 3548TIP3    H132059   5.183   6.264   0.022 -0.4415  0.2489 -1.5180
 3548TIP3    H232060   5.047   6.328  -0.000 -0.4967  0.8647  0.5151
 3549TIP3   OH232061   0.619   2.721  16.818  0.2537  0.6122  0.2328
 3549TIP3    H132062   0.702   2.728  16.771  1.4090  1.4841  2.2918
 3549TIP3    H232063   0.563   2.787  16.778  0.0919 -0.8708 -2.0390
 3550TIP3   OH232064   0.622   5.984   5.842  0.1047  0.0448  0.2634
 3550TIP3    H132065   0.656   5.990   5.752  1.1508 -0.0960  0.6387
 3550TIP3    H232066   0.669   6.053   5.889 -0.0858 -0.1978  0.8104
 3551TIP3   OH232067   1.262   4.675   2.524 -0.1337 -0.7459  0.6527
 3551TIP3    H132068   1.168   4.689   2.523  0.0488  0.4660 -0.0592
 3551TIP3    H232069   1.272   4.582   2.544 -1.4344 -0.5393  2.3406
 3552TIP3   OH232070   2.121   1.503   4.599  0.5833 -0.7423 -0.0449
 3552TIP3    H132071   2.043   1.531   4.647  0.2919  0.4680 -1.2028
 3552TIP3    H232072   2.098   1.417   4.564  1.1253 -2.0855  2.7136
 3553TIP3   OH232073   4.184   3.727   2.155 -0.7527 -0.1271 -0.3923
 3553TIP3    H132074   4.127   3.669   2.104 -0.3666  1.5123 -2.8014
 3553TIP3    H232075   4.272   3.695   2.135 -0.7221 -1.9705  2.4618
 3554TIP3   OH232076   2.968   3.086  14.325  0.1025  0.0546 -0.4646
 3554TIP3    H132077   2.895   3.040  14.368  1.0504  0.4412  1.6142
 3554TIP3    H232078   2.989   3.032  14.249 -2.1479 -0.2320 -0.9186
 3555TIP3   OH232079   3.952   3.846  11.340 -0.6927  0.8391 -0.0859
 3555TIP3    H132080   4.038   3.822  11.374  0.3056  0.2834 -2.8630
 3555TIP3    H232081   3.891   3.825  11.411  1.3610  0.4075  1.5858
 3556TIP3   OH232082   6.104   4.453   4.003 -0.2541  0.2309 -0.4476
 3556TIP3    H132083   6.177   4.412   4.050 -1.4168 -1.6807 -0.2183
 3556TIP3    H232084   6.112   4.421   3.913  0.4414  1.7705 -0.9439
 3557TIP3   OH232085   4.205   1.786  14.863 -0.7063  0.2050 -0.8358
 3557TIP3    H132086   4.112   1.769  14.849 -0.1926 -1.7254 -2.1093
 3557TIP3    H232087   4.232   1.722  14.930  0.0808 -0.4735 -1.7785
 3558TIP3   OH232088   0.179   0.388   1.398  0.3638 -0.5360  0.3619
 3558TIP3    H132089   0.141   0.435   1.473  2.2369  0.6623  0.5851
 3558TIP3    H232090   0.153   0.441   1.322  1.4124  0.1841  0.4978
 3559TIP3   OH232091   0.733   1.780   3.241 -0.3626  0.5819  0.3224
 3559TIP3    H132092   0.730   1.874   3.260 -0.2904  0.3303  1.5779
 3559TIP3    H232093   0.693   1.738   3.317  1.1722 -0.5113  0.5629
 3560TIP3   OH232094   1.517   5.282   2.023 -0.4161 -0.0683 -0.2075
 3560TIP3    H132095   1.477   5.345   2.084 -1.5087 -1.2646  0.3387
 3560TIP3    H232096   1.480   5.304   1.938  0.1857  0.8336 -0.2475
 3561TIP3   OH232097   5.410   5.295  10.815  0.0421  0.5547 -0.0713
 3561TIP3    H132098   5.473   5.362  10.786  0.8341 -0.1090  0.1144
 3561TIP3    H232099   5.328   5.321  10.774  0.5950  1.0258 -0.9022
 3562TIP3   OH232100   6.419   2.859   5.787  0.2838 -0.0193  0.0767
 3562TIP3    H132101   6.364   2.938   5.795  0.3370  0.0677 -0.3728
 3562TIP3    H232102   6.453   2.845   5.875 -1.2766 -0.6679  0.6047
 3563TIP3   OH232103   4.136   1.254   4.715  0.3748  0.1822  0.2982
 3563TIP3    H132104   4.167   1.227   4.801  0.1857  1.2223  0.6999
 3563TIP3    H232105   4.214   1.288   4.671  0.0984  1.4526  0.7765
 3564TIP3   OH232106   5.526   4.721   3.145  1.1719  0.4797 -0.3228
 3564TIP3    H132107   5.600   4.769   3.182  1.4258  0.8804 -1.3373
 3564TIP3    H232108   5.541   4.721   3.051 -0.4648  1.1385 -0.6026
 3565TIP3   OH232109   3.842   6.063  15.628 -0.2844 -0.7336  0.1101
 3565TIP3    H132110   3.934   6.088  15.616 -0.4133 -0.2266  0.1432
 3565TIP3    H232111   3.795   6.111  15.560 -0.8899  1.4295  1.9753
 3566TIP3   OH232112   4.461   5.597   4.357 -0.0696 -0.1271  0.5145
 3566TIP3    H132113   4.440   5.553   4.275  0.1077 -0.7707  0.8170
 3566TIP3    H232114   4.556   5.597   4.361 -0.0414  1.0877  0.0790
 3567TIP3   OH232115   4.712   2.690   5.152  0.2259  0.4733 -0.1818
 3567TIP3    H132116   4.766   2.676   5.075  0.1976 -1.9862  0.1898
 3567TIP3    H232117   4.629   2.647   5.132  0.5388 -1.0091  1.5348
 3568TIP3   OH232118   5.908   6.572  11.193 -0.3386 -0.0567  0.5042
 3568TIP3    H132119   5.983   6.582  11.134  0.9273  1.9940  2.3839
 3568TIP3    H232120   5.898   6.658  11.234 -2.4138 -0.8949  1.8382
 3569TIP3   OH232121   3.027   3.125  16.448 -0.6966 -0.1576 -0.1440
 3569TIP3    H132122   2.994   3.035  16.454 -1.2221  0.0805  0.6120
 3569TIP3    H232123   3.096   3.130  16.514 -0.1755 -0.2109 -0.6788
 3570TIP3   OH232124   5.339   2.312   2.045 -0.4329 -0.4083  0.2728
 3570TIP3    H132125   5.295   2.309   1.960 -1.4047  1.7674  0.6665
 3570TIP3    H232126   5.423   2.354   2.028 -0.9389  0.7263  0.4746
 3571TIP3   OH232127   3.617   1.144   2.874  0.2140  0.2442 -0.0564
 3571TIP3    H132128   3.548   1.209   2.884 -1.8454 -1.6293 -1.5972
 3571TIP3    H232129   3.633   1.112   2.963 -1.7152 -0.0745  0.1974
 3572TIP3   OH232130   3.566   3.703   0.635  0.2271 -0.2788  0.2142
 3572TIP3    H132131   3.639   3.672   0.690 -0.5562 -0.8338  0.9525
 3572TIP3    H232132   3.533   3.780   0.680  0.1622 -0.2033  0.0362
 3573TIP3   OH232133   3.986   0.107  11.809  0.3555 -0.0719 -0.3915
 3573TIP3    H132134   4.074   0.142  11.823  0.8657 -1.8717  1.0185
 3573TIP3    H232135   3.993   0.014  11.828 -2.2497  0.0605  1.6172
 3574TIP3   OH232136   4.074   4.874  13.053  0.1065  0.2430  0.2458
 3574TIP3    H132137   4.039   4.855  13.140 -0.2346  0.4058  0.1479
 3574TIP3    H232138   4.047   4.964  13.036  0.4615  0.3246  0.1109
 3575TIP3   OH232139   6.467   5.423  10.607 -0.5269  0.0854  0.1271
 3575TIP3    H132140   6.540   5.479  10.580 -2.1206  1.3034 -1.7626
 3575TIP3    H232141   6.509   5.347  10.648  1.7678  1.0856 -0.2837
 3576TIP3   OH232142   4.171   5.139   0.194  0.1153  0.2523  0.3501
 3576TIP3    H132143   4.162   5.044   0.191 -1.1606  0.3900 -0.5932
 3576TIP3    H232144   4.236   5.155   0.263  0.9816 -1.3345 -0.0764
 3577TIP3   OH232145   4.393   6.181   4.676 -0.0334 -0.0585  0.1776
 3577TIP3    H132146   4.481   6.164   4.642 -0.2602 -1.1948  0.1318
 3577TIP3    H232147   4.334   6.157   4.604 -0.3798  0.7905  0.1723
 3578TIP3   OH232148   4.972   1.807   0.208 -0.1534 -0.4254 -0.1347
 3578TIP3    H132149   4.930   1.745   0.268  0.2288 -0.6523 -0.1064
 3578TIP3    H232150   4.939   1.783   0.122  1.5853 -1.9747 -0.3825
 3579TIP3   OH232151   5.765   1.844   2.365  0.0929  0.0869  0.3818
 3579TIP3    H132152   5.686   1.789   2.361 -0.0751  0.3852 -0.4239
 3579TIP3    H232153   5.837   1.781   2.357 -0.1188  0.0763 -1.8765
 3580TIP3   OH232154   6.335   2.020  12.034 -0.1491  0.0450 -0.3404
 3580TIP3    H132155   6.393   2.058  12.099  0.6211  0.3926 -1.2280
 3580TIP3    H232156   6.350   1.925  12.040  0.4404  0.1302 -0.5163
 3581TIP3   OH232157   5.600   2.254  12.980  0.6733  0.1071  0.1655
 3581TIP3    H132158   5.582   2.183  13.041  1.9589 -0.5225 -0.1929
 3581TIP3    H232159   5.641   2.322  13.033  2.7140 -0.8397 -0.1861
 3582TIP3   OH232160   5.991   1.144  13.100 -0.1497 -0.2972 -0.0240
 3582TIP3    H132161   5.902   1.159  13.071  0.4003 -2.0636 -2.8455
 3582TIP3    H232162   5.983   1.081  13.171 -1.1185 -0.8931 -0.6580
 3583TIP3   OH232163   0.045   0.792   2.353  0.1247  0.4824  0.3027
 3583TIP3    H132164   0.090   0.854   2.296  0.3205 -1.1112 -1.3071
 3583TIP3    H232165   0.086   0.804   2.439  2.1132  0.6039 -0.6411
 3584TIP3   OH232166   4.327   0.787   4.721  0.5154 -0.4199  0.1993
 3584TIP3    H132167   4.399   0.754   4.666 -0.3223 -2.0849  0.0527
 3584TIP3    H232168   4.299   0.868   4.678  1.3893 -0.5000 -0.5348
 3585TIP3   OH232169   1.691   4.663  11.444  0.1985 -0.8091  0.4530
 3585TIP3    H132170   1.676   4.613  11.524  2.8767 -1.0721  0.8391
 3585TIP3    H232171   1.632   4.624  11.380 -0.3516 -2.0764  1.7138
 3586TIP3   OH232172   3.590   0.062  13.428 -0.5358 -0.2216  0.0738
 3586TIP3    H132173   3.608   0.063  13.334 -0.9216 -1.9458 -0.0274
 3586TIP3    H232174   3.665   0.016  13.466 -0.6850 -0.0868  0.5364
 3587TIP3   OH232175   2.063   2.530  16.321 -0.2361 -0.9139  0.0011
 3587TIP3    H132176   2.121   2.491  16.387 -0.1151 -0.2152  0.3140
 3587TIP3    H232177   1.984   2.553  16.369  0.0669  0.1124  0.0365
 3588TIP3   OH232178   3.237   1.281  16.547 -0.7183 -0.0109 -0.2102
 3588TIP3    H132179   3.287   1.358  16.521  1.6220 -0.8295  1.7194
 3588TIP3    H232180   3.276   1.209  16.496 -0.8136 -0.4415  0.3232
 3589TIP3   OH232181   3.740   5.603   6.102  0.2489  0.1936  0.0757
 3589TIP3    H132182   3.805   5.545   6.141 -0.1831  0.3554  1.0787
 3589TIP3    H232183   3.666   5.545   6.082 -0.2419  0.3927  1.2180
 3590TIP3   OH232184   6.261   1.896   2.944  0.1100  0.0355 -0.3099
 3590TIP3    H132185   6.256   1.836   2.869 -0.2466 -0.2993 -0.0194
 3590TIP3    H232186   6.201   1.967   2.922 -0.0785 -0.1185 -0.2916
 3591TIP3   OH232187   0.145   1.892  16.348 -0.5429  0.2889  0.4049
 3591TIP3    H132188   0.135   1.930  16.261 -0.8064  1.3096  0.8690
 3591TIP3    H232189   0.144   1.967  16.407 -0.5207 -0.4057  1.3028
 3592TIP3   OH232190   0.232   2.580   1.379  0.3241  0.1635  0.0817
 3592TIP3    H132191   0.144   2.587   1.341  1.0041 -1.2135 -1.8162
 3592TIP3    H232192   0.253   2.669   1.406 -1.8430  0.4375  1.0467
 3593TIP3   OH232193   2.435   5.018  16.452 -0.8074  0.1770  0.0348
 3593TIP3    H132194   2.481   4.936  16.471  0.6072  0.3626 -2.3620
 3593TIP3    H232195   2.491   5.087  16.486 -1.1107  0.2238  0.4372
 3594TIP3   OH232196   5.997   2.564  13.018 -0.4742  0.9539  0.6865
 3594TIP3    H132197   6.009   2.506  13.093  2.6509  2.1201  1.1244
 3594TIP3    H232198   6.020   2.651  13.050  1.1594  1.4344 -1.6806
 3595TIP3   OH232199   6.635   5.853   5.517 -0.6003 -0.0572 -0.4603
 3595TIP3    H132200   6.545   5.834   5.491 -1.6627  0.4199  2.6676
 3595TIP3    H232201   6.628   5.886   5.607  2.7616 -0.8310  0.1729
 3596TIP3   OH232202   1.540   1.509   0.974 -0.3898  0.6282 -0.3605
 3596TIP3    H132203   1.623   1.476   0.942  0.8576  2.5383  0.7501
 3596TIP3    H232204   1.554   1.522   1.068 -1.2361  2.9201 -0.5015
 3597TIP3   OH232205   5.563   3.329   5.356  0.1820 -0.3714 -0.0362
 3597TIP3    H132206   5.617   3.270   5.303  2.1363 -0.6077  2.1403
 3597TIP3    H232207   5.582   3.304   5.447 -2.7052  0.3452  0.8079
 3598TIP3   OH232208   1.772   1.498  12.280 -0.5275  0.1787 -0.0277
 3598TIP3    H132209   1.766   1.473  12.372  0.3975  2.7893  0.7645
 3598TIP3    H232210   1.857   1.465  12.252 -1.3781 -1.8315 -0.3765
 3599TIP3   OH232211   5.374   2.296   4.872 -0.2663  0.2106  0.4505
 3599TIP3    H132212   5.391   2.208   4.839  0.2776  0.7360 -0.7160
 3599TIP3    H232213   5.294   2.324   4.828  0.1088  0.6718  0.0478
 3600TIP3   OH232214   5.983   3.015   0.352 -0.6596  0.4329 -0.0129
 3600TIP3    H132215   5.897   3.034   0.314  0.5509  2.6283 -1.7698
 3600TIP3    H232216   6.045   3.034   0.282  1.2573 -1.6674  1.0506
 3601TIP3   OH232217   6.664   3.046  16.322 -0.3590  0.1083  0.4042
 3601TIP3    H132218   6.583   2.996  16.309  0.6334 -1.6986  1.0491
 3601TIP3    H232219   6.671   3.101  16.244 -1.8526 -0.2032  0.0315
 3602TIP3   OH232220   1.239   3.734  16.118 -0.9122 -0.0110  0.2960
 3602TIP3    H132221   1.303   3.664  16.101 -0.1468  0.2735  1.9924
 3602TIP3    H232222   1.283   3.814  16.090 -0.0088  0.3435  2.6436
 3603TIP3   OH232223   0.087   5.383   3.977  0.3228 -0.3147 -0.2529
 3603TIP3    H132224   0.071   5.437   3.900 -0.8188 -0.8535 -0.4153
 3603TIP3    H232225  -0.001   5.368   4.013  0.3026 -4.2247 -1.7060
 3604TIP3   OH232226   6.712   3.123   2.673  0.1218  0.2518 -0.5842
 3604TIP3    H132227   6.647   3.172   2.623  0.1942  1.3948  0.4069
 3604TIP3    H232228   6.728   3.044   2.622 -0.6776  0.8407 -1.7581
 3605TIP3   OH232229   1.309   6.539  14.990 -0.5204  0.1372  1.0417
 3605TIP3    H132230   1.347   6.467  15.039  1.8342  1.9952  2.0493
 3605TIP3    H232231   1.252   6.584  15.053 -3.4765 -1.8463 -0.0937
 3606TIP3   OH232232   0.354   6.141   0.352 -0.5041  0.8026  0.5071
 3606TIP3    H132233   0.290   6.202   0.317 -0.8989 -0.1189 -0.4103
 3606TIP3    H232234   0.422   6.196   0.391 -1.2702  1.7960  0.4501
 3607TIP3   OH232235   6.268   2.912   4.242  0.1630 -0.5359  0.6109
 3607TIP3    H132236   6.340   2.887   4.184  1.2727  1.5943  1.0273
 3607TIP3    H232237   6.311   2.933   4.325 -0.9503  0.6589  0.8867
 3608TIP3   OH232238   4.543   6.167   1.631  0.2317  0.4536 -0.0015
 3608TIP3    H132239   4.523   6.260   1.642 -0.9814  0.2216 -0.1412
 3608TIP3    H232240   4.510   6.146   1.544  0.0930 -0.2140  0.2089
 3609TIP3   OH232241   0.444   3.718  15.992 -0.2273 -0.8601 -0.0459
 3609TIP3    H132242   0.401   3.632  15.991  0.0048 -0.9806  0.2071
 3609TIP3    H232243   0.471   3.729  16.083 -0.4942 -0.3999 -0.0211
 3610TIP3   OH232244   0.735   1.211   5.643  0.0472  0.4634  0.2590
 3610TIP3    H132245   0.742   1.121   5.674  1.2270 -0.1605 -1.7268
 3610TIP3    H232246   0.717   1.263   5.721  1.6083 -1.2124  1.7485
 3611TIP3   OH232247   2.859   2.354  13.128 -0.4432 -0.3918 -0.4926
 3611TIP3    H132248   2.784   2.344  13.186 -0.9359  2.0834 -0.6177
 3611TIP3    H232249   2.933   2.316  13.176 -1.5227 -1.6682  0.1805
 3612TIP3   OH232250   5.342   2.970   0.287  0.0017  0.6230  0.5537
 3612TIP3    H132251   5.257   3.013   0.294 -0.9404 -1.4755  2.8987
 3612TIP3    H232252   5.322   2.876   0.291  2.2184  0.0160 -1.5502
 3613TIP3   OH232253   3.561   5.152  15.030  0.0674 -0.6153  0.3776
 3613TIP3    H132254   3.470   5.179  15.039  0.5840  0.8116  1.6084
 3613TIP3    H232255   3.557   5.057  15.017 -1.7101 -0.2451 -2.0866
 3614TIP3   OH232256   1.640   2.629   4.664  0.5250 -0.1445 -0.0448
 3614TIP3    H132257   1.644   2.548   4.614  0.1117 -0.7824  0.9567
 3614TIP3    H232258   1.709   2.621   4.729 -1.0062 -0.7230  1.5651
 3615TIP3   OH232259   5.881   0.640  14.241 -0.3841  0.1091 -0.3150
 3615TIP3    H132260   5.913   0.586  14.314  0.1812  1.0842  0.1671
 3615TIP3    H232261   5.921   0.602  14.163 -2.1414 -1.8588 -0.3196
 3616TIP3   OH232262   0.774   2.874   2.138 -0.5017  0.1490 -0.2143
 3616TIP3    H132263   0.763   2.948   2.197 -0.0968 -2.0376  2.6791
 3616TIP3    H232264   0.834   2.906   2.070  1.0489  1.9216  1.9235
 3617TIP3   OH232265   5.326   6.260   4.887 -0.5328 -0.9841  0.2708
 3617TIP3    H132266   5.307   6.354   4.887  1.3081 -0.5935  0.0426
 3617TIP3    H232267   5.264   6.223   4.824 -3.2030 -0.3572  2.4509
 3618TIP3   OH232268   0.916   4.198  11.711 -0.3261 -0.0262  0.5464
 3618TIP3    H132269   0.996   4.244  11.737 -1.3962  0.9384  2.2105
 3618TIP3    H232270   0.846   4.261  11.728 -1.3716 -0.4996 -1.8131
 3619TIP3   OH232271   2.873   5.753   0.181 -0.0864  0.3799 -0.4927
 3619TIP3    H132272   2.961   5.728   0.209 -1.2868 -0.1680  3.1330
 3619TIP3    H232273   2.837   5.802   0.256 -2.0886  2.4932 -2.7543
 3620TIP3   OH232274   0.490   0.696  16.468 -0.4640  0.3301  0.3470
 3620TIP3    H132275   0.439   0.756  16.522 -2.6127 -1.6128  0.5139
 3620TIP3    H232276   0.517   0.749  16.393 -0.7027  2.0113  1.4255
 3621TIP3   OH232277   2.615   1.779  15.977  0.3728 -0.1715  0.4065
 3621TIP3    H132278   2.545   1.714  15.970  1.7161 -1.6934  0.6861
 3621TIP3    H232279   2.640   1.777  16.070  0.0414  1.1675  0.5323
 3622TIP3   OH232280   0.123   6.730  11.685 -0.2341 -0.2451  0.2987
 3622TIP3    H132281   0.129   6.656  11.626  0.4357  1.2166 -1.5193
 3622TIP3    H232282   0.031   6.735  11.710 -0.4917 -0.9294 -0.5308
 3623TIP3   OH232283   2.171   0.462   2.053 -0.5201  0.6467  0.4058
 3623TIP3    H132284   2.137   0.534   1.999 -0.9355  1.4773  1.7499
 3623TIP3    H232285   2.223   0.506   2.121 -0.1114 -0.3821  0.7674
 3624TIP3   OH232286   6.066   5.636  12.009 -0.6956 -0.4465  0.4368
 3624TIP3    H132287   6.048   5.584  12.087 -0.4614 -1.2851 -0.0707
 3624TIP3    H232288   5.983   5.641  11.963 -0.4383 -1.3817 -0.1276
 3625TIP3   OH232289   0.332   1.312  15.355  0.0267 -0.0109  0.1127
 3625TIP3    H132290   0.407   1.347  15.404 -0.1054  1.5321 -0.7634
 3625TIP3    H232291   0.281   1.263  15.420  1.9529 -1.3716  0.6526
 3626TIP3   OH232292   0.483   0.319   5.709 -0.4181 -0.2905  0.3949
 3626TIP3    H132293   0.542   0.250   5.679 -0.6703  0.0575 -0.9085
 3626TIP3    H232294   0.541   0.388   5.742 -0.0227  0.7023 -2.2895
 3627TIP3   OH232295   5.007   1.149   2.505 -0.4770 -0.2583 -0.1171
 3627TIP3    H132296   4.989   1.096   2.583 -1.9950  1.5977  0.8447
 3627TIP3    H232297   5.034   1.234   2.540  1.0285 -0.0991 -1.6279
 3628TIP3   OH232298   1.669   2.506  15.105  0.2700 -0.3111  0.3370
 3628TIP3    H132299   1.681   2.519  15.011 -1.9821  1.4622  0.2394
 3628TIP3    H232300   1.740   2.447  15.131  2.1872  0.8708 -2.0580
 3629TIP3   OH232301   1.211   1.728  16.248  0.8728  0.1113  0.0236
 3629TIP3    H132302   1.117   1.746  16.254  0.5095 -0.7689 -2.2781
 3629TIP3    H232303   1.230   1.673  16.324 -0.8802 -1.2431 -0.4750
 3630TIP3   OH232304   4.226   4.673  16.757 -0.3756  0.0724 -0.0339
 3630TIP3    H132305   4.308   4.629  16.777  0.8135  2.1458 -0.2282
 3630TIP3    H232306   4.214   4.663  16.663 -0.5610 -0.5947  0.0629
 3631TIP3   OH232307   1.119   4.820  14.213 -0.4209 -0.0949  0.8439
 3631TIP3    H132308   1.127   4.757  14.141 -0.4585  0.0806  0.6880
 3631TIP3    H232309   1.194   4.802  14.269  1.8602  2.4540 -1.2846
 3632TIP3   OH232310   6.658   4.954   5.655  0.5041 -0.1802 -0.6497
 3632TIP3    H132311   6.686   5.022   5.715  1.1557 -0.1526 -0.9828
 3632TIP3    H232312   6.670   4.872   5.703 -1.2787 -0.0075  0.1376
 3633TIP3   OH232313   3.529   1.669  12.037 -0.6466 -0.8802 -0.2432
 3633TIP3    H132314   3.576   1.739  12.082 -0.1344 -0.4186 -1.4757
 3633TIP3    H232315   3.553   1.589  12.085 -1.1590 -0.2380  1.1082
 3634TIP3   OH232316   5.151   0.231   5.806  0.3389  0.0023  0.2024
 3634TIP3    H132317   5.135   0.138   5.826  1.0021 -0.1522 -0.0026
 3634TIP3    H232318   5.239   0.248   5.839 -0.7329  1.2352  2.6378
 3635TIP3   OH232319   5.180   6.187   4.662 -0.1057  0.4562 -0.1946
 3635TIP3    H132320   5.087   6.166   4.654 -0.0311  0.1532 -0.2771
 3635TIP3    H232321   5.186   6.281   4.645 -0.5950  0.7713  1.2650
 3636TIP3   OH232322   4.711   5.822  16.692 -0.2457  0.0834 -0.3963
 3636TIP3    H132323   4.675   5.793  16.776 -1.9774 -0.3970 -1.2857
 3636TIP3    H232324   4.785   5.764  16.677 -0.0819 -0.0053  0.6699
 3637TIP3   OH232325   5.523   5.554  17.123 -0.2138  0.2445 -0.2881
 3637TIP3    H132326   5.529   5.488  17.191 -0.0203 -0.0630 -0.6001
 3637TIP3    H232327   5.435   5.590  17.131 -0.6481 -0.7116 -0.7299
 3638TIP3   OH232328   2.414   1.083  11.213  0.0093  0.3872  0.4242
 3638TIP3    H132329   2.370   1.029  11.147  0.2690  0.7912 -0.0773
 3638TIP3    H232330   2.343   1.137  11.250  0.2098  1.6226 -0.9547
 3639TIP3   OH232331   5.827   5.381  10.457 -0.0752 -0.0794 -0.4166
 3639TIP3    H132332   5.746   5.355  10.412  0.1658  0.9854 -1.4712
 3639TIP3    H232333   5.897   5.341  10.406  0.1349  0.0913 -0.2624
 3640TIP3   OH232334   2.233   0.140  12.007  0.5715  0.4314  0.1830
 3640TIP3    H132335   2.143   0.160  11.983  0.6246  0.1017 -0.2994
 3640TIP3    H232336   2.284   0.156  11.927  0.6916 -1.0613 -0.0580
 3641TIP3   OH232337   1.667   1.442  11.076  0.2972 -0.0586  0.3562
 3641TIP3    H132338   1.643   1.354  11.047 -0.4431 -0.1373  1.1872
 3641TIP3    H232339   1.700   1.485  10.997 -1.4775 -0.3442 -0.5800
 3642TIP3   OH232340   6.313   5.740  16.408 -0.7599 -0.2188 -0.3863
 3642TIP3    H132341   6.220   5.762  16.419 -0.7498 -0.5292  0.4031
 3642TIP3    H232342   6.338   5.779  16.324 -1.3289  0.7817 -0.0962
 3643TIP3   OH232343   4.930   5.469  15.948 -0.7096  0.1868 -0.0315
 3643TIP3    H132344   4.937   5.552  15.900  1.5377  0.0383  0.0108
 3643TIP3    H232345   4.990   5.410  15.902  0.9800 -0.1519  2.5475
 3644TIP3   OH232346   2.943   5.179   5.534  0.2145  0.3305 -0.0706
 3644TIP3    H132347   2.896   5.107   5.493  0.6447 -0.6297  1.0874
 3644TIP3    H232348   2.980   5.141   5.614  0.2100  1.9011  0.7052
 3645TIP3   OH232349   0.516   1.575  14.005  0.1628  0.4446  0.1263
 3645TIP3    H132350   0.525   1.666  13.978  0.8541  0.3358 -0.0170
 3645TIP3    H232351   0.585   1.562  14.070 -0.6121  0.3176  0.9236
 3646TIP3   OH232352   1.062   6.336  14.609  0.0375  0.0761  0.3972
 3646TIP3    H132353   1.155   6.339  14.587 -0.0530  0.9840  0.1034
 3646TIP3    H232354   1.054   6.389  14.688 -0.7061  2.7669 -1.4147
 3647TIP3   OH232355   5.315   5.684  15.947 -0.0112  0.1341 -0.1533
 3647TIP3    H132356   5.270   5.615  15.995  0.7979 -0.2683  0.0362
 3647TIP3    H232357   5.374   5.638  15.887  0.0262  0.6459 -0.5130
 3648TIP3   OH232358   0.993   0.420   5.272  0.4730  0.0499 -0.2566
 3648TIP3    H132359   0.990   0.516   5.265 -1.4840 -0.0358 -0.7247
 3648TIP3    H232360   0.990   0.403   5.366  2.1158  0.4560 -0.0992
 3649TIP3   OH232361   0.156   5.634   5.247  0.3093 -0.0009  0.4368
 3649TIP3    H132362   0.111   5.719   5.251 -1.9908 -1.0599 -1.4327
 3649TIP3    H232363   0.098   5.574   5.294  1.3634 -0.7819  0.7612
 3650TIP3   OH232364   0.263   3.811   0.509  0.2194 -0.1476  0.6046
 3650TIP3    H132365   0.168   3.809   0.502  0.1328 -1.2452  1.9595
 3650TIP3    H232366   0.282   3.783   0.598  1.8447 -0.6618  0.1211
 3651TIP3   OH232367   4.269   1.106  12.456 -0.2259  0.8077  0.4966
 3651TIP3    H132368   4.289   1.136  12.367  1.8069 -0.1042  0.6042
 3651TIP3    H232369   4.179   1.074  12.452  0.7303 -1.8331 -1.9942
 3652TIP3   OH232370   5.551   4.426  15.491 -0.2119 -0.4143  0.0225
 3652TIP3    H132371   5.562   4.424  15.586 -1.5446 -1.8943  0.1595
 3652TIP3    H232372   5.641   4.426  15.457  0.2955 -2.7231  1.2535
 3653TIP3   OH232373   6.563   0.447  15.211 -0.0876  0.4302 -0.1224
 3653TIP3    H132374   6.473   0.479  15.216  0.2276  1.3964 -0.5118
 3653TIP3    H232375   6.571   0.412  15.122 -0.5342 -1.0534  0.4167
 3654TIP3   OH232376   3.660   5.922  16.023 -0.3170 -0.2237 -0.3275
 3654TIP3    H132377   3.735   5.960  15.977  0.8270  0.6658  2.1741
 3654TIP3    H232378   3.600   5.996  16.036 -0.4428 -0.3772 -0.0294
 3655TIP3   OH232379   3.715   3.948  12.198 -0.5587 -0.0428  0.9131
 3655TIP3    H132380   3.664   3.867  12.197  0.4210 -0.6878  2.2335
 3655TIP3    H232381   3.756   3.950  12.284 -0.2759  1.6811  0.7631
 3656TIP3   OH232382   1.024   5.824   1.754  0.8135 -0.1254 -0.5745
 3656TIP3    H132383   0.978   5.908   1.756  0.6662 -0.2310  0.3736
 3656TIP3    H232384   1.042   5.803   1.845  3.0517  0.0884 -0.9206
 3657TIP3   OH232385   1.172   4.757   3.323 -0.2126  0.2032 -0.3246
 3657TIP3    H132386   1.104   4.817   3.354 -1.0166 -1.3779  1.0325
 3657TIP3    H232387   1.222   4.734   3.401  0.8592  0.0546 -1.0449
 3658TIP3   OH232388   2.882   5.301   4.719 -0.0863  0.1103  0.1869
 3658TIP3    H132389   2.841   5.331   4.800  0.9528 -1.2791  1.2587
 3658TIP3    H232390   2.818   5.244   4.679 -1.4235  2.4102 -1.0337
 3659TIP3   OH232391   4.242   6.611  10.257 -0.6679  0.1291 -0.1198
 3659TIP3    H132392   4.333   6.620  10.230 -0.9169  0.8501 -0.7537
 3659TIP3    H232393   4.213   6.701  10.273 -1.2577 -0.1008  0.1111
 3660TIP3   OH232394   1.264   1.996  14.414  0.3520 -0.1908  0.2854
 3660TIP3    H132395   1.279   1.935  14.486  1.3661 -0.8750 -0.5024
 3660TIP3    H232396   1.314   2.074  14.438 -1.1060  0.4401  1.3905
 3661TIP3   OH232397   1.900   3.091   3.670 -0.5697 -0.1884  0.6195
 3661TIP3    H132398   1.805   3.081   3.683 -0.6753 -0.7329 -0.5227
 3661TIP3    H232399   1.912   3.079   3.576  0.5355  0.7463  0.6463
 3662TIP3   OH232400   2.598   3.182  14.729 -0.4955 -0.1978  0.3474
 3662TIP3    H132401   2.592   3.260  14.675 -0.4456  0.2554  0.9952
 3662TIP3    H232402   2.545   3.116  14.683  2.8775 -1.1120 -2.4800
 3663TIP3   OH232403   5.115   3.271   2.080  0.1943 -0.6031 -0.1234
 3663TIP3    H132404   5.115   3.175   2.077  0.4302 -0.5618 -2.0318
 3663TIP3    H232405   5.195   3.297   2.034 -0.2639  0.5405 -0.2914
 3664TIP3   OH232406   5.729   0.244   2.664 -0.0635  0.1509  0.4319
 3664TIP3    H132407   5.699   0.330   2.695  0.9207  0.5967  0.1722
 3664TIP3    H232408   5.786   0.212   2.734 -0.7933 -0.4913  0.7270
 3665TIP3   OH232409   6.721   2.184  16.245 -0.5864 -0.0967 -0.1049
 3665TIP3    H132410   6.730   2.278  16.229  0.6859 -0.2136 -0.1529
 3665TIP3    H232411   6.671   2.178  16.326 -1.5791  0.6044 -0.6599
 3666TIP3   OH232412   5.311   4.969   1.146  0.5192  0.1170 -0.6185
 3666TIP3    H132413   5.359   5.016   1.214  0.8639 -0.1169 -0.7015
 3666TIP3    H232414   5.226   4.951   1.185  0.8750 -0.4175 -0.0872
 3667TIP3   OH232415   1.449   5.958  14.048 -0.0948 -0.6298  0.5176
 3667TIP3    H132416   1.459   5.882  13.990  0.3716 -0.9005  0.9356
 3667TIP3    H232417   1.539   5.990  14.061 -0.3899  0.6393 -0.4924
 3668TIP3   OH232418   6.211   1.667   4.009 -0.2504 -0.1295 -0.2513
 3668TIP3    H132419   6.266   1.728   3.959  0.6991 -0.5368  0.2698
 3668TIP3    H232420   6.172   1.721   4.077 -0.9876  0.2878 -0.9928
 3669TIP3   OH232421   1.276   3.454   4.681 -0.0590 -0.3885 -0.1857
 3669TIP3    H132422   1.182   3.460   4.665  0.0250  0.5008 -0.3555
 3669TIP3    H232423   1.291   3.361   4.697 -0.9092 -0.5903 -0.5060
 3670TIP3   OH232424   2.545   6.553   2.058  0.4707  0.1985 -0.6792
 3670TIP3    H132425   2.640   6.548   2.067  0.3054 -0.9165  0.6388
 3670TIP3    H232426   2.519   6.466   2.028 -0.1671  0.4251 -0.7875
 3671TIP3   OH232427   2.715   2.864  11.477  0.4461 -0.3188 -0.4963
 3671TIP3    H132428   2.777   2.870  11.549  1.1851 -0.5970 -1.1046
 3671TIP3    H232429   2.717   2.772  11.451  0.0831 -0.2495 -0.7803
 3672TIP3   OH232430   4.780   3.366   0.271  0.7258  0.1669 -0.6359
 3672TIP3    H132431   4.847   3.303   0.243  1.7429  0.2419  1.5074
 3672TIP3    H232432   4.793   3.441   0.213  2.2405  0.0123 -0.5295
 3673TIP3   OH232433   1.692   6.766  12.654 -0.2554  0.0942 -0.2417
 3673TIP3    H132434   1.768   6.778  12.711 -1.6762 -1.2133  2.0654
 3673TIP3    H232435   1.725   6.716  12.579  0.9924 -1.3423  1.2206
 3674TIP3   OH232436   3.393   0.482  10.594 -0.6261  0.5018  0.3787
 3674TIP3    H132437   3.335   0.548  10.632  0.2675  2.1287 -0.9809
 3674TIP3    H232438   3.481   0.520  10.602 -0.0684 -0.6100 -0.2853
 3675TIP3   OH232439   3.111   6.499   5.155 -0.3410  0.5892  0.4737
 3675TIP3    H132440   3.031   6.547   5.179 -0.3517  0.3035  1.0088
 3675TIP3    H232441   3.182   6.556   5.185 -0.3560  0.0482  1.5551
 3676TIP3   OH232442   1.897   0.253   3.861 -0.3476  0.2507  0.2229
 3676TIP3    H132443   1.945   0.307   3.798 -0.8212 -0.0445 -0.3932
 3676TIP3    H232444   1.944   0.169   3.861  0.0331  0.4638  0.7381
 3677TIP3   OH232445   5.730   0.704   2.608  0.0139 -0.6996  0.5615
 3677TIP3    H132446   5.679   0.782   2.586 -0.8002 -1.2743  0.3982
 3677TIP3    H232447   5.822   0.732   2.601 -0.2519 -0.2302 -1.2318
 3678TIP3   OH232448   4.567   3.702  12.824  0.1468 -0.7688  0.0717
 3678TIP3    H132449   4.639   3.638  12.828  0.4706 -0.4213 -0.1486
 3678TIP3    H232450   4.525   3.685  12.739 -0.7649 -1.7524  0.7067
 3679TIP3   OH232451   1.747   4.160  12.463  0.3197  0.0307  0.4441
 3679TIP3    H132452   1.783   4.242  12.497 -1.0011  0.8179 -0.0447
 3679TIP3    H232453   1.739   4.174  12.368  1.3336 -1.1415  0.1696
 3680TIP3   OH232454   5.976   5.363   1.245 -0.2142 -0.3913 -0.2306
 3680TIP3    H132455   6.027   5.422   1.300  0.1317 -0.6983 -0.2209
 3680TIP3    H232456   6.041   5.312   1.196 -0.5091 -0.6670 -0.3462
 3681TIP3   OH232457   3.824   1.567  17.071 -0.3384 -0.2144 -0.5717
 3681TIP3    H132458   3.858   1.566  17.160  1.5025 -0.8470 -1.2585
 3681TIP3    H232459   3.810   1.475  17.049  0.7719 -0.1706 -1.5057
 3682TIP3   OH232460   1.444   0.777  14.831  0.8034  0.1104 -0.8713
 3682TIP3    H132461   1.402   0.861  14.812 -0.0104 -0.4055 -1.3543
 3682TIP3    H232462   1.531   0.801  14.865  0.6946  1.1376 -1.3008
 3683TIP3   OH232463   4.999   4.297   4.598 -0.1389 -0.4644 -0.0444
 3683TIP3    H132464   5.049   4.362   4.646 -1.2044 -0.2881  0.8476
 3683TIP3    H232465   4.917   4.341   4.575  0.3457 -0.5488 -2.0200
 3684TIP3   OH232466   0.404   2.019  12.899  0.5031  0.1138  0.1510
 3684TIP3    H132467   0.439   1.934  12.924 -2.9649 -1.3122  0.3727
 3684TIP3    H232468   0.395   2.015  12.804 -0.5331 -0.0898  0.2628
 3685TIP3   OH232469   5.761   0.860  15.261 -0.0360  0.2917 -0.1218
 3685TIP3    H132470   5.761   0.829  15.351  0.7728  0.1212 -0.1775
 3685TIP3    H232471   5.794   0.786  15.210  0.9548  0.9088 -0.3722
 3686TIP3   OH232472   6.136   0.863  14.226  0.1888 -0.0738  0.2388
 3686TIP3    H132473   6.041   0.873  14.232  0.1627 -0.5969  0.6559
 3686TIP3    H232474   6.165   0.941  14.178 -0.5285 -0.2966 -0.5744
 3687TIP3   OH232475   0.565   4.189  13.683  0.4594  0.4814 -0.0317
 3687TIP3    H132476   0.604   4.108  13.717  0.9765  0.2103 -1.2519
 3687TIP3    H232477   0.545   4.169  13.591  1.2185  1.9575 -0.5272
 3688TIP3   OH232478   3.130   5.831   4.949 -0.7175  0.3287 -0.4174
 3688TIP3    H132479   3.177   5.912   4.971 -1.3231  0.4911  0.2826
 3688TIP3    H232480   3.153   5.770   5.019  0.7989 -0.5516 -1.6374
 3689TIP3   OH232481   0.427   3.112   4.630 -0.1180  0.6452 -0.3737
 3689TIP3    H132482   0.449   3.102   4.538  0.9125 -0.0009 -0.0667
 3689TIP3    H232483   0.477   3.188   4.659  1.2002 -0.4304  0.1679
 3690TIP3   OH232484   6.198   5.165   3.576 -0.2582 -0.2691 -0.2972
 3690TIP3    H132485   6.220   5.182   3.485  1.1896 -1.1907 -0.1249
 3690TIP3    H232486   6.265   5.210   3.626 -0.9714  0.1191  0.3209
 3691TIP3   OH232487   4.901   0.399   1.924 -0.0823 -0.2594 -0.0504
 3691TIP3    H132488   4.821   0.368   1.966  0.1001  0.9150  1.2132
 3691TIP3    H232489   4.934   0.324   1.876 -0.1597 -1.7510  2.1633
 3692TIP3   OH232490   1.626   6.079  12.373 -0.2370 -0.0636  0.3080
 3692TIP3    H132491   1.675   6.058  12.294  0.8949 -2.6560  1.6403
 3692TIP3    H232492   1.687   6.129  12.427  0.1518 -1.2288  0.9587
 3693TIP3   OH232493   6.629   4.253   2.946 -0.3177 -0.2478 -0.0473
 3693TIP3    H132494   6.672   4.333   2.976  1.8831 -0.9009 -1.3793
 3693TIP3    H232495   6.625   4.197   3.023 -1.2664  0.8750  0.7312
 3694TIP3   OH232496   4.302   5.865  14.674 -0.4535 -0.0302 -0.5252
 3694TIP3    H132497   4.214   5.893  14.652 -0.6919 -0.9661 -0.8103
 3694TIP3    H232498   4.336   5.827  14.593  0.4362  0.8697 -0.5821
 3695TIP3   OH232499   5.388   3.906   6.493 -0.0137  0.3067 -0.2259
 3695TIP3    H132500   5.437   3.858   6.426 -0.0963  0.5829 -0.4821
 3695TIP3    H232501   5.443   3.900   6.571  0.6300  0.9799 -0.6276
 3696TIP3   OH232502   5.262   4.398   5.327  0.2123 -0.9164  0.3628
 3696TIP3    H132503   5.214   4.352   5.257 -1.2537 -1.6158  1.7910
 3696TIP3    H232504   5.243   4.491   5.312 -3.7128 -1.3022  2.3331
 3697TIP3   OH232505   4.663   4.292   5.918 -0.3053  0.1972 -0.3524
 3697TIP3    H132506   4.586   4.315   5.969 -0.3477 -1.0199  0.1519
 3697TIP3    H232507   4.688   4.205   5.949  0.4356 -0.0219 -1.4989
 3698TIP3   OH232508   2.760   3.032  14.502 -0.3639 -0.3275  0.1505
 3698TIP3    H132509   2.752   3.095  14.574  1.9081 -0.3844  0.5231
 3698TIP3    H232510   2.676   3.033  14.458 -0.2482  3.2471 -0.0830
 3699TIP3   OH232511   6.003   4.286  15.487  0.0821 -0.1148 -0.4775
 3699TIP3    H132512   5.958   4.346  15.428 -0.5157 -0.8052 -0.7478
 3699TIP3    H232513   5.981   4.199  15.453  1.1131 -0.4819 -0.2266
 3700TIP3   OH232514   0.157   0.226  15.882 -0.2635 -0.3767 -0.2206
 3700TIP3    H132515   0.183   0.298  15.826  2.1286 -2.4719 -1.8866
 3700TIP3    H232516   0.094   0.176  15.830 -0.7608 -0.3441  0.3422
 3701TIP3   OH232517   4.924   0.358  17.013 -0.4539 -0.4420  0.4603
 3701TIP3    H132518   4.871   0.365  16.934 -0.1191 -1.0034  0.1815
 3701TIP3    H232519   4.950   0.449  17.032  2.4912 -0.5986 -2.1756
 3702TIP3   OH232520   3.128   6.680  14.011  0.2952 -0.1852  0.0464
 3702TIP3    H132521   3.127   6.669  14.106 -1.7885 -0.1838  0.0671
 3702TIP3    H232522   3.220   6.678  13.987  0.9321  0.9780  2.2105
 3703TIP3   OH232523   5.747   4.944   0.972 -0.3139  0.2375  0.2609
 3703TIP3    H132524   5.674   4.912   1.024 -0.3957  1.0390  0.6564
 3703TIP3    H232525   5.713   4.950   0.883 -0.1547 -1.1982  0.1036
 3704TIP3   OH232526   4.284   2.106  14.517  0.0380 -0.4520 -0.0193
 3704TIP3    H132527   4.321   2.094  14.430  0.8863  2.0201 -0.0233
 3704TIP3    H232528   4.358   2.095  14.576 -0.0238  0.3941  0.2228
 3705TIP3   OH232529   1.920   2.978   1.344  0.5899  0.1139 -0.7642
 3705TIP3    H132530   1.843   3.035   1.349 -0.4069 -1.4523  3.4037
 3705TIP3    H232531   1.991   3.031   1.380  0.1426 -0.4558  1.0004
 3706TIP3   OH232532   0.401   3.458   2.967  0.0373 -0.8484 -0.3499
 3706TIP3    H132533   0.402   3.464   3.063 -0.8199 -0.0606 -0.3824
 3706TIP3    H232534   0.453   3.534   2.938  1.7346 -2.0328 -0.4892
 3707TIP3   OH232535   1.612   2.934   0.605  0.3121  0.0718  0.1267
 3707TIP3    H132536   1.554   2.858   0.613 -1.9794  1.8328  0.5822
 3707TIP3    H232537   1.652   2.943   0.692 -1.1220  0.6927  0.7444
 3708TIP3   OH232538   4.121   2.921   6.038  0.4814 -0.4241  0.0883
 3708TIP3    H132539   4.155   2.853   6.096 -1.1092 -1.1043  0.2473
 3708TIP3    H232540   4.149   3.003   6.080 -0.3520 -0.9083  1.6505
 3709TIP3   OH232541   3.617   3.237   0.472  0.2674 -0.4317 -0.2024
 3709TIP3    H132542   3.571   3.313   0.507 -0.7442 -1.5562  0.9928
 3709TIP3    H232543   3.549   3.190   0.422  0.8681 -0.5900 -0.8792
 3710TIP3   OH232544   5.478   2.113   4.328  0.5360 -0.4775  0.7517
 3710TIP3    H132545   5.527   2.075   4.401  0.0757  1.2609  1.9779
 3710TIP3    H232546   5.390   2.076   4.336 -0.3678  1.9842  2.8967
 3711TIP3   OH232547   1.334   2.245  13.451  0.1284  0.0408  0.8129
 3711TIP3    H132548   1.409   2.238  13.392  0.1600  1.3545  0.6879
 3711TIP3    H232549   1.302   2.334  13.439 -1.1130 -0.3315  1.2841
 3712TIP3   OH232550   5.422   1.143  12.930 -0.0898 -0.3492 -0.0800
 3712TIP3    H132551   5.424   1.089  12.851  1.0565 -2.1970  1.1326
 3712TIP3    H232552   5.330   1.156  12.949 -0.4332 -2.6432  0.0260
 3713TIP3   OH232553   3.971   3.493   1.162  0.1537  0.5281  0.1596
 3713TIP3    H132554   3.954   3.420   1.222  1.3776 -0.1606 -0.3105
 3713TIP3    H232555   3.921   3.473   1.084  0.4309  0.2149  0.0593
 3714TIP3   OH232556   1.543   3.504   2.863  0.5699  0.4203  0.8047
 3714TIP3    H132557   1.502   3.420   2.843  2.3620 -0.4639  0.7977
 3714TIP3    H232558   1.577   3.535   2.779 -0.5013  1.4154  0.7104
 3715TIP3   OH232559   3.683   0.490  15.874  0.7825  0.2110 -0.0774
 3715TIP3    H132560   3.679   0.394  15.874  1.2691  0.1051 -3.5056
 3715TIP3    H232561   3.775   0.510  15.861  0.8506  1.1981  1.8312
 3716TIP3   OH232562   6.241   3.240  13.797  0.0717 -0.0105  0.0115
 3716TIP3    H132563   6.164   3.231  13.853  0.1901  0.0469  0.1854
 3716TIP3    H232564   6.315   3.244  13.859  0.1078  1.1722 -0.1060
 3717TIP3   OH232565   1.721   6.334   5.455  0.1769 -0.3987 -0.3372
 3717TIP3    H132566   1.772   6.356   5.533 -1.3910 -0.7756  0.8277
 3717TIP3    H232567   1.705   6.417   5.412  3.1676 -0.4331 -1.6376
 3718TIP3   OH232568   4.898   2.042   4.441 -0.4220 -0.5128  0.0988
 3718TIP3    H132569   4.922   2.046   4.348 -0.6127 -3.1401 -0.1008
 3718TIP3    H232570   4.866   1.953   4.454 -1.8550  0.2847  2.3608
 3719TIP3   OH232571   6.564   6.483   1.513 -0.3246 -0.2279 -0.1161
 3719TIP3    H132572   6.524   6.517   1.594  1.3085 -0.0428  0.6230
 3719TIP3    H232573   6.620   6.411   1.543 -0.3548 -0.7030 -1.1932
 3720TIP3   OH232574   3.670   4.365   2.768  0.4898 -0.4428  0.1031
 3720TIP3    H132575   3.611   4.291   2.753 -0.7589  0.1354  1.8939
 3720TIP3    H232576   3.627   4.439   2.726  1.1005 -0.4879 -0.5941
 3721TIP3   OH232577   1.637   5.577  11.850  0.3098  0.4372  0.0350
 3721TIP3    H132578   1.643   5.619  11.765 -1.6968  1.5036  0.3847
 3721TIP3    H232579   1.718   5.600  11.895  0.6659  1.2004 -0.9908
 3722TIP3   OH232580   3.077   1.680  14.708 -0.3258 -0.0287  0.3796
 3722TIP3    H132581   3.172   1.668  14.714 -0.0319 -0.1640 -3.3673
 3722TIP3    H232582   3.065   1.774  14.698 -0.4746 -0.1177 -0.3410
 3723TIP3   OH232583   0.247   1.379   4.437 -0.2544  0.1817  0.0906
 3723TIP3    H132584   0.214   1.345   4.354 -2.4252 -0.4456  1.1726
 3723TIP3    H232585   0.234   1.308   4.500 -0.7151  1.4083  1.4242
 3724TIP3   OH232586   3.726   0.093   4.249  0.6027  0.5333  0.3525
 3724TIP3    H132587   3.717   0.057   4.161  0.4022  1.3055  0.0517
 3724TIP3    H232588   3.696   0.023   4.308 -1.0607  0.6904 -0.2846
 3725TIP3   OH232589   0.051   3.031   5.011  0.0495  0.1578  0.2904
 3725TIP3    H132590   0.088   3.016   4.925 -1.4851 -0.0713 -0.3420
 3725TIP3    H232591   0.070   2.952   5.061 -0.9970 -0.6359 -0.5431
 3726TIP3   OH232592   1.826   4.604  13.047 -0.4756 -0.2920  0.2511
 3726TIP3    H132593   1.764   4.563  13.107  0.5934 -0.9388  0.9428
 3726TIP3    H232594   1.829   4.696  13.075 -0.6160 -0.4097  0.6639
 3727TIP3   OH232595   6.768   6.513   3.713  0.4428  0.1680  0.3845
 3727TIP3    H132596   6.787   6.493   3.621 -0.5323  1.1686 -0.0399
 3727TIP3    H232597   6.697   6.453   3.736 -0.5824  1.1996 -0.0676
 3728TIP3   OH232598   1.770   0.904   0.391  0.1221  0.0147  0.3002
 3728TIP3    H132599   1.766   0.924   0.297  1.2476 -0.7934  0.0728
 3728TIP3    H232600   1.856   0.936   0.418 -0.6978  1.4008  1.3382
 3729TIP3   OH232601   5.595   6.748  15.837  0.8463  0.2722  0.2072
 3729TIP3    H132602   5.677   6.698  15.840  1.6862  1.5341 -1.0902
 3729TIP3    H232603   5.561   6.742  15.926  2.2108 -0.4996  0.7044
 3730TIP3   OH232604   2.967   1.753   0.827 -0.2632 -0.2430 -0.2789
 3730TIP3    H132605   2.879   1.776   0.797 -0.3078  1.2511  0.9120
 3730TIP3    H232606   2.958   1.746   0.922  0.5147 -1.9305 -0.3205
 3731TIP3   OH232607   1.669   3.234  11.356  0.2393  0.3255 -0.4899
 3731TIP3    H132608   1.630   3.179  11.288  0.7462  0.7144 -1.1048
 3731TIP3    H232609   1.752   3.190  11.377 -0.2970 -0.2428  0.4745
 3732TIP3   OH232610   1.951   1.054   0.057 -0.2145  0.0153  0.3909
 3732TIP3    H132611   1.876   0.994   0.057  0.0026 -0.2845 -1.3310
 3732TIP3    H232612   1.952   1.092  -0.031  2.4313 -1.0138 -0.0828
 3733TIP3   OH232613   3.686   4.902   3.799 -0.8784 -0.2982 -0.5147
 3733TIP3    H132614   3.763   4.908   3.855 -1.1582  0.1022 -0.1751
 3733TIP3    H232615   3.695   4.976   3.738 -0.4249 -0.8991 -1.1955
 3734TIP3   OH232616   2.710   3.202  11.274 -0.3124  0.2421 -0.1645
 3734TIP3    H132617   2.676   3.173  11.190  1.5892 -1.9686 -0.2170
 3734TIP3    H232618   2.766   3.277  11.254 -1.1416  0.7354 -0.6525
 3735TIP3   OH232619   1.901   3.766  15.106 -0.0917 -0.1534  0.2624
 3735TIP3    H132620   1.910   3.725  15.020  0.3937 -0.2681  0.3676
 3735TIP3    H232621   1.948   3.849  15.099 -0.0993 -0.1365  0.4023
 3736TIP3   OH232622   4.471   1.216   1.597  0.7680 -0.5475  0.5152
 3736TIP3    H132623   4.484   1.224   1.502  1.3835 -0.4844  0.5979
 3736TIP3    H232624   4.495   1.126   1.616 -1.4842 -1.2199  0.2967
 3737TIP3   OH232625   4.360   2.599   0.955  0.3569 -0.4263 -0.5841
 3737TIP3    H132626   4.416   2.644   0.891 -2.3236  1.7204 -1.5157
 3737TIP3    H232627   4.342   2.514   0.915  1.5004 -0.4507 -1.0768
 3738TIP3   OH232628   1.094   1.108  14.229 -0.0732 -0.0815  0.6382
 3738TIP3    H132629   1.063   1.199  14.229  0.3127  0.0491 -0.9930
 3738TIP3    H232630   1.179   1.112  14.274 -0.3736  0.2509  1.1839
 3739TIP3   OH232631   3.025   1.466  15.062  0.6637 -0.0355  0.3213
 3739TIP3    H132632   3.073   1.412  14.999 -3.4617 -2.2144 -1.1762
 3739TIP3    H232633   2.972   1.524  15.007  1.3025  2.0851  1.9018
 3740TIP3   OH232634   6.217   0.211   4.630  0.3665  0.5366 -0.4531
 3740TIP3    H132635   6.215   0.157   4.552  2.0918  0.2256 -0.2919
 3740TIP3    H232636   6.239   0.299   4.599 -1.5297  0.9816 -0.6071
 3741TIP3   OH232637   2.630   6.324   5.034 -0.1033  0.3821  0.1138
 3741TIP3    H132638   2.634   6.400   5.093 -0.8710 -0.0622  0.7380
 3741TIP3    H232639   2.540   6.322   5.003  0.3289  0.6748 -1.1728
 3742TIP3   OH232640   5.703   1.152  13.068  0.9783  0.2271 -0.0474
 3742TIP3    H132641   5.696   1.072  13.015 -4.2021 -1.2364  2.4897
 3742TIP3    H232642   5.664   1.220  13.013 -0.3406 -0.3699  0.1214
 3743TIP3   OH232643   3.822   2.630   4.759  0.3363 -0.0054 -0.1553
 3743TIP3    H132644   3.744   2.671   4.722 -0.4206 -0.8702  0.4557
 3743TIP3    H232645   3.838   2.554   4.703  0.8169  0.2483 -0.3614
 3744TIP3   OH232646   2.793   4.633  15.080 -0.4385 -0.1177  0.0264
 3744TIP3    H132647   2.799   4.640  15.175 -1.1085 -0.2262  0.0738
 3744TIP3    H232648   2.817   4.720  15.048 -0.0414 -0.1301  0.2826
 3745TIP3   OH232649   5.577   0.971  13.247  0.8097 -0.0647 -0.1571
 3745TIP3    H132650   5.504   0.943  13.192  0.7352  1.1062 -0.6641
 3745TIP3    H232651   5.615   1.046  13.201  1.4098  0.2634  0.8485
 3746TIP3   OH232652   0.908   1.635  15.668  0.2775  0.4373 -0.3240
 3746TIP3    H132653   0.887   1.720  15.630  0.7493  0.6825 -0.0425
 3746TIP3    H232654   0.960   1.656  15.745 -1.0499 -0.0394  0.7204
 3747TIP3   OH232655   5.113   6.166   0.645  0.4315  0.0834 -0.1762
 3747TIP3    H132656   5.145   6.240   0.593 -0.7910 -0.4095 -1.6739
 3747TIP3    H232657   5.170   6.164   0.722  0.8766  2.1911 -0.4198
 3748TIP3   OH232658   1.706   3.550   6.371  0.4057 -0.0996 -0.1546
 3748TIP3    H132659   1.777   3.538   6.308  0.4666  0.3334 -0.1695
 3748TIP3    H232660   1.709   3.643   6.393  0.5955 -0.3082  0.7348
 3749TIP3   OH232661   2.168   1.905  13.594 -0.1344 -0.4782  0.3859
 3749TIP3    H132662   2.184   1.868  13.681 -0.4123 -1.0909  0.1802
 3749TIP3    H232663   2.107   1.844  13.552 -3.2470  1.8996  1.2359
 3750TIP3   OH232664   4.999   2.030   3.364 -0.3836  0.2914 -0.2435
 3750TIP3    H132665   5.058   2.050   3.291 -0.9095 -0.8069 -0.9819
 3750TIP3    H232666   5.033   2.081   3.437  1.0309  0.2664 -0.8746
 3751TIP3   OH232667   3.019   2.061  14.190 -0.2168 -0.8110  0.0641
 3751TIP3    H132668   2.930   2.077  14.158 -0.9592 -1.3890  1.7879
 3751TIP3    H232669   3.050   1.987  14.138 -0.2974  0.1334 -1.3525
 3752TIP3   OH232670   0.812   4.101   4.506 -0.6435  0.2875  0.3766
 3752TIP3    H132671   0.862   4.172   4.467 -2.6601  1.8788  0.5806
 3752TIP3    H232672   0.752   4.073   4.436 -1.1444  0.0758  0.8825
 3753TIP3   OH232673   2.911   6.518  13.073  0.8191  0.0084 -0.0387
 3753TIP3    H132674   2.841   6.464  13.108  0.7137  0.0953 -0.1163
 3753TIP3    H232675   2.971   6.456  13.032  0.3615  0.0145 -0.7124
 3754TIP3   OH232676   5.682   4.162  12.142 -0.4663 -0.0795  0.4522
 3754TIP3    H132677   5.634   4.170  12.224 -1.6450 -0.0573 -0.2388
 3754TIP3    H232678   5.623   4.197  12.076  1.0526  1.3315 -0.2138
 3755TIP3   OH232679   5.972   3.121  12.892 -1.0421 -0.3758 -0.2980
 3755TIP3    H132680   5.901   3.147  12.951 -1.2147 -0.1748 -0.5924
 3755TIP3    H232681   6.028   3.199  12.886  0.1296 -1.0531  1.2633
 3756TIP3   OH232682   4.779   6.132   0.165 -0.3459 -0.9904  0.1001
 3756TIP3    H132683   4.736   6.155   0.082  0.6582 -2.0281 -0.7278
 3756TIP3    H232684   4.765   6.208   0.221  1.1978  0.8215 -1.9073
 3757TIP3   OH232685   5.401   4.729   5.048 -0.1298  0.0546  0.3919
 3757TIP3    H132686   5.318   4.713   5.094 -0.0047 -0.3834  0.4673
 3757TIP3    H232687   5.468   4.702   5.110  0.0280 -0.9176 -0.1846
 3758TIP3   OH232688   6.526   3.171   1.945  0.1726 -0.5664  0.5477
 3758TIP3    H132689   6.547   3.233   1.875 -1.7982 -0.3895  0.0871
 3758TIP3    H232690   6.490   3.225   2.015 -0.2769 -1.0293  0.6759
 3759TIP3   OH232691   4.166   5.322   0.931 -0.4638  0.0235 -0.8483
 3759TIP3    H132692   4.189   5.237   0.892  1.2984  0.0156  0.1605
 3759TIP3    H232693   4.072   5.316   0.946 -0.5257 -1.4006 -1.6443
 3760TIP3   OH232694   2.307   5.821  14.756  0.1535  0.0658  0.0204
 3760TIP3    H132695   2.320   5.880  14.830 -1.3906  1.3381 -0.7147
 3760TIP3    H232696   2.330   5.874  14.679 -0.3613 -0.5689 -0.5741
 3761TIP3   OH232697   3.470   2.822  13.289  0.4992  0.1412 -0.2646
 3761TIP3    H132698   3.433   2.885  13.226  0.6613  0.6058  0.1043
 3761TIP3    H232699   3.466   2.738  13.243  0.8067  0.5100 -0.9773
 3762TIP3   OH232700   0.279   1.165  15.122 -0.3358  0.1420 -0.3801
 3762TIP3    H132701   0.371   1.140  15.108 -0.5443 -0.9726  0.1483
 3762TIP3    H232702   0.280   1.219  15.200 -0.2780 -0.8895  0.3420
 3763TIP3   OH232703   6.660   2.390  11.710 -0.3985 -0.1730 -0.8271
 3763TIP3    H132704   6.585   2.446  11.734 -0.5388 -1.2180  1.2627
 3763TIP3    H232705   6.661   2.322  11.776  3.3109  0.6338  0.0585
 3764TIP3   OH232706   0.591   6.177   3.806  0.3783 -0.0732 -0.7554
 3764TIP3    H132707   0.547   6.178   3.722  1.2113  0.2276 -1.1914
 3764TIP3    H232708   0.561   6.096   3.848 -1.8965  0.9772 -0.3288
 3765TIP3   OH232709   5.462   4.642  12.607 -0.1681 -0.2456  0.5859
 3765TIP3    H132710   5.505   4.718  12.646 -0.9569  0.7267 -0.4424
 3765TIP3    H232711   5.371   4.650  12.633 -0.7265  0.4647 -1.5051
 3766TIP3   OH232712   1.612   1.785  13.657  0.4205  0.1812  0.1468
 3766TIP3    H132713   1.669   1.793  13.733  0.4172 -3.1971  0.5894
 3766TIP3    H232714   1.529   1.825  13.685  1.0379  0.7690  1.1824
 3767TIP3   OH232715   2.185   1.869  12.509 -0.1252  0.3599  0.4784
 3767TIP3    H132716   2.279   1.854  12.520  0.1238  1.2320 -0.4598
 3767TIP3    H232717   2.153   1.791  12.465  0.3026  0.4118  0.0750
 3768TIP3   OH232718   4.548   4.433   4.151 -0.2454  0.0395 -0.0080
 3768TIP3    H132719   4.502   4.439   4.067 -0.6137 -1.3553  0.0867
 3768TIP3    H232720   4.523   4.513   4.197 -2.5494 -0.6448  0.0116
 3769TIP3   OH232721   5.426   5.326   4.140 -0.3759  0.0631 -0.8195
 3769TIP3    H132722   5.483   5.385   4.091  3.6027 -1.1372  2.1668
 3769TIP3    H232723   5.426   5.245   4.091  0.3769  0.1140 -0.9024
 3770TIP3   OH232724   0.142   2.844   0.405 -0.2624  0.0707  0.3206
 3770TIP3    H132725   0.196   2.809   0.476 -0.6084 -2.8318 -0.7793
 3770TIP3    H232726   0.192   2.825   0.325 -2.6135 -2.2246 -0.6721
 3771TIP3   OH232727   3.197   4.223   5.758  0.1535 -0.2445  0.5325
 3771TIP3    H132728   3.196   4.183   5.846 -1.7136  0.2163  0.7412
 3771TIP3    H232729   3.136   4.170   5.707 -0.4806  0.8429  0.1368
 3772TIP3   OH232730   2.099   4.746   3.284 -0.2096  0.1300  0.0509
 3772TIP3    H132731   2.009   4.778   3.288 -0.1340  0.4905 -1.0068
 3772TIP3    H232732   2.151   4.822   3.259  0.3416 -0.1564  0.3202
 3773TIP3   OH232733   3.337   2.046  16.419  0.2425 -0.1096  0.6690
 3773TIP3    H132734   3.336   2.077  16.510  0.2827  1.2504  0.2241
 3773TIP3    H232735   3.427   2.057  16.391  0.0867  0.1230  0.2526
 3774TIP3   OH232736   2.920   5.065   6.268  0.4596  0.0111  0.3294
 3774TIP3    H132737   3.011   5.050   6.244  0.8608  2.2038  0.4408
 3774TIP3    H232738   2.905   5.008   6.343  1.0163 -2.1616 -1.1369
 3775TIP3   OH232739   1.178   1.438  12.529  0.2061 -0.0564 -0.0636
 3775TIP3    H132740   1.118   1.512  12.517  1.6869  0.8048 -2.4200
 3775TIP3    H232741   1.214   1.451  12.617  0.8534  2.3545 -0.6564
 3776TIP3   OH232742   2.384   0.602   2.179  0.0746 -0.0681 -0.0484
 3776TIP3    H132743   2.455   0.644   2.228 -0.2928  1.1714 -0.5407
 3776TIP3    H232744   2.417   0.599   2.089  0.3024 -1.3279  0.0678
 3777TIP3   OH232745   5.279   1.511   2.878 -0.7689  0.1277 -0.3005
 3777TIP3    H132746   5.193   1.494   2.915 -1.3837  1.0384 -1.2710
 3777TIP3    H232747   5.294   1.438   2.818 -1.9123  1.1898 -1.9083
 3778TIP3   OH232748   5.931   6.462  11.852  0.2679 -0.9108  0.3038
 3778TIP3    H132749   5.887   6.389  11.807 -0.9804 -0.8920  1.4426
 3778TIP3    H232750   5.920   6.537  11.793 -0.4810 -1.1127  0.1771
 3779TIP3   OH232751   0.822   4.004   3.544  0.0047  0.0211 -1.2433
 3779TIP3    H132752   0.798   3.920   3.584 -0.9599 -0.3231 -2.5039
 3779TIP3    H232753   0.748   4.025   3.488  0.4460  1.5124 -1.2782
 3780TIP3   OH232754   5.276   3.780  13.887  0.3747 -0.1731  0.0477
 3780TIP3    H132755   5.302   3.849  13.826 -1.3979  1.7361  1.3766
 3780TIP3    H232756   5.229   3.716  13.833  0.3669  0.6194 -0.8894
 3781TIP3   OH232757   0.352   0.847   3.218 -0.1520  0.0726 -0.5547
 3781TIP3    H132758   0.369   0.834   3.311 -0.9457  2.8014  0.0112
 3781TIP3    H232759   0.428   0.896   3.185 -0.3593  0.0445 -1.0946
 3782TIP3   OH232760   2.627   5.724   1.949  1.0254  0.0112  0.3106
 3782TIP3    H132761   2.546   5.675   1.966  1.6551 -0.5000  1.9325
 3782TIP3    H232762   2.671   5.673   1.881 -0.4667  0.8533 -1.3594
 3783TIP3   OH232763   5.544   2.494   3.976  0.0450 -0.1861 -0.0459
 3783TIP3    H132764   5.583   2.427   4.033  1.1232  1.7533  1.5633
 3783TIP3    H232765   5.524   2.567   4.034 -0.7551  1.0622 -1.8289
 3784TIP3   OH232766   6.631   0.339  14.347  0.2642  0.6207 -0.1327
 3784TIP3    H132767   6.595   0.301  14.267  1.3842 -1.2752  0.2185
 3784TIP3    H232768   6.592   0.426  14.352 -1.1500  0.1244 -1.8309
 3785TIP3   OH232769   3.587   0.989  11.974  0.3011 -0.4075  0.0607
 3785TIP3    H132770   3.557   0.900  11.991 -0.7896 -0.4004 -1.5995
 3785TIP3    H232771   3.536   1.017  11.898  0.8123  1.5443  0.3972
 3786TIP3   OH232772   2.148   0.826   0.085 -0.1245  0.7440 -0.5342
 3786TIP3    H132773   2.083   0.896   0.076 -1.8153 -1.0426 -2.6107
 3786TIP3    H232774   2.200   0.831   0.005 -1.7359 -1.8186 -1.7824
 3787TIP3   OH232775   0.918   6.559  12.642  0.2046  0.3556  0.1050
 3787TIP3    H132776   1.002   6.519  12.621  0.2279 -0.2195  1.2936
 3787TIP3    H232777   0.941   6.643  12.682  0.2948 -0.8920  2.7555
 3788TIP3   OH232778   1.003   3.781   5.972 -0.3704  0.5482 -0.1961
 3788TIP3    H132779   0.943   3.728   6.026 -0.1132  2.8474  2.4534
 3788TIP3    H232780   1.083   3.728   5.967 -0.6243  0.0058  1.1534
 3789TIP3   OH232781   2.557   1.869   3.838  0.3829  0.0916 -0.3112
 3789TIP3    H132782   2.614   1.846   3.765  0.9381 -0.4354  0.2832
 3789TIP3    H232783   2.612   1.857   3.916 -0.9279 -1.6944  0.3596
 3790TIP3   OH232784   4.862   5.605  17.016  0.0128 -0.0865  0.0273
 3790TIP3    H132785   4.807   5.655  16.956  0.0802 -0.6816 -0.5313
 3790TIP3    H232786   4.814   5.525  17.034  1.0121 -0.9308 -1.0317
 3791TIP3   OH232787   5.896   4.739   5.338 -0.2942 -0.2388 -0.1346
 3791TIP3    H132788   5.963   4.778   5.281 -0.2853 -0.0252  0.0188
 3791TIP3    H232789   5.934   4.744   5.426 -1.4776  2.0622  0.2763
 3792TIP3   OH232790   1.121   6.774  13.601 -0.2942  0.0425  0.0360
 3792TIP3    H132791   1.162   6.841  13.547 -0.9540  1.3152  1.1007
 3792TIP3    H232792   1.189   6.747  13.662  0.1482 -0.6915 -0.7644
 3793TIP3   OH232793   2.590   1.554   0.987  0.0748 -0.1047 -0.0743
 3793TIP3    H132794   2.674   1.600   0.988  1.0450 -1.7001 -2.5472
 3793TIP3    H232795   2.607   1.473   1.035 -0.1227 -0.3003 -0.3311
 3794TIP3   OH232796   1.421   0.358  11.533  0.3197  0.1367 -0.1786
 3794TIP3    H132797   1.467   0.439  11.513  1.7156 -0.5343  0.2981
 3794TIP3    H232798   1.483   0.289  11.512  0.2633 -0.7198  2.2748
 3795TIP3   OH232799   1.482   0.678   4.052 -0.5289 -0.8909  0.3830
 3795TIP3    H132800   1.481   0.767   4.016 -0.3015 -1.1162 -0.1740
 3795TIP3    H232801   1.401   0.672   4.104 -1.5488 -1.0339 -1.2063
 3796TIP3   OH232802   2.082   3.483   1.938 -0.2314  0.3530  0.3575
 3796TIP3    H132803   2.148   3.498   2.006 -1.2889  1.6279  1.1436
 3796TIP3    H232804   2.113   3.536   1.864  0.3463 -0.1623  0.2225
 3797TIP3   OH232805   2.306   3.121  15.641  0.3027 -0.0413 -0.1687
 3797TIP3    H132806   2.220   3.083  15.662  0.3990 -0.7278 -0.9728
 3797TIP3    H232807   2.305   3.207  15.683  0.2541 -1.1221  2.0855
 3798TIP3   OH232808   4.667   5.247   1.720  0.7110  0.0920 -0.1069
 3798TIP3    H132809   4.689   5.183   1.788  0.3096 -0.6714 -0.6767
 3798TIP3    H232810   4.691   5.331   1.757  0.8985 -0.3566  0.8129
 3799TIP3   OH232811   1.851   6.507  13.161  0.4335 -0.2489 -0.1343
 3799TIP3    H132812   1.786   6.577  13.164 -0.4555 -0.9522 -2.4356
 3799TIP3    H232813   1.808   6.432  13.203 -0.0252 -0.5211 -1.0740
 3800TIP3   OH232814   6.057   0.787  17.116 -0.3881  0.2490 -0.7676
 3800TIP3    H132815   6.053   0.692  17.131 -0.1412  0.6167  1.9216
 3800TIP3    H232816   6.131   0.798  17.056  0.6984 -1.1393  0.2697
 3801TIP3   OH232817   0.605   5.099   2.382 -0.3040  0.5991  0.0205
 3801TIP3    H132818   0.525   5.144   2.410 -0.2947  1.6483 -1.5983
 3801TIP3    H232819   0.646   5.158   2.320  1.4204 -0.2210  0.3468
 3802TIP3   OH232820   3.267   1.571  15.763 -0.5065  0.2148  0.0781
 3802TIP3    H132821   3.247   1.588  15.671  1.2007 -0.0679 -0.3585
 3802TIP3    H232822   3.362   1.577  15.768 -0.6122  0.4705  1.8801
 3803TIP3   OH232823   0.606   5.773  10.951  0.4656  0.5653 -0.0265
 3803TIP3    H132824   0.586   5.863  10.926 -0.0339  0.3514 -0.3964
 3803TIP3    H232825   0.694   5.758  10.919  0.7660  1.1030  0.5235
 3804TIP3   OH232826   3.952   2.616  16.730 -0.1285 -0.3052 -0.0737
 3804TIP3    H132827   4.045   2.623  16.753  0.2564  2.3241 -2.1292
 3804TIP3    H232828   3.952   2.598  16.636 -1.6827  0.8321 -0.3178
 3805TIP3   OH232829   6.268   2.863   1.337  0.4598 -0.0519 -0.1668
 3805TIP3    H132830   6.287   2.952   1.366 -1.0976 -0.0185  0.7750
 3805TIP3    H232831   6.224   2.874   1.253  0.5683  0.0549 -0.2096
 3806TIP3   OH232832   2.681   4.747  15.794  0.3014  0.2007  0.0318
 3806TIP3    H132833   2.775   4.748  15.776  0.0541  1.2090 -1.2779
 3806TIP3    H232834   2.670   4.679  15.861  1.9216 -0.1120 -0.0010
 3807TIP3   OH232835   4.421   1.107  15.470 -0.2365  0.0110 -0.3877
 3807TIP3    H132836   4.345   1.120  15.414  1.1433  2.2363 -1.8742
 3807TIP3    H232837   4.389   1.126  15.559 -1.0097  2.9104 -1.2189
 3808TIP3   OH232838   2.380   6.774  13.889 -0.9288 -0.0542 -0.5140
 3808TIP3    H132839   2.291   6.808  13.885 -0.8755  0.2321  0.6799
 3808TIP3    H232840   2.435   6.847  13.862 -1.1496 -0.7481 -2.9920
 3809TIP3   OH232841   2.550   1.200  11.472 -0.2745 -0.3412 -0.2220
 3809TIP3    H132842   2.474   1.224  11.419 -0.2069 -2.1528 -1.1690
 3809TIP3    H232843   2.514   1.160  11.551 -0.3249  0.0479 -0.0466
 3810TIP3   OH232844   1.721   4.200  17.133 -0.0687 -0.7196  0.1995
 3810TIP3    H132845   1.659   4.192  17.061 -0.4038  0.1066  0.3895
 3810TIP3    H232846   1.762   4.285  17.120 -0.6842 -0.2244  1.4135
 3811TIP3   OH232847   2.121   2.059   2.430  0.1730 -0.1185 -0.2480
 3811TIP3    H132848   2.135   2.089   2.520  0.0397  0.3213 -0.3675
 3811TIP3    H232849   2.182   2.111   2.378 -2.0101  2.0327 -0.8085
 3812TIP3   OH232850   2.440   5.004   5.766 -0.4681 -0.3587 -0.3106
 3812TIP3    H132851   2.504   5.043   5.707 -0.5546 -0.3552 -0.4012
 3812TIP3    H232852   2.458   5.044   5.851 -0.0981 -0.6443 -0.2522
 3813TIP3   OH232853   3.400   6.330  16.011 -0.4718  0.7222 -0.2981
 3813TIP3    H132854   3.386   6.353  15.920  0.5541 -0.3140 -0.7217
 3813TIP3    H232855   3.476   6.382  16.038  0.6250 -0.6566 -0.6918
 3814TIP3   OH232856   6.743   2.047   0.012 -0.8014 -0.2997 -0.1237
 3814TIP3    H132857   6.795   1.974  -0.022  1.8127  2.3388 -2.0450
 3814TIP3    H232858   6.751   2.040   0.107  1.2418 -1.2623 -0.3331
 3815TIP3   OH232859   5.099   0.572   0.103  0.4314 -0.2068  0.6438
 3815TIP3    H132860   5.174   0.523   0.068  0.7943 -0.1010  1.2659
 3815TIP3    H232861   5.130   0.663   0.108  0.4746 -0.2735  1.5131
 3816TIP3   OH232862   4.162   5.122   4.114 -0.5149  0.1848 -0.2237
 3816TIP3    H132863   4.099   5.194   4.116  0.3590  0.9538  0.1839
 3816TIP3    H232864   4.239   5.159   4.071  0.7732  0.2030  2.0105
 3817TIP3   OH232865   5.891   3.261   1.884 -0.1531  0.1288  0.0237
 3817TIP3    H132866   5.915   3.255   1.977  0.2258  1.0361 -0.0048
 3817TIP3    H232867   5.972   3.287   1.841  0.5903 -3.6218 -1.0555
 3818TIP3   OH232868   4.633   1.259  10.749 -0.2571 -0.1225  0.3134
 3818TIP3    H132869   4.667   1.325  10.811 -1.1652 -0.1764  0.8757
 3818TIP3    H232870   4.710   1.231  10.700 -0.0225  2.1767 -0.7046
 3819TIP3   OH232871   3.915   6.404   2.542 -0.0950 -0.0183 -0.0110
 3819TIP3    H132872   4.005   6.389   2.514 -0.7601  0.2741 -2.3865
 3819TIP3    H232873   3.911   6.497   2.564  0.0592  0.0735 -0.3756
 3820TIP3   OH232874   0.601   1.675   5.546  0.0621  0.3770 -0.1954
 3820TIP3    H132875   0.544   1.734   5.595 -0.1172  0.4979 -0.5517
 3820TIP3    H232876   0.646   1.624   5.613  1.5593  2.1577  0.2038
 3821TIP3   OH232877   0.272   4.080  15.186 -0.5075  0.4691 -0.5119
 3821TIP3    H132878   0.283   4.162  15.234  2.3328 -0.5054  0.5975
 3821TIP3    H232879   0.223   4.023  15.246  2.4985 -0.5354  1.1052
 3822TIP3   OH232880   2.913   5.949  16.990  0.6103  0.0958  0.3455
 3822TIP3    H132881   2.906   5.879  17.055 -0.9607  2.0441  2.3122
 3822TIP3    H232882   2.878   5.910  16.910 -0.6450 -1.2372  1.5069
 3823TIP3   OH232883   2.443   0.065   4.949  0.7052 -0.2116  0.2816
 3823TIP3    H132884   2.437  -0.007   5.012  0.8743 -1.2912 -0.9187
 3823TIP3    H232885   2.532   0.059   4.914  0.6278  0.4072 -0.0326
 3824TIP3   OH232886   4.305   2.191   2.621 -0.1279  0.4193  0.2622
 3824TIP3    H132887   4.386   2.148   2.593  2.3079  4.1729  1.2756
 3824TIP3    H232888   4.260   2.124   2.673  0.8519 -2.7133 -2.7381
 3825TIP3   OH232889   6.324   6.569  13.211 -0.1871 -0.0384 -0.2952
 3825TIP3    H132890   6.419   6.563  13.203 -0.2439  0.9505 -1.8259
 3825TIP3    H232891   6.301   6.502  13.276  1.7888  1.3513  1.9180
 3826TIP3   OH232892   5.017   6.248  16.965  0.3943  0.2506 -0.0159
 3826TIP3    H132893   4.931   6.287  16.953  0.6049  0.5438 -0.6074
 3826TIP3    H232894   5.065   6.271  16.886  1.7445  1.9848  1.2667
 3827TIP3   OH232895   4.919   3.768  14.261 -0.2509 -0.0776  0.2171
 3827TIP3    H132896   4.873   3.822  14.326 -1.3422  0.0959 -0.6934
 3827TIP3    H232897   4.851   3.738  14.202  0.7985  0.1893 -1.1659
 3828TIP3   OH232898   2.587   0.355   0.427  0.0425  0.1513 -0.0364
 3828TIP3    H132899   2.601   0.290   0.357 -1.9047  0.5187 -0.8008
 3828TIP3    H232900   2.555   0.433   0.381 -0.7486  0.5747  1.2181
 3829TIP3   OH232901   4.154   1.485   3.980 -0.1545  0.1457  0.1064
 3829TIP3    H132902   4.105   1.403   3.972  1.1128 -0.7212  1.0405
 3829TIP3    H232903   4.095   1.544   4.026 -2.2938  0.8160 -3.3120
 3830TIP3   OH232904   5.056   0.360  11.110 -0.2636  0.0299  0.1657
 3830TIP3    H132905   5.016   0.412  11.039  0.3427  0.2692 -0.0025
 3830TIP3    H232906   4.988   0.297  11.134  0.2620 -1.4029 -2.0266
 3831TIP3   OH232907   5.935   0.285   0.687  0.0159 -0.7086  0.2154
 3831TIP3    H132908   5.841   0.281   0.666 -0.0654  0.9257  0.2211
 3831TIP3    H232909   5.977   0.238   0.615 -0.8261 -1.6530  0.3299
 3832TIP3   OH232910   3.123   6.766  11.100 -0.1809  0.1403 -0.3213
 3832TIP3    H132911   3.146   6.843  11.151  1.0661  0.2136 -0.9542
 3832TIP3    H232912   3.195   6.705  11.115 -2.1922 -1.7897  1.8916
 3833TIP3   OH232913   4.622   2.713   3.298 -0.0253  0.0752  0.1412
 3833TIP3    H132914   4.651   2.715   3.389 -0.0596 -0.4141  0.1675
 3833TIP3    H232915   4.698   2.741   3.248 -0.5731  2.1358  0.4395
 3834TIP3   OH232916   2.527   2.353   5.749  0.4199 -0.4218  0.2232
 3834TIP3    H132917   2.443   2.385   5.782  1.5820  2.8087  0.2737
 3834TIP3    H232918   2.569   2.313   5.824  0.7971  2.0657  1.3890
 3835TIP3   OH232919   6.141   1.209  14.523  0.5088  0.2385  0.2810
 3835TIP3    H132920   6.155   1.250  14.438 -0.3102 -1.7569 -0.8660
 3835TIP3    H232921   6.054   1.239  14.550  0.2311 -0.1437 -0.1903
 3836TIP3   OH232922   1.856   0.328  13.323  0.0670  0.1436  0.1373
 3836TIP3    H132923   1.892   0.266  13.386  2.8749  0.4645 -1.0641
 3836TIP3    H232924   1.847   0.278  13.242 -0.9943  0.4241  0.0687
 3837TIP3   OH232925   2.998   1.093   1.172 -0.1589 -0.3386 -0.1388
 3837TIP3    H132926   3.075   1.068   1.223 -2.1358 -3.0400  1.7142
 3837TIP3    H232927   3.007   1.045   1.090  0.9443  0.6868 -0.6297
 3838TIP3   OH232928   3.874   2.822  15.971  0.6097 -0.2711  0.2684
 3838TIP3    H132929   3.942   2.887  15.955  0.2411  0.2977  0.9506
 3838TIP3    H232930   3.849   2.836  16.062  2.8246 -3.5692  1.4660
 3839TIP3   OH232931   1.691   2.231  10.640  0.3582 -0.8066  0.3245
 3839TIP3    H132932   1.731   2.144  10.646  0.3552 -0.8459 -0.1629
 3839TIP3    H232933   1.749   2.280  10.582 -0.5859 -1.0392 -0.8422
 3840TIP3   OH232934   4.595   0.444   3.542  0.4643 -0.1481 -0.2365
 3840TIP3    H132935   4.505   0.452   3.574  0.3654  0.6652 -0.7085
 3840TIP3    H232936   4.616   0.530   3.506  1.2171 -0.5099 -0.6891
 3841TIP3   OH232937   5.745   0.794  15.802 -0.0384  0.5677  0.3363
 3841TIP3    H132938   5.815   0.744  15.845  1.2397  1.6059 -0.5052
 3841TIP3    H232939   5.773   0.885  15.808 -0.6935  0.8794 -1.1554
 3842TIP3   OH232940   1.943   3.657   6.751 -0.2791  1.0976 -0.1137
 3842TIP3    H132941   2.022   3.654   6.696  0.8832 -0.4892  1.5809
 3842TIP3    H232942   1.903   3.571   6.739  0.0091  0.7196  1.5490
 3843TIP3   OH232943   2.458   3.447   5.643 -0.8313  0.1172  0.0458
 3843TIP3    H132944   2.467   3.527   5.591 -0.2360 -1.0370 -1.6743
 3843TIP3    H232945   2.410   3.475   5.721 -1.1445  2.0316 -0.7904
 3844TIP3   OH232946   6.707   5.259  10.736  0.1204  0.5755 -0.7903
 3844TIP3    H132947   6.765   5.206  10.681 -0.4934 -0.8405 -0.1007
 3844TIP3    H232948   6.643   5.197  10.770 -1.7699  2.0961 -1.4778
 3845TIP3   OH232949   3.521   6.127   3.245 -0.8363  0.4459 -0.2341
 3845TIP3    H132950   3.589   6.130   3.178 -0.3752 -1.3139  0.1372
 3845TIP3    H232951   3.523   6.214   3.285 -0.6693  1.2950 -2.0464
 3846TIP3   OH232952   1.151   2.276   0.836  0.2108  0.4129 -0.8600
 3846TIP3    H132953   1.121   2.230   0.915  0.3493  0.4669 -0.7762
 3846TIP3    H232954   1.222   2.222   0.802  1.5675  1.4885  0.2318
 3847TIP3   OH232955   5.840   2.504   3.788 -0.1948  0.1328  0.3260
 3847TIP3    H132956   5.878   2.563   3.723 -1.3428 -0.1304 -0.6016
 3847TIP3    H232957   5.834   2.557   3.868 -1.6248  1.4453 -0.6084
 3848TIP3   OH232958   1.487   3.966   0.421  0.4117  0.1226 -0.0019
 3848TIP3    H132959   1.579   3.950   0.401  0.2748 -0.7966  0.1016
 3848TIP3    H232960   1.442   3.958   0.337  0.3474 -0.0151  0.0450
 3849TIP3   OH232961   6.123   6.219   2.603  0.3120 -0.0313 -0.8956
 3849TIP3    H132962   6.052   6.157   2.622  1.0407 -0.8187 -0.7359
 3849TIP3    H232963   6.079   6.304   2.598 -0.3227 -0.1857  1.4880
 3850TIP3   OH232964   4.616   3.123  14.978  0.2426  0.2267  0.2333
 3850TIP3    H132965   4.684   3.139  15.044  1.8633 -0.5116 -1.2139
 3850TIP3    H232966   4.628   3.191  14.913 -1.2524  0.8539  0.5935
 3851TIP3   OH232967   1.606   2.236   0.907  0.3573 -0.7315  0.1122
 3851TIP3    H132968   1.553   2.176   0.959 -1.3590  1.7624  1.3568
 3851TIP3    H232969   1.562   2.242   0.823  1.3771 -2.3277 -0.5635
 3852TIP3   OH232970   3.394   1.472  13.235 -0.1518 -0.0339  0.2186
 3852TIP3    H132971   3.343   1.445  13.158  1.4578  1.1915 -1.3281
 3852TIP3    H232972   3.342   1.541  13.276 -0.7474 -0.2889 -0.1116
 3853TIP3   OH232973   1.884   6.062   3.146  0.3857  0.1075  0.3178
 3853TIP3    H132974   1.950   6.031   3.085  1.7887  0.5295  1.6099
 3853TIP3    H232975   1.830   5.985   3.164  0.0449 -0.0532 -1.3207
 3854TIP3   OH232976   6.116   0.862  15.321  0.2893 -0.7686  0.6291
 3854TIP3    H132977   6.050   0.905  15.376  0.9255 -1.6221  2.1091
 3854TIP3    H232978   6.090   0.882  15.231  0.0470  1.9250  1.2586
 3855TIP3   OH232979   4.744   5.864  14.076 -0.3761 -0.1866  0.4928
 3855TIP3    H132980   4.709   5.907  13.998  0.6618 -2.3331 -1.2245
 3855TIP3    H232981   4.792   5.933  14.122  1.2724  0.5769 -2.1902
 3856TIP3   OH232982   3.178   2.174   5.997  0.0996 -0.3459 -0.0118
 3856TIP3    H132983   3.141   2.114   5.931 -3.1782  0.5839  0.8905
 3856TIP3    H232984   3.126   2.157   6.076  1.3521  1.3589  1.2067
 3857TIP3   OH232985   1.154   5.895  17.225 -0.0351  0.3338 -0.1718
 3857TIP3    H132986   1.240   5.894  17.184 -0.4475 -0.1815 -1.0411
 3857TIP3    H232987   1.093   5.910  17.153 -0.6555  0.9272  0.4690
 3858TIP3   OH232988   2.612   3.197  16.601  1.2309  0.1910 -0.2057
 3858TIP3    H132989   2.613   3.262  16.672  2.8838 -1.1126  1.0115
 3858TIP3    H232990   2.658   3.121  16.638 -0.0594 -1.4250 -1.8409
 3859TIP3   OH232991   4.624   2.672  14.610  0.8806  0.0261  0.6551
 3859TIP3    H132992   4.572   2.606  14.565  1.4581 -0.9274  1.3680
 3859TIP3    H232993   4.595   2.668  14.701  0.8251  0.8481  0.6759
 3860TIP3   OH232994   5.569   4.710   4.213 -0.2792  0.0141  0.2492
 3860TIP3    H132995   5.611   4.724   4.298 -0.3406 -1.6416  0.5802
 3860TIP3    H232996   5.617   4.637   4.175 -0.7510  0.2497 -0.8067
 3861TIP3   OH232997   2.921   4.124  12.988 -0.1908 -0.3675  0.0215
 3861TIP3    H132998   2.897   4.032  12.982 -0.9770 -0.2702  1.4495
 3861TIP3    H232999   2.847   4.166  13.032 -0.9728  1.4209 -2.8431
 3862TIP3   OH233000   4.359   3.290   3.382  0.1410  0.3300  0.2402
 3862TIP3    H133001   4.314   3.215   3.344 -0.1291  0.2238  0.7667
 3862TIP3    H233002   4.452   3.274   3.365  0.0821 -0.1024  0.3215
 3863TIP3   OH233003   4.664   3.336  14.787  0.1615  0.8599 -0.0336
 3863TIP3    H133004   4.716   3.337  14.706  0.4235  0.1450  0.1195
 3863TIP3    H233005   4.630   3.425  14.795  0.8703  1.1750 -0.4568
 3864TIP3   OH233006   0.111   5.465   5.929  0.3235 -0.4126 -0.0260
 3864TIP3    H133007   0.130   5.392   5.871 -0.1895 -0.8777  0.3887
 3864TIP3    H233008   0.093   5.425   6.014  0.8399  0.2479  0.4028
 3865TIP3   OH233009   0.355   4.459   0.785 -0.6516  0.5224  0.6717
 3865TIP3    H133010   0.448   4.473   0.765 -1.0157  0.2353 -1.3596
 3865TIP3    H233011   0.316   4.546   0.779 -1.1256  0.1785 -2.0770
 3866TIP3   OH233012   0.785   3.365  12.012 -0.1213 -0.1029 -0.3736
 3866TIP3    H133013   0.839   3.432  12.054 -0.6126  0.4337 -0.5966
 3866TIP3    H233014   0.782   3.294  12.076  0.6450 -0.0396 -0.2569
 3867TIP3   OH233015   6.625   4.255   2.404  0.0913 -0.3481 -0.5389
 3867TIP3    H133016   6.666   4.221   2.324 -1.6023 -0.9710 -1.1605
 3867TIP3    H233017   6.588   4.178   2.447 -0.3932  0.1977  0.0355
 3868TIP3   OH233018   2.139   5.662  14.304  0.0285 -0.3240  0.3739
 3868TIP3    H133019   2.109   5.689  14.390 -0.4295  1.0216 -0.1832
 3868TIP3    H233020   2.233   5.681  14.305 -0.4293  2.1983 -0.2974
 3869TIP3   OH233021   1.461   6.558   0.333 -0.4418  0.0564 -0.1484
 3869TIP3    H133022   1.430   6.548   0.423  2.4610 -0.3298  0.8372
 3869TIP3    H233023   1.449   6.471   0.294  0.5109 -0.4014  0.5765
 3870TIP3   OH233024   6.128   0.009  14.414  0.3948  0.3422 -0.1950
 3870TIP3    H133025   6.211   0.056  14.427  0.2653  0.9891 -1.5571
 3870TIP3    H233026   6.094   0.045  14.332 -1.2307  0.0655  0.3503
 3871TIP3   OH233027   1.297   5.618  11.120  0.6323  0.2398  1.1405
 3871TIP3    H133028   1.352   5.668  11.180  4.6267 -1.1003 -1.2133
 3871TIP3    H233029   1.297   5.668  11.039  0.8016 -1.2170  0.2140
 3872TIP3   OH233030   5.421   6.135  16.903 -0.1748  0.1648  0.0915
 3872TIP3    H133031   5.513   6.158  16.906 -0.1162 -0.1339  0.8959
 3872TIP3    H233032   5.378   6.209  16.861  0.3403  0.6157  0.3578
 3873TIP3   OH233033   0.980   1.049   0.020 -0.4437 -0.0832  0.3785
 3873TIP3    H133034   1.040   0.986   0.059  2.6959  2.1444 -0.6895
 3873TIP3    H233035   0.999   1.046  -0.074 -0.4444  2.1737  0.2672
 3874TIP3   OH233036   6.234   5.457   4.612  0.8252 -0.2073  0.0330
 3874TIP3    H133037   6.184   5.408   4.547  1.2984  1.1557 -1.3946
 3874TIP3    H233038   6.319   5.414   4.615  0.6828 -0.4887 -0.0130
 3875TIP3   OH233039   2.819   1.753  12.200  0.6116  0.3261 -0.0692
 3875TIP3    H133040   2.795   1.685  12.136  0.2316 -0.9431  1.3920
 3875TIP3    H233041   2.735   1.786  12.231  0.7980  0.8907 -0.1618
 3876TIP3   OH233042   6.706   3.080  13.379  0.4710 -0.2558 -0.1673
 3876TIP3    H133043   6.781   3.111  13.328  0.0148  0.8036 -0.2161
 3876TIP3    H233044   6.632   3.087  13.319 -0.5921  3.7405  1.4443
 3877TIP3   OH233045   6.171   4.893  13.424 -0.5208  0.2584 -0.4151
 3877TIP3    H133046   6.101   4.942  13.468  0.1861  1.4317 -0.5906
 3877TIP3    H233047   6.158   4.913  13.331  0.0376  0.4572 -0.4483
 3878TIP3   OH233048   2.155   2.211  12.358 -0.5999  0.2482 -0.6080
 3878TIP3    H133049   2.083   2.260  12.317 -1.8253 -0.8022  0.2214
 3878TIP3    H233050   2.219   2.277  12.381 -1.6775  1.3237 -0.6339
 3879TIP3   OH233051   2.238   6.408   6.048 -0.0712  0.1382 -0.3392
 3879TIP3    H133052   2.331   6.396   6.064  0.7080  0.6549 -4.1605
 3879TIP3    H233053   2.200   6.321   6.061  1.0546 -0.2526  0.4058
 3880TIP3   OH233054   0.664   0.371   0.705 -0.1572 -0.4698 -0.1857
 3880TIP3    H133055   0.577   0.375   0.665 -1.0339  0.5342  1.7449
 3880TIP3    H233056   0.725   0.374   0.631 -1.7610 -2.1309 -1.6260
 3881TIP3   OH233057   2.762   3.213  17.220  0.7317  0.0635  0.2417
 3881TIP3    H133058   2.799   3.293  17.183  0.8803 -0.6568 -1.1880
 3881TIP3    H233059   2.728   3.165  17.145 -0.7383 -0.5168  1.2486
 3882TIP3   OH233060   0.934   1.466   0.679  0.3477  0.2984 -0.0661
 3882TIP3    H133061   0.940   1.372   0.660 -1.5436  0.0924  0.2332
 3882TIP3    H233062   0.842   1.480   0.700  0.7084  2.1459  0.3623
 3883TIP3   OH233063   2.278   4.472   6.386  0.2262 -0.0842  0.4701
 3883TIP3    H133064   2.295   4.556   6.343  1.6913  0.0300  1.2334
 3883TIP3    H233065   2.219   4.426   6.326  1.6655  0.3686 -1.3410
 3884TIP3   OH233066   3.956   5.326   2.336 -0.1762  0.1686  0.0003
 3884TIP3    H133067   4.035   5.315   2.389  0.9113  0.7707 -1.4387
 3884TIP3    H233068   3.939   5.239   2.300  0.1193  0.1398 -0.0723
 3885TIP3   OH233069   4.518   6.262  11.042  0.5283  0.0024 -0.0124
 3885TIP3    H133070   4.571   6.234  11.117 -2.9212 -0.6468  2.2957
 3885TIP3    H233071   4.527   6.357  11.040  1.8638 -0.0991  0.1935
 3886TIP3   OH233072   6.750   2.894   1.027  0.0324  0.4632 -0.0503
 3886TIP3    H133073   6.754   2.930   1.115 -0.3192 -0.7943  0.5010
 3886TIP3    H233074   6.658   2.901   1.002  0.0094  0.1898 -0.0438
 3887TIP3   OH233075   3.245   0.028  12.811 -0.0308 -0.6503 -0.1352
 3887TIP3    H133076   3.263  -0.058  12.849  0.8022  0.2426  1.5809
 3887TIP3    H233077   3.325   0.050  12.763  0.7967  0.2871  1.6322
 3888TIP3   OH233078   0.789   5.958   4.614  0.4370 -0.4585  0.3381
 3888TIP3    H133079   0.810   5.930   4.525  0.4703 -1.0192  0.5243
 3888TIP3    H233080   0.722   6.025   4.602  0.6250 -0.3483 -0.1244
 3889TIP3   OH233081   5.339   0.387   5.603  0.0366  0.3335  0.2166
 3889TIP3    H133082   5.329   0.374   5.509 -0.3519 -0.7521  0.4045
 3889TIP3    H233083   5.249   0.389   5.637  0.1859  0.3927  0.6174
 3890TIP3   OH233084   1.730   6.681   4.998  0.8418 -0.2988  0.4307
 3890TIP3    H133085   1.724   6.751   4.933  1.3827 -0.4742  0.1903
 3890TIP3    H233086   1.643   6.678   5.038  0.6261  0.0749 -0.0075
 3891TIP3   OH233087   4.136   0.931  11.547  0.3820 -0.1910  0.1703
 3891TIP3    H133088   4.116   1.024  11.556  0.0668 -0.1826 -0.5724
 3891TIP3    H233089   4.121   0.895  11.635  1.8315  0.6924  0.8041
 3892TIP3   OH233090   1.959   0.068  16.139 -0.4750 -0.4753  0.0946
 3892TIP3    H133091   1.872   0.050  16.176  0.2169 -4.1046  0.1536
 3892TIP3    H233092   1.963   0.015  16.059  1.6582 -0.3598  0.0931
 3893TIP3   OH233093   1.171   1.295  17.198 -0.4347  0.0101  0.1811
 3893TIP3    H133094   1.159   1.271  17.106 -1.6637 -0.3851  0.4271
 3893TIP3    H233095   1.121   1.376  17.208  2.2210  1.7338 -0.2105
 3894TIP3   OH233096   4.670   5.926   3.503  0.5766  0.1804  0.4582
 3894TIP3    H133097   4.653   5.849   3.557 -1.4229  0.4091  0.1864
 3894TIP3    H233098   4.659   6.000   3.561  0.1873  0.3544  0.1660
 3895TIP3   OH233099   4.030   2.270  16.875 -0.0232  0.2303 -0.4279
 3895TIP3    H133100   4.037   2.197  16.813 -0.9992  1.1993 -1.7255
 3895TIP3    H233101   4.102   2.329  16.850 -0.5203  0.7009 -0.7720
 3896TIP3   OH233102   1.753   1.566   2.048 -0.1208 -0.1914  0.0508
 3896TIP3    H133103   1.781   1.608   1.966  3.2817 -0.4601  0.9890
 3896TIP3    H233104   1.713   1.636   2.098 -0.3281  0.4586 -0.9972
 3897TIP3   OH233105   4.122   4.057   2.558 -0.3483  0.0113  0.1198
 3897TIP3    H133106   4.111   4.146   2.525 -0.4617  0.1377  0.4939
 3897TIP3    H233107   4.040   4.013   2.538 -0.6071  0.2338  0.6843
 3898TIP3   OH233108   2.727   3.303   4.927  0.0322 -0.3026 -0.2261
 3898TIP3    H133109   2.781   3.240   4.975 -0.5740  0.2092  1.1737
 3898TIP3    H233110   2.704   3.370   4.993 -2.8606 -0.8827 -0.5574
 3899TIP3   OH233111   1.187   3.858  12.905  0.1406  0.3854 -0.1997
 3899TIP3    H133112   1.185   3.939  12.955  1.0574 -0.6747  1.6171
 3899TIP3    H233113   1.277   3.850  12.876 -0.2385  0.6511 -1.4755
 3900TIP3   OH233114   3.167   5.821   0.439 -0.1692 -0.1708 -0.0408
 3900TIP3    H133115   3.228   5.891   0.414  0.1220 -0.6749 -0.7407
 3900TIP3    H233116   3.185   5.805   0.531  1.0143 -0.5701 -0.3362
 3901TIP3   OH233117   5.738   5.044   5.333  0.2377 -0.0897 -0.4989
 3901TIP3    H133118   5.678   4.988   5.383 -0.2270 -0.5991 -1.6112
 3901TIP3    H233119   5.796   5.082   5.399 -0.3277 -0.8018  0.4199
 3902TIP3   OH233120   6.274   6.608  15.303  0.0002  0.2616 -0.2037
 3902TIP3    H133121   6.252   6.515  15.301 -0.9722  0.4759  0.3494
 3902TIP3    H233122   6.222   6.644  15.375 -1.7022  1.7323 -2.0710
 3903TIP3   OH233123   2.258   2.728  15.364 -0.0677 -0.0898 -0.6592
 3903TIP3    H133124   2.293   2.696  15.448  0.1099 -0.2036 -0.7747
 3903TIP3    H233125   2.171   2.689  15.358  0.1607 -0.5864 -0.8132
 3904TIP3   OH233126   6.730   4.857   0.272  0.3526  0.1692  0.5969
 3904TIP3    H133127   6.664   4.907   0.225  1.5562  1.4775  0.2748
 3904TIP3    H233128   6.794   4.833   0.205  1.1416  0.4861  1.2336
 3905TIP3   OH233129   3.464   1.660   1.075  0.1089  0.1684  0.2564
 3905TIP3    H133130   3.510   1.713   1.011  0.3985 -2.4016 -1.7503
 3905TIP3    H233131   3.381   1.637   1.033 -1.2049  1.2196  2.1656
 3906TIP3   OH233132   2.746   2.040   3.390 -0.4390 -0.2030 -0.4882
 3906TIP3    H133133   2.756   2.123   3.436 -0.5646  0.1364 -1.0639
 3906TIP3    H233134   2.776   2.058   3.301  3.3829 -1.8382  0.3844
 3907TIP3   OH233135   3.594   6.715  13.776  0.4422  0.4105  0.2676
 3907TIP3    H133136   3.626   6.666  13.700 -0.7031  1.2808 -0.7917
 3907TIP3    H233137   3.673   6.753  13.814  1.0229  0.0327 -0.5205
 3908TIP3   OH233138   1.640   4.478   4.384 -0.0290 -0.4605  1.0140
 3908TIP3    H133139   1.618   4.569   4.403  0.2289 -0.4607  1.3195
 3908TIP3    H233140   1.598   4.460   4.300  1.3287  0.4640  0.1131
 3909TIP3   OH233141   2.091   2.904   6.024 -0.1663 -0.0342  0.4129
 3909TIP3    H133142   2.026   2.845   5.985  0.6259  0.0388 -1.0455
 3909TIP3    H233143   2.139   2.849   6.087  0.2093 -0.8165 -0.5440
 3910TIP3   OH233144   5.378   1.797   6.502 -0.5783 -0.1375  0.3523
 3910TIP3    H133145   5.452   1.738   6.492 -0.3401 -0.0451  1.4774
 3910TIP3    H233146   5.417   1.879   6.534 -0.8918  0.6692 -1.2339
 3911TIP3   OH233147   0.102   3.244  17.088 -0.1071  0.2334 -0.5375
 3911TIP3    H133148   0.136   3.291  17.011 -1.5960  1.8996 -0.2084
 3911TIP3    H233149   0.084   3.313  17.151  1.3158 -1.1445  1.4249
 3912TIP3   OH233150   6.107   6.591   5.707 -0.2917  0.4906  0.4883
 3912TIP3    H133151   6.177   6.547   5.659 -0.6974 -1.4939  1.6544
 3912TIP3    H233152   6.128   6.576   5.799 -2.0924  0.0730  0.8543
 3913TIP3   OH233153   2.292   0.174   0.421  0.0240 -0.3399 -0.1856
 3913TIP3    H133154   2.360   0.108   0.434  1.6480  0.5809 -3.5048
 3913TIP3    H233155   2.340   0.254   0.398 -2.0157  1.5134  1.7004
 3914TIP3   OH233156   5.211   5.768   2.624 -0.4764 -0.0950 -1.1646
 3914TIP3    H133157   5.173   5.684   2.598 -0.2335  0.0036 -1.8445
 3914TIP3    H233158   5.304   5.749   2.638 -0.5143 -0.0428 -0.8181
 3915TIP3   OH233159   4.797   6.019  14.626 -0.2263 -0.3085  0.0475
 3915TIP3    H133160   4.719   5.985  14.670  0.0582 -0.5727  0.3591
 3915TIP3    H233161   4.857   6.040  14.698  0.9881 -2.5443 -0.2448
 3916TIP3   OH233162   5.669   5.634   0.817 -0.1364 -0.1159  0.4670
 3916TIP3    H133163   5.672   5.697   0.745 -0.0500 -1.4790 -0.7430
 3916TIP3    H233164   5.612   5.564   0.785  0.9779 -1.3722  1.2130
 3917TIP3   OH233165   4.543   2.208  16.327 -0.0924  0.3508  0.0433
 3917TIP3    H133166   4.636   2.186  16.333  0.2914  1.8294 -0.2535
 3917TIP3    H233167   4.501   2.149  16.389  1.1938  0.4956  1.0832
 3918TIP3   OH233168   3.362   3.063  11.470 -0.2930 -0.2078  0.2147
 3918TIP3    H133169   3.295   3.073  11.538  0.2441  0.0114  0.7178
 3918TIP3    H233170   3.334   3.121  11.399 -0.5728 -0.0341  0.4665
 3919TIP3   OH233171   3.946   3.697   5.996 -0.1959  0.3816 -0.3567
 3919TIP3    H133172   3.873   3.754   5.970 -0.3605  0.2726 -0.1298
 3919TIP3    H233173   4.023   3.739   5.957 -0.0547  1.8568  1.4411
 3920TIP3   OH233174   4.682   5.701  12.875 -0.5949  0.7021  0.3505
 3920TIP3    H133175   4.610   5.660  12.922  1.8134 -0.5868  3.1015
 3920TIP3    H233176   4.735   5.627  12.843 -0.7575  1.6052 -2.1524
 3921TIP3   OH233177   1.960   4.634  16.089 -0.2414  0.3734  0.2303
 3921TIP3    H133178   2.005   4.585  16.158  0.7340  1.1083  0.1237
 3921TIP3    H233179   1.900   4.570  16.050  0.5437 -0.5713  0.5254
 3922TIP3   OH233180   4.133   6.614  16.345  0.1553 -0.6736 -0.1458
 3922TIP3    H133181   4.052   6.664  16.356 -0.6233 -1.9673  0.0800
 3922TIP3    H233182   4.174   6.653  16.268 -1.5024 -1.0779 -1.2680
 3923TIP3   OH233183   5.416   0.106   4.695 -0.2565 -0.0778 -0.3763
 3923TIP3    H133184   5.362   0.122   4.772  0.3794 -0.0287  0.0576
 3923TIP3    H233185   5.380   0.165   4.628 -1.7700 -1.1951 -0.5821
 3924TIP3   OH233186   4.426   1.657   5.001 -0.1320  0.1758 -0.1489
 3924TIP3    H133187   4.463   1.729   5.052  1.1740 -0.3644 -0.3072
 3924TIP3    H233188   4.402   1.591   5.066 -0.0802  0.2006 -0.1037
 3925TIP3   OH233189   6.154   2.276   0.546  0.1297 -0.4275  0.0451
 3925TIP3    H133190   6.223   2.230   0.596 -0.1377 -0.2599  0.5714
 3925TIP3    H233191   6.200   2.314   0.472  0.8196  0.7015  1.0431
 3926TIP3   OH233192   5.854   1.621   2.140  0.1102 -0.1280  0.0250
 3926TIP3    H133193   5.936   1.602   2.186 -0.4563  1.8348  1.9669
 3926TIP3    H233194   5.865   1.711   2.108 -0.9691 -0.1395 -0.3905
 3927TIP3   OH233195   4.715   2.371  16.125  0.2461  0.3042 -0.1254
 3927TIP3    H133196   4.728   2.345  16.033 -1.5851  1.3209 -0.6960
 3927TIP3    H233197   4.620   2.374  16.136  0.4211 -1.2744  2.2671
 3928TIP3   OH233198   2.375   4.524   0.160 -0.0071 -0.5226 -0.4384
 3928TIP3    H133199   2.452   4.581   0.155 -1.7911  1.9591 -0.6993
 3928TIP3    H233200   2.366   4.504   0.254  0.5575 -0.2345 -0.3209
 3929TIP3   OH233201   3.979   4.082  17.233 -0.8675  0.1988  0.0499
 3929TIP3    H133202   3.964   4.019  17.162 -0.0175 -0.7388  0.6938
 3929TIP3    H233203   3.904   4.072  17.291 -0.2647 -0.9220  0.6534
 3930TIP3   OH233204   1.651   1.496   1.730  0.4812  0.1928 -0.8714
 3930TIP3    H133205   1.724   1.484   1.669  1.1164  0.4261 -0.1559
 3930TIP3    H233206   1.682   1.560   1.794 -0.1357 -0.1515 -0.2134
 3931TIP3   OH233207   3.789   3.583   0.336  0.1132  0.0744  0.2782
 3931TIP3    H133208   3.774   3.572   0.243 -0.1568 -0.1661  0.3481
 3931TIP3    H233209   3.880   3.553   0.349  0.6746  1.5713 -0.1474
 3932TIP3   OH233210   4.287   3.742   6.125  0.1514  0.5209  0.0004
 3932TIP3    H133211   4.343   3.681   6.172 -0.5759 -0.3343 -0.2357
 3932TIP3    H233212   4.215   3.760   6.186  0.1307  0.7924 -0.1029
 3933TIP3   OH233213   2.292   4.671   3.451 -0.4011 -0.5044 -0.0632
 3933TIP3    H133214   2.227   4.720   3.401 -0.4277 -0.7411 -0.2632
 3933TIP3    H233215   2.369   4.668   3.395  0.4592  1.4602  0.9728
 3934TIP3   OH233216   0.890   6.063   1.125 -0.0361  0.3148  0.1290
 3934TIP3    H133217   0.964   6.031   1.177  0.2296  0.4559 -0.1585
 3934TIP3    H233218   0.873   5.994   1.062 -0.5609  0.0075  0.5986
 3935TIP3   OH233219   4.549   5.654  13.877  0.4343  0.2812  0.0236
 3935TIP3    H133220   4.541   5.721  13.945 -2.5135 -0.3975  0.4144
 3935TIP3    H233221   4.504   5.691  13.801  2.2306  0.3377 -1.0255
 3936TIP3   OH233222   0.284   0.689   1.403 -0.5031  0.3843 -0.1025
 3936TIP3    H133223   0.373   0.708   1.433 -1.2765  1.9220  1.2650
 3936TIP3    H233224   0.228   0.714   1.477 -2.1459  0.2527 -1.2847
 3937TIP3   OH233225   0.128   3.661   2.328 -0.0529 -0.1705 -0.5923
 3937TIP3    H133226   0.120   3.755   2.308  0.3468 -0.0971 -0.3935
 3937TIP3    H233227   0.220   3.641   2.312 -0.1736 -0.5681 -0.7923
 3938TIP3   OH233228   4.164   6.145  12.238  0.5196 -0.1217  0.3041
 3938TIP3    H133229   4.210   6.229  12.235  1.3626 -0.5303  1.1512
 3938TIP3    H233230   4.149   6.129  12.332  1.7999 -1.6579  0.2800
 3939TIP3   OH233231   4.843   3.081  13.299  0.4754 -0.1505  0.2815
 3939TIP3    H133232   4.929   3.040  13.288  0.5823 -0.5116  2.3358
 3939TIP3    H233233   4.790   3.044  13.228  0.9880 -2.7746  1.2014
 3940TIP3   OH233234   1.804   4.042   4.719 -0.3633  0.2243 -0.5240
 3940TIP3    H133235   1.861   4.100   4.668 -1.1084  2.2070  0.7945
 3940TIP3    H233236   1.723   4.092   4.729 -1.3674 -1.4463 -0.1053
 3941TIP3   OH233237   2.361   2.573   2.942  0.4714  0.2028 -0.4656
 3941TIP3    H133238   2.332   2.556   3.031  0.9901  0.4887 -0.2377
 3941TIP3    H233239   2.330   2.662   2.923 -0.0978 -0.0544 -0.7645
 3942TIP3   OH233240   6.755   2.146   5.711  0.3771 -0.0391  0.3254
 3942TIP3    H133241   6.755   2.213   5.643 -0.5183 -0.5581 -0.1967
 3942TIP3    H233242   6.802   2.186   5.784  2.6362  0.0045 -1.0891
 3943TIP3   OH233243   6.435   2.129  14.221  0.3334 -0.3814 -0.4110
 3943TIP3    H133244   6.482   2.199  14.178 -0.8879  2.4480  2.6040
 3943TIP3    H233245   6.369   2.101  14.157  0.3331  1.7666 -1.3829
 3944TIP3   OH233246   2.812   5.127   0.910 -0.1931  0.1206  0.7325
 3944TIP3    H133247   2.850   5.093   0.991 -0.0304 -0.5065  0.4023
 3944TIP3    H233248   2.813   5.222   0.920  2.2069  0.1613  0.4209
 3945TIP3   OH233249   6.275   0.294   0.400  0.3852 -0.0021  0.7885
 3945TIP3    H133250   6.274   0.307   0.305  0.6919  1.8556  1.0199
 3945TIP3    H233251   6.194   0.247   0.418 -0.8428  1.7178 -0.1202
 3946TIP3   OH233252   1.153   4.271   3.714 -0.2680  0.1132  0.2687
 3946TIP3    H133253   1.085   4.326   3.675 -0.9934  0.0310  1.3789
 3946TIP3    H233254   1.131   4.183   3.686 -0.4671  0.1196  0.3982
 3947TIP3   OH233255   3.767   1.538  12.538  0.6409 -0.0708 -0.8432
 3947TIP3    H133256   3.672   1.544  12.552  0.9268  0.1492  1.0978
 3947TIP3    H233257   3.783   1.444  12.526  0.0602 -0.0142 -2.1788
 3948TIP3   OH233258   1.208   2.875   3.822  0.6991  0.0596  0.3995
 3948TIP3    H133259   1.262   2.951   3.801  1.2065 -0.7161 -1.1146
 3948TIP3    H233260   1.254   2.833   3.894  0.1747  1.4254  1.5682
 3949TIP3   OH233261   1.029   4.654   2.779  0.2797 -0.0452  0.0980
 3949TIP3    H133262   1.054   4.567   2.808 -0.8913 -0.2307  0.5719
 3949TIP3    H233263   0.951   4.675   2.830 -1.7868 -0.3270 -2.8447
 3950TIP3   OH233264   0.798   2.161   1.719 -0.4871  0.0180  0.2549
 3950TIP3    H133265   0.755   2.097   1.776  0.9314 -0.2555  1.0457
 3950TIP3    H233266   0.727   2.217   1.688 -1.4323 -0.5218  1.4057
 3951TIP3   OH233267   6.765   6.518  13.022  0.6322 -0.2170  0.0135
 3951TIP3    H133268   6.718   6.438  13.043  0.5864 -0.5010 -1.1868
 3951TIP3    H233269   6.795   6.506  12.932  0.7189  1.0585 -0.1347
 3952TIP3   OH233270   4.521   4.312   0.897 -0.3304  0.4094  0.0512
 3952TIP3    H133271   4.430   4.298   0.872 -0.9364 -0.3637  2.5491
 3952TIP3    H233272   4.565   4.229   0.880 -0.2251  0.5755 -0.5103
 3953TIP3   OH233273   0.256   3.853  15.676  0.4453  0.4235  0.1922
 3953TIP3    H133274   0.254   3.885  15.766  1.0709 -0.2779  0.4604
 3953TIP3    H233275   0.314   3.777  15.679 -0.4932 -0.3443 -0.5528
 3954TIP3   OH233276   6.721   5.761  13.999  0.0467 -0.1393  0.2299
 3954TIP3    H133277   6.734   5.820  14.073  1.0929 -0.0337 -0.0311
 3954TIP3    H233278   6.707   5.818  13.924  2.8719 -0.1539 -0.3627
 3955TIP3   OH233279   0.209   2.748   2.665  0.0124  0.0004  0.1278
 3955TIP3    H133280   0.218   2.842   2.658  0.9847 -0.1132 -0.1631
 3955TIP3    H233281   0.290   2.712   2.627  0.5771 -0.8808  2.0699
 3956TIP3   OH233282   2.399   4.988   3.427 -0.0924  0.1025 -0.0586
 3956TIP3    H133283   2.472   4.928   3.409 -0.5869 -0.9180  1.2386
 3956TIP3    H233284   2.387   4.983   3.522  0.0811  2.5320  0.1305
 3957TIP3   OH233285   0.749   4.110   1.126  0.2134 -0.0718 -0.8539
 3957TIP3    H133286   0.719   4.030   1.168 -3.5598  1.4640 -0.4249
 3957TIP3    H233287   0.796   4.157   1.194  0.2688 -0.7939 -0.3924
 3958TIP3   OH233288   2.750   3.521   6.107 -0.4088 -0.3068  0.1126
 3958TIP3    H133289   2.676   3.480   6.063 -0.4584  2.1226 -2.1402
 3958TIP3    H233290   2.827   3.482   6.065 -0.4541  0.8876 -1.1167
 3959TIP3   OH233291   3.594   0.193  16.759  0.3308 -0.0765 -0.1887
 3959TIP3    H133292   3.569   0.230  16.844  0.0762  0.9783 -0.7200
 3959TIP3    H233293   3.512   0.189  16.710  0.3264 -1.5094 -0.0806
 3960TIP3   OH233294   3.944   0.096   5.543  0.2384  0.6654  0.5550
 3960TIP3    H133295   3.919   0.107   5.635 -2.3862  1.6716 -0.2081
 3960TIP3    H233296   4.011   0.163   5.529 -1.3160  2.3986  1.0781
 3961TIP3   OH233297   4.825   3.531   2.946 -0.0108  0.0985 -0.1159
 3961TIP3    H133298   4.911   3.489   2.948  0.5120  1.0741 -1.2852
 3961TIP3    H233299   4.773   3.484   3.011  1.0675 -1.2499 -0.2197
 3962TIP3   OH233300   3.364   1.117   0.436  0.2407 -0.2039  0.1292
 3962TIP3    H133301   3.392   1.185   0.375  2.1077 -0.6139  0.5075
 3962TIP3    H233302   3.341   1.164   0.516  1.6264  0.0087  0.4231
 3963TIP3   OH233303   1.191   1.898  13.303  0.1780 -0.1174  0.3852
 3963TIP3    H133304   1.248   1.823  13.286 -1.2834 -0.6475 -2.4675
 3963TIP3    H233305   1.141   1.873  13.380 -0.4809 -2.1996 -0.7005
 3964TIP3   OH233306   4.760   0.347  14.806  0.1551 -0.3279  0.1832
 3964TIP3    H133307   4.774   0.437  14.835 -0.3657  0.0226 -0.6246
 3964TIP3    H233308   4.790   0.347  14.715  1.0843 -1.2243  0.4847
 3965TIP3   OH233309   3.786   6.249  13.366  0.0232 -0.4535  0.3222
 3965TIP3    H133310   3.857   6.313  13.363  1.1332 -1.6518  0.4004
 3965TIP3    H233311   3.764   6.233  13.275  0.0348 -0.2579  0.2869
 3966TIP3   OH233312   4.263   1.833   2.371 -0.3288  0.7842  0.0514
 3966TIP3    H133313   4.316   1.754   2.382 -2.7852 -0.7644  1.0979
 3966TIP3    H233314   4.264   1.849   2.276  0.1589 -0.5270 -0.1791
 3967TIP3   OH233315   3.177   1.159   1.626  0.1550 -0.1379 -0.3283
 3967TIP3    H133316   3.084   1.141   1.613  0.3727 -0.1376 -1.9624
 3967TIP3    H233317   3.185   1.254   1.617  0.3773 -0.1791 -0.5666
 3968TIP3   OH233318   3.291   3.327   3.205  0.1218  0.8622  0.1045
 3968TIP3    H133319   3.256   3.298   3.121  1.8581  0.1431 -0.3860
 3968TIP3    H233320   3.233   3.288   3.270 -1.3118  1.5192 -0.7414
 3969TIP3   OH233321   6.045   5.829  15.061 -0.0509 -0.3022  0.4974
 3969TIP3    H133322   6.125   5.874  15.088 -1.0404  1.4773  0.5349
 3969TIP3    H233323   5.983   5.843  15.133 -0.8842 -0.3435 -0.2002
 3970TIP3   OH233324   1.316   6.382  13.996 -0.2487 -0.2043 -0.8051
 3970TIP3    H133325   1.232   6.425  14.013  0.1578  0.0632  0.6254
 3970TIP3    H233326   1.356   6.373  14.083  0.2441 -2.3039 -1.2220
 3971TIP3   OH233327   6.406   4.769  15.214  0.2071 -0.4109  0.0677
 3971TIP3    H133328   6.369   4.856  15.201  0.7227  0.1775  2.2194
 3971TIP3    H233329   6.331   4.712  15.225 -0.1656 -0.5127 -2.8315
 3972TIP3   OH233330   4.209   3.312  13.119  0.2418  0.2198  0.4176
 3972TIP3    H133331   4.144   3.382  13.132 -0.8492 -1.3191  3.8263
 3972TIP3    H233332   4.286   3.341  13.167 -0.1351 -0.8085  1.6559
 3973TIP3   OH233333   2.794   2.943   2.991 -0.0531 -0.2266  0.4477
 3973TIP3    H133334   2.717   2.912   2.944 -0.1271  0.5629  0.0441
 3973TIP3    H233335   2.823   2.868   3.042 -1.2275 -0.4608  0.7803
 3974TIP3   OH233336   6.159   4.383   6.267 -0.4777  0.2222  0.1857
 3974TIP3    H133337   6.068   4.356   6.279 -0.7853  0.3803 -1.5832
 3974TIP3    H233338   6.157   4.436   6.187  1.0130  1.0090  0.6608
 3975TIP3   OH233339   1.091   6.543   0.706 -0.1883  0.0458 -0.3372
 3975TIP3    H133340   1.133   6.514   0.625 -1.0833  0.5481 -0.9966
 3975TIP3    H233341   1.065   6.633   0.687  0.1215  0.3635  0.7264
 3976TIP3   OH233342   0.462   6.532   1.518 -0.4488  0.6879  0.2411
 3976TIP3    H133343   0.470   6.612   1.570  1.4335  1.8214 -1.6858
 3976TIP3    H233344   0.376   6.537   1.478 -0.1026  2.1086 -0.3665
 3977TIP3   OH233345   5.099   0.051   1.466 -1.0018 -0.2318 -0.3574
 3977TIP3    H133346   5.176   0.050   1.523 -1.6151  0.0447  0.4730
 3977TIP3    H233347   5.032   0.003   1.515 -1.6828  0.4487 -0.6260
 3978TIP3   OH233348   5.650   2.389   3.348  0.0360  0.0088 -0.0636
 3978TIP3    H133349   5.653   2.361   3.256 -0.0678  0.6175 -0.2527
 3978TIP3    H233350   5.655   2.307   3.398  1.3831 -0.2402 -0.5928
 3979TIP3   OH233351   3.999   2.238  13.215  0.1955  0.8712  0.5352
 3979TIP3    H133352   4.085   2.268  13.187  0.2795 -0.4689 -0.7147
 3979TIP3    H233353   3.939   2.276  13.150  0.4517 -2.7476 -1.9811
 3980TIP3   OH233354   6.666   6.192   5.335 -0.4712 -0.1402  0.7540
 3980TIP3    H133355   6.608   6.139   5.281  1.2384 -0.6947 -0.5842
 3980TIP3    H233356   6.697   6.260   5.275 -2.5057  2.3417  2.3925
 3981TIP3   OH233357   4.598   1.754  16.870  0.5125 -0.2510  0.3390
 3981TIP3    H133358   4.551   1.820  16.818 -1.5224 -1.2258  0.9072
 3981TIP3    H233359   4.653   1.709  16.806 -0.8692 -0.4466 -0.7451
 3982TIP3   OH233360   2.648   3.744   4.507 -0.0780 -0.6276  0.0928
 3982TIP3    H133361   2.574   3.703   4.462 -0.2723  0.2198 -0.3598
 3982TIP3    H233362   2.608   3.808   4.565  0.3960  1.2943 -1.6515
 3983TIP3   OH233363   2.785   1.704  11.554 -0.5811  0.1983  0.5691
 3983TIP3    H133364   2.794   1.614  11.522 -0.8437  0.8771 -1.5279
 3983TIP3    H233365   2.849   1.711  11.624  0.3021 -1.2720 -0.0567
 3984TIP3   OH233366   5.285   6.275   1.922 -0.2961 -0.1925  0.1089
 3984TIP3    H133367   5.246   6.279   2.009 -1.8522 -1.8871 -0.4708
 3984TIP3    H233368   5.226   6.326   1.866  0.1087 -0.0102 -0.1558
 3985TIP3   OH233369   2.211   2.554  11.362  0.7497  0.2454  0.1284
 3985TIP3    H133370   2.265   2.626  11.329 -1.4171  1.6073 -0.5223
 3985TIP3    H233371   2.153   2.595  11.426 -0.4391 -0.9304 -0.1818
 3986TIP3   OH233372   0.555   4.793  15.754 -0.2892 -0.1623 -0.4326
 3986TIP3    H133373   0.507   4.750  15.824  0.1947  0.7403  0.4596
 3986TIP3    H233374   0.647   4.788  15.781 -0.0552 -0.2220 -1.2232
 3987TIP3   OH233375   5.858   2.582   1.592 -0.1231 -0.4137  0.2530
 3987TIP3    H133376   5.783   2.639   1.612 -0.2977 -0.4202 -0.3892
 3987TIP3    H233377   5.833   2.537   1.512 -0.8308 -2.8460  1.7731
 3988TIP3   OH233378   0.845   5.567  14.108  0.7136  0.1208  0.3118
 3988TIP3    H133379   0.855   5.472  14.113 -0.6352 -0.0857 -0.8792
 3988TIP3    H233380   0.850   5.587  14.015 -1.3967  0.9513  0.3543
 3989TIP3   OH233381   3.698   6.359  10.965 -0.0981 -0.4929 -0.6319
 3989TIP3    H133382   3.659   6.341  10.879  1.0714 -1.1078 -1.0423
 3989TIP3    H233383   3.695   6.274  11.010  0.6744 -0.5162 -0.6279
 3990TIP3   OH233384   5.266   1.127   0.549 -0.4987  0.2602  0.5684
 3990TIP3    H133385   5.338   1.064   0.557 -0.0782  0.9975  2.9866
 3990TIP3    H233386   5.302   1.198   0.497 -0.0286 -0.1689  0.3049
 3991TIP3   OH233387   2.814   5.763  14.526  0.0301 -0.7821 -0.4424
 3991TIP3    H133388   2.859   5.694  14.477  0.8457 -0.8403  0.3842
 3991TIP3    H233389   2.747   5.718  14.576  0.6772 -0.9963  0.2302
 3992TIP3   OH233390   2.131   4.169  13.569  0.0626 -0.3609 -0.5188
 3992TIP3    H133391   2.121   4.213  13.654  0.0828 -0.8059 -0.2845
 3992TIP3    H233392   2.042   4.160  13.536 -0.0910 -1.6753  0.2182
 3993TIP3   OH233393   5.037   6.759   5.936 -0.4085 -0.7145  0.3480
 3993TIP3    H133394   5.015   6.745   6.028  2.2451 -0.2450  1.0998
 3993TIP3    H233395   5.131   6.743   5.931  0.2597  3.1533 -1.4643
 3994TIP3   OH233396   4.595   4.187   0.126  0.3510  0.3595 -0.5835
 3994TIP3    H133397   4.574   4.206   0.217  1.1360 -1.8405  0.0950
 3994TIP3    H233398   4.641   4.265   0.095 -0.2153  1.2630  0.8081
 3995TIP3   OH233399   6.147   3.523   5.648  0.4287 -0.1253 -0.0248
 3995TIP3    H133400   6.168   3.613   5.624 -0.6219  0.0454 -0.3429
 3995TIP3    H233401   6.130   3.478   5.565  0.2713 -0.4377  0.1713
 3996TIP3   OH233402   2.578   4.507   6.004 -0.2017 -0.1376 -0.2679
 3996TIP3    H133403   2.591   4.490   6.098  2.6518  0.1110 -0.5822
 3996TIP3    H233404   2.510   4.575   6.002 -1.5715 -1.3837  1.5214
 3997TIP3   OH233405   1.491   3.273  10.159  0.2853 -0.4406  0.0788
 3997TIP3    H133406   1.412   3.310  10.119  0.1630  0.2811  0.9663
 3997TIP3    H233407   1.471   3.270  10.252  1.7782  0.9450  0.4754
 3998TIP3   OH233408   5.526   5.701   2.369 -0.1703 -0.0231 -0.0899
 3998TIP3    H133409   5.453   5.648   2.402 -2.3062  1.7256 -1.8844
 3998TIP3    H233410   5.513   5.787   2.409 -0.4429  0.9525 -2.2234
 3999TIP3   OH233411   4.629   2.014  15.729 -0.0422 -0.3916  0.2033
 3999TIP3    H133412   4.638   2.069  15.807  0.5036  1.5722 -1.1983
 3999TIP3    H233413   4.704   1.955  15.733  1.1006  1.0406  0.1330
 4000TIP3   OH233414   4.583   4.580  15.727 -0.1120 -0.5820 -0.1528
 4000TIP3    H133415   4.555   4.662  15.767 -0.3795 -0.8032  0.1154
 4000TIP3    H233416   4.638   4.606  15.653  0.2476 -0.1709  0.2604
 4001TIP3   OH233417   6.097   4.078   5.686  0.2955 -0.4823  0.4600
 4001TIP3    H133418   6.008   4.092   5.718  0.3906 -1.6085  1.2451
 4001TIP3    H233419   6.121   4.160   5.644 -1.0741 -0.1320  0.3457
 4002TIP3   OH233420   3.492   3.779   2.582  0.1062 -0.0458  0.2288
 4002TIP3    H133421   3.507   3.729   2.501 -0.5130 -0.1029  0.1467
 4002TIP3    H233422   3.540   3.860   2.569  1.4532 -0.7732  0.5187
 4003TIP3   OH233423   4.887   2.718  14.715 -0.7356 -0.5198  0.1559
 4003TIP3    H133424   4.820   2.716  14.646  1.3325 -0.7017 -1.9389
 4003TIP3    H233425   4.886   2.630  14.752 -2.2962 -0.2436  0.7875
 4004TIP3   OH233426   6.385   1.796  15.050  0.0666 -0.1003 -0.1499
 4004TIP3    H133427   6.395   1.831  14.961  0.9324 -0.3765 -0.1642
 4004TIP3    H233428   6.438   1.716  15.051  0.4632  0.1667  0.7601
 4005TIP3   OH233429   1.489   0.089  13.689 -0.6797 -0.5968 -0.1365
 4005TIP3    H133430   1.409   0.043  13.714 -0.6189 -0.8047 -0.3229
 4005TIP3    H233431   1.509   0.057  13.601  0.7254 -2.0563  0.7076
 4006TIP3   OH233432   3.340   0.519   0.981 -0.3008 -0.6431 -0.0623
 4006TIP3    H133433   3.370   0.604   1.012 -0.2087 -0.4153 -0.7676
 4006TIP3    H233434   3.312   0.473   1.060  1.0338 -0.5150  0.5060
 4007TIP3   OH233435   1.160   6.311   3.093  0.8411  0.0857 -0.0385
 4007TIP3    H133436   1.208   6.229   3.107 -1.5771 -1.4232 -0.2577
 4007TIP3    H233437   1.078   6.299   3.142 -0.3575  1.6016 -1.6054
 4008TIP3   OH233438   6.588   0.944   0.414  0.0968  0.5388  0.2579
 4008TIP3    H133439   6.540   0.869   0.448 -0.9360  0.2415 -1.7810
 4008TIP3    H233440   6.678   0.930   0.442  0.3448 -2.6002 -1.8565
 4009TIP3   OH233441   4.826   6.608  13.242 -0.0299  0.0068  0.6252
 4009TIP3    H133442   4.817   6.700  13.267  0.1538 -0.0415  0.8742
 4009TIP3    H233443   4.739   6.583  13.210 -0.9663 -0.5928  3.4804
 4010TIP3   OH233444   2.737   4.982   2.284  0.6863  0.3569  0.2571
 4010TIP3    H133445   2.668   4.964   2.348  0.8958 -1.5157 -0.0230
 4010TIP3    H233446   2.772   5.068   2.309  0.1932  0.0152  2.1386
 4011TIP3   OH233447   3.966   2.304  15.288 -0.1858  0.4356 -1.3220
 4011TIP3    H133448   3.990   2.370  15.222 -0.3499  1.8206 -0.0235
 4011TIP3    H233449   4.048   2.286  15.334 -0.4630  0.9490 -0.6163
 4012TIP3   OH233450   3.726   0.191  16.406  0.3125 -0.3724  0.2285
 4012TIP3    H133451   3.641   0.162  16.439  0.9129 -0.7212  1.5293
 4012TIP3    H233452   3.713   0.285  16.389 -0.1198 -0.2366  1.2042
 4013TIP3   OH233453   2.513   2.335   3.128 -0.2390  0.9763  0.4632
 4013TIP3    H133454   2.573   2.265   3.104  0.9465  1.6467  1.4171
 4013TIP3    H233455   2.545   2.411   3.078 -0.7869  1.1333  0.3517
 4014TIP3   OH233456   0.396   3.987  15.931  0.4335  0.4288 -0.1051
 4014TIP3    H133457   0.443   4.043  15.993 -2.2020  1.3537  1.1277
 4014TIP3    H233458   0.410   3.899  15.964 -0.8152  0.9025  1.7474
 4015TIP3   OH233459   4.401   2.804  11.655 -0.0751  0.7046  0.1022
 4015TIP3    H133460   4.317   2.790  11.610  0.7630  0.0449 -1.3015
 4015TIP3    H233461   4.397   2.746  11.731 -0.5728  0.0806 -0.3940
 4016TIP3   OH233462   5.392   1.320   5.092  0.2397  0.5588  0.0374
 4016TIP3    H133463   5.422   1.363   5.172  2.1652 -3.4616  1.6247
 4016TIP3    H233464   5.472   1.282   5.054 -1.2018 -0.6515 -1.8608
 4017TIP3   OH233465   0.153   0.546  16.807  0.6159  0.0519  0.1349
 4017TIP3    H133466   0.119   0.621  16.856  0.1989  0.1390 -0.2876
 4017TIP3    H233467   0.175   0.481  16.874 -0.0026  0.1507  0.4289
 4018TIP3   OH233468   3.653   2.788  12.285 -0.6795  0.1979  0.8222
 4018TIP3    H133469   3.681   2.877  12.263  0.5639 -0.3538  0.1002
 4018TIP3    H233470   3.643   2.790  12.381  2.4175  0.3111  1.2144
 4019TIP3   OH233471   5.739   5.051   0.491  0.4563 -0.1969 -0.0360
 4019TIP3    H133472   5.789   5.132   0.487  0.5215 -0.2569 -0.4251
 4019TIP3    H233473   5.697   5.053   0.578  3.6866 -1.6495  1.6266
 4020TIP3   OH233474   5.063   5.333   1.296  0.3744  0.1397  0.2529
 4020TIP3    H133475   4.981   5.324   1.248  0.7432  2.4253 -0.8596
 4020TIP3    H233476   5.128   5.358   1.230  0.7578  3.9964  1.9553
 4021TIP3   OH233477   4.316   6.508  14.571  0.0947 -0.5717 -0.8401
 4021TIP3    H133478   4.338   6.496  14.479 -0.9896 -0.0439 -1.1824
 4021TIP3    H233479   4.295   6.420  14.603  0.0483 -0.6964 -1.2135
 4022TIP3   OH233480   5.017   3.777   3.566 -0.0741  0.1754 -0.3895
 4022TIP3    H133481   4.946   3.808   3.623 -0.8238  0.3826 -1.4244
 4022TIP3    H233482   5.051   3.855   3.524  0.1731 -0.0327 -0.5793
 4023TIP3   OH233483   1.655   2.783   3.773 -0.0019 -0.3095  0.1587
 4023TIP3    H133484   1.684   2.839   3.844  0.1902  1.2007 -1.0931
 4023TIP3    H233485   1.729   2.778   3.713 -0.6683 -0.3379 -0.6811
 4024TIP3   OH233486   0.872   2.653  15.393 -0.2516 -0.0885 -0.2172
 4024TIP3    H133487   0.823   2.583  15.435 -0.2679  0.5299  0.8159
 4024TIP3    H233488   0.806   2.713  15.359 -0.2565 -1.0621 -1.9821
 4025TIP3   OH233489   3.427   2.623  15.702 -0.3403  0.2509  0.5827
 4025TIP3    H133490   3.516   2.641  15.672 -0.3695  0.4439  0.6139
 4025TIP3    H233491   3.419   2.671  15.784 -0.1785 -0.4783  1.0234
 4026TIP3   OH233492   1.082   5.310  14.909 -0.2491  0.5045 -0.0190
 4026TIP3    H133493   1.155   5.365  14.938 -1.1929  1.2611  0.9557
 4026TIP3    H233494   1.124   5.230  14.878  1.0986  1.4830 -0.8012
 4027TIP3   OH233495   6.373   0.386   3.794 -0.0456 -0.5457 -0.6024
 4027TIP3    H133496   6.426   0.380   3.715  1.0717 -0.8070  0.1520
 4027TIP3    H233497   6.414   0.326   3.855  0.4623  1.3150  0.9378
 4028TIP3   OH233498   4.270   5.503  17.122 -0.0639  0.0311  0.5625
 4028TIP3    H133499   4.202   5.570  17.129 -1.1306 -1.1341  1.6202
 4028TIP3    H233500   4.222   5.422  17.107  1.1443 -0.6703  0.4498
 4029TIP3   OH233501   3.903   6.226  12.325 -0.1461  0.1949 -0.1773
 4029TIP3    H133502   3.959   6.173  12.268  0.4109  1.0033 -0.3867
 4029TIP3    H233503   3.825   6.245  12.272 -0.0966  0.0562 -0.3005
 4030TIP3   OH233504   3.349   1.576   2.900 -0.2752 -0.0354 -0.3209
 4030TIP3    H133505   3.439   1.600   2.878 -1.1768  2.1661 -1.7382
 4030TIP3    H233506   3.312   1.655   2.939 -1.5104 -1.0119  0.4975
 4031TIP3   OH233507   6.366   6.103  13.788 -0.1406 -0.0496 -0.2066
 4031TIP3    H133508   6.382   6.102  13.883  0.9097 -1.0738 -0.3924
 4031TIP3    H233509   6.331   6.016  13.769  3.0051 -1.1055 -1.3214
 4032TIP3   OH233510   4.505   2.111   3.100 -0.1362  0.2274  0.8598
 4032TIP3    H133511   4.598   2.111   3.079 -0.6440 -1.5919 -1.6704
 4032TIP3    H233512   4.497   2.056   3.178  0.7270 -1.2085 -0.0394
 4033TIP3   OH233513   4.110   2.238  12.865  0.4807 -0.1247  0.1193
 4033TIP3    H133514   4.161   2.318  12.854  0.1570  0.0865  0.1426
 4033TIP3    H233515   4.162   2.184  12.925  1.7333 -0.8495 -1.5864
 4034TIP3   OH233516   6.753   1.108   3.164 -0.2795  0.3703  0.4893
 4034TIP3    H133517   6.810   1.185   3.160 -0.3406  0.4938  1.7723
 4034TIP3    H233518   6.676   1.138   3.212 -0.3654 -0.4400  0.8675
 4035TIP3   OH233519   6.093   1.138   4.215 -0.2120  0.2236  0.2950
 4035TIP3    H133520   6.114   1.220   4.171 -0.2203 -0.2588 -0.6235
 4035TIP3    H233521   5.998   1.137   4.221 -0.2501 -0.0141 -0.2861
 4036TIP3   OH233522   5.899   4.348   4.708 -0.2029  0.5706 -0.0639
 4036TIP3    H133523   5.809   4.376   4.691 -0.2909 -0.1419 -0.7952
 4036TIP3    H233524   5.952   4.424   4.686 -0.5712  0.7622 -0.3069
 4037TIP3   OH233525   1.638   1.518   6.514  0.0019  0.2183  0.0553
 4037TIP3    H133526   1.580   1.580   6.471 -0.3102  0.2694  0.5444
 4037TIP3    H233527   1.641   1.547   6.605  0.3572 -0.1094  0.1518
 4038TIP3   OH233528   1.450   1.773  12.078  0.0568 -0.2959 -0.4494
 4038TIP3    H133529   1.442   1.833  12.152 -1.2732 -1.8927  0.7547
 4038TIP3    H233530   1.466   1.829  12.003  1.3100  1.3712  1.0253
 4039TIP3   OH233531   5.190   1.008   6.299  0.5901 -0.3484 -0.8731
 4039TIP3    H133532   5.280   0.977   6.310  0.6313  0.4544  1.2471
 4039TIP3    H233533   5.137   0.928   6.302  1.1013 -0.6828 -0.6777
 4040TIP3   OH233534   2.719   6.751   3.833 -0.4220  0.4070  0.2493
 4040TIP3    H133535   2.716   6.684   3.901 -0.1237  0.0512 -0.0822
 4040TIP3    H233536   2.688   6.706   3.754  0.9258  0.3244 -0.2421
 4041TIP3   OH233537   5.328   5.747  17.182  0.1938  0.3319  0.5738
 4041TIP3    H133538   5.239   5.746  17.148  0.4654 -0.2375 -0.1463
 4041TIP3    H233539   5.321   5.785  17.269 -0.9387 -0.8793  1.0236
 4042TIP3   OH233540   2.943   1.520   0.643 -0.3609 -0.1088 -0.4617
 4042TIP3    H133541   2.941   1.587   0.711 -1.2247 -1.6288  1.0600
 4042TIP3    H233542   2.861   1.533   0.595  1.0840  2.1352 -2.4375
 4043TIP3   OH233543   2.274   4.214  16.788  0.3167  0.2359  0.3654
 4043TIP3    H133544   2.289   4.303  16.821 -1.1459  0.8016 -0.4666
 4043TIP3    H233545   2.206   4.179  16.845  1.2674 -0.5570  1.0225
 4044TIP3   OH233546   0.147   2.469   3.941 -0.1942 -0.3904  0.1553
 4044TIP3    H133547   0.144   2.442   3.850  2.8088 -0.4313  0.0253
 4044TIP3    H233548   0.120   2.561   3.941  0.0219 -0.3310 -0.7917
 4045TIP3   OH233549   4.294   2.155  13.080 -0.7619  0.5404  0.3346
 4045TIP3    H133550   4.344   2.236  13.087 -3.3264  2.1741  0.6108
 4045TIP3    H233551   4.306   2.111  13.164  0.9017  0.4712  0.0646
 4046TIP3   OH233552   4.874   0.985  14.267  0.6831  0.1822 -0.4178
 4046TIP3    H133553   4.962   0.996  14.302  0.4332 -1.7990  0.8818
 4046TIP3    H233554   4.854   0.893  14.280 -0.7880  0.1508 -2.6254
 4047TIP3   OH233555   0.417   2.256   4.427  0.6896 -0.5740 -0.5481
 4047TIP3    H133556   0.476   2.270   4.353  1.5668  3.1308  0.7412
 4047TIP3    H233557   0.339   2.307   4.406 -0.1050 -1.5666 -0.0528
 4048TIP3   OH233558   3.288   1.973  12.781 -0.1043  0.8634 -1.0391
 4048TIP3    H133559   3.217   2.032  12.756  0.1084  1.0277 -1.2555
 4048TIP3    H233560   3.332   2.019  12.853  0.6851  1.4375 -1.8799
 4049TIP3   OH233561   0.912   0.450   1.816 -0.1536 -0.5191  0.0045
 4049TIP3    H133562   0.849   0.513   1.782  0.2988 -0.1632 -0.1680
 4049TIP3    H233563   0.862   0.368   1.822 -0.7379 -0.1545  0.2216
 4050TIP3   OH233564   2.433   5.056   0.449 -0.4301  0.3892 -0.2884
 4050TIP3    H133565   2.495   5.093   0.385  1.3713 -0.0255  1.1749
 4050TIP3    H233566   2.352   5.106   0.435  0.9233  2.5472 -0.6735
 4051TIP3   OH233567   4.080   3.844   6.661 -0.0271 -0.1615 -0.0113
 4051TIP3    H133568   4.138   3.772   6.635  1.4347  2.1300 -3.5703
 4051TIP3    H233569   4.019   3.853   6.587 -0.0480  2.3499  0.2895
 4052TIP3   OH233570   2.722   6.181  11.576 -0.8998  0.1814 -0.6848
 4052TIP3    H133571   2.809   6.176  11.536 -1.3765  3.3608 -2.2640
 4052TIP3    H233572   2.666   6.127  11.519 -0.0149 -1.8937  0.3485
 4053TIP3   OH233573   0.440   4.670  12.999  0.1421 -0.1203  0.4688
 4053TIP3    H133574   0.380   4.740  12.974 -0.6989 -1.2738 -0.8124
 4053TIP3    H233575   0.399   4.589  12.967  1.8959 -1.0358  0.4162
 4054TIP3   OH233576   1.275   6.335   4.017 -0.2983  0.2718  0.0374
 4054TIP3    H133577   1.207   6.269   4.032  0.2186 -0.0398  0.9827
 4054TIP3    H233578   1.228   6.419   4.021 -0.9285 -0.0123 -1.0207
 4055TIP3   OH233579   0.267   6.146  15.906  0.1915 -0.1238  0.0661
 4055TIP3    H133580   0.288   6.234  15.874  3.0709 -0.2485  1.4531
 4055TIP3    H233581   0.352   6.105  15.921 -1.0854 -3.4067 -1.1504
 4056TIP3   OH233582   1.425   0.745  12.213 -0.0433 -0.1627 -0.1071
 4056TIP3    H133583   1.379   0.812  12.263  0.5588 -0.6632  1.1230
 4056TIP3    H233584   1.512   0.782  12.198  0.1592 -0.5078  0.2220
 4057TIP3   OH233585   5.486   6.035   1.024 -0.3501 -0.6372 -0.3782
 4057TIP3    H133586   5.577   6.023   0.998 -0.0923 -0.0843  0.2450
 4057TIP3    H233587   5.441   5.958   0.990  0.4934 -1.3058 -0.0124
 4058TIP3   OH233588   3.609   5.557  12.089 -0.0367 -0.1981 -1.0481
 4058TIP3    H133589   3.678   5.623  12.089  0.2055 -0.4500 -1.4705
 4058TIP3    H233590   3.620   5.511  12.172  1.2831 -1.2494 -1.7824
 4059TIP3   OH233591   2.584   1.680  17.163  0.3420 -0.8285 -0.3434
 4059TIP3    H133592   2.564   1.762  17.209  1.2498 -0.7424 -0.0916
 4059TIP3    H233593   2.499   1.642  17.144 -0.0472 -1.8854  3.2399
 4060TIP3   OH233594   6.319   4.698   3.770 -0.2074  0.2055 -0.4473
 4060TIP3    H133595   6.283   4.786   3.767  0.8602  0.6678 -0.1750
 4060TIP3    H233596   6.391   4.704   3.834  1.7815 -0.1342 -2.5848
 4061TIP3   OH233597   0.885   2.096   5.652 -0.1263 -0.9285  0.0141
 4061TIP3    H133598   0.883   2.097   5.747  1.7927 -1.1243  0.0835
 4061TIP3    H233599   0.921   2.182   5.628 -3.9169  0.5740 -0.7075
 4062TIP3   OH233600   5.984   3.184   2.575 -1.0292 -0.4467  0.5944
 4062TIP3    H133601   6.029   3.267   2.563  2.5776 -2.2692  0.7897
 4062TIP3    H233602   5.896   3.208   2.604  0.2207  3.2340  1.5756
 4063TIP3   OH233603   3.929   6.018   4.932 -0.3031 -0.1967 -0.4265
 4063TIP3    H133604   4.001   6.052   4.878 -0.7640  1.4715 -0.0290
 4063TIP3    H233605   3.916   5.929   4.901  1.2361 -0.1613 -1.2289
 4064TIP3   OH233606   5.569   6.026  16.540 -0.3632 -0.5066  0.9394
 4064TIP3    H133607   5.636   6.074  16.491 -1.7522 -1.0328 -1.5445
 4064TIP3    H233608   5.494   6.085  16.543  0.2668  0.2271  4.0298
 4065TIP3   OH233609   3.474   2.349   5.952  0.0398  0.1076  0.4360
 4065TIP3    H133610   3.534   2.422   5.966 -0.7576  0.7958  0.3274
 4065TIP3    H233611   3.405   2.385   5.895 -0.3753 -0.7191  0.4057
 4066TIP3   OH233612   0.136   5.445   1.150  0.4577  0.2179  0.4923
 4066TIP3    H133613   0.103   5.355   1.157  0.3350  0.3104  1.0966
 4066TIP3    H233614   0.057   5.499   1.147  0.5321  0.3044  0.1194
 4067TIP3   OH233615   1.331   5.568   5.705 -0.1115  0.2984  0.0445
 4067TIP3    H133616   1.419   5.602   5.720 -0.6711  1.7023  0.2302
 4067TIP3    H233617   1.329   5.485   5.753  0.9160  0.5378  0.5195
 4068TIP3   OH233618   2.120   0.948   1.955  0.3476 -0.1672 -0.1711
 4068TIP3    H133619   2.212   0.922   1.949  0.0900 -1.2987  0.6088
 4068TIP3    H233620   2.114   0.998   2.036  0.2204 -0.3295 -0.0807
 4069TIP3   OH233621   5.480   5.670  11.220  0.1594 -0.0125 -0.8908
 4069TIP3    H133622   5.434   5.747  11.254 -0.6465  0.2129 -2.4342
 4069TIP3    H233623   5.572   5.695  11.218  0.2313 -0.0602  1.1725
 4070TIP3   OH233624   2.802   1.812   2.329 -0.1646 -0.5093  0.4870
 4070TIP3    H133625   2.752   1.848   2.255 -3.2892 -1.7068  1.9219
 4070TIP3    H233626   2.759   1.848   2.406 -0.0036 -3.0791  1.8156
 4071TIP3   OH233627   4.468   4.454   2.479 -0.4838 -0.3827  0.6606
 4071TIP3    H133628   4.423   4.528   2.438  0.0924  1.8345  3.7984
 4071TIP3    H233629   4.558   4.460   2.447 -0.1909  0.9364  1.6975
 4072TIP3   OH233630   4.106   6.560  13.225  0.0598  0.2109 -0.1255
 4072TIP3    H133631   4.106   6.655  13.215 -0.8266  0.6295  3.3817
 4072TIP3    H233632   4.195   6.538  13.251 -0.6297  0.5427  2.6195
 4073TIP3   OH233633   4.737   2.622   5.804  0.0290  0.0045  0.2997
 4073TIP3    H133634   4.668   2.563   5.773  0.1219 -0.2618  0.5964
 4073TIP3    H233635   4.773   2.661   5.724 -1.0865  0.8521  0.2033
 4074TIP3   OH233636   0.826   5.546  15.058  0.4600  0.6625 -0.2979
 4074TIP3    H133637   0.820   5.634  15.095 -1.1451  0.7860 -0.8211
 4074TIP3    H233638   0.735   5.518  15.046  0.9486 -0.8732 -0.6069
 4075TIP3   OH233639   1.566   3.027   2.884  0.3544 -0.6955  0.2702
 4075TIP3    H133640   1.638   2.969   2.857  2.2912  1.2360  1.1746
 4075TIP3    H233641   1.598   3.069   2.964 -2.1226 -0.3863  1.1271
 4076TIP3   OH233642   1.932   4.962   3.684  0.2433 -0.6351 -0.1610
 4076TIP3    H133643   1.944   4.900   3.756  1.2331  0.8059  0.9302
 4076TIP3    H233644   2.012   4.954   3.632  0.7827  0.4075  0.5065
 4077TIP3   OH233645   0.476   2.348  15.218  0.3265  0.2924  0.0423
 4077TIP3    H133646   0.403   2.334  15.157 -0.1090  2.1853  0.1022
 4077TIP3    H233647   0.445   2.313  15.301 -0.7764  1.6507  0.2236
 4078TIP3   OH233648   2.326   0.624   4.689 -0.1529 -0.3287 -0.2020
 4078TIP3    H133649   2.239   0.657   4.712 -0.2393 -0.9297  0.3553
 4078TIP3    H233650   2.386   0.690   4.721 -0.3282 -0.6622  0.8408
 4079TIP3   OH233651   0.616   4.561  11.241 -0.4218  0.3104 -0.3960
 4079TIP3    H133652   0.634   4.646  11.280  0.1957 -0.3124  0.6937
 4079TIP3    H233653   0.701   4.532  11.207 -0.3553 -0.4553  0.4077
 4080TIP3   OH233654   1.745   6.265   3.002  0.1369  0.0083 -0.2129
 4080TIP3    H133655   1.806   6.208   3.048  1.4292  1.9376  0.5047
 4080TIP3    H233656   1.781   6.272   2.913  0.5166  0.5018 -0.0192
 4081TIP3   OH233657   1.313   5.153  15.637 -0.5873 -0.0203 -0.5234
 4081TIP3    H133658   1.399   5.118  15.613  0.4632  2.6241 -0.7512
 4081TIP3    H233659   1.320   5.172  15.730 -0.7994  0.5703 -0.6298
 4082TIP3   OH233660   2.281   5.851  13.737 -0.6100  0.3638 -0.1216
 4082TIP3    H133661   2.215   5.869  13.803 -0.9663  1.6869 -0.8128
 4082TIP3    H233662   2.362   5.836  13.787 -1.3361 -0.8439  0.6975
 4083TIP3   OH233663   4.646   1.286  16.773 -0.4702 -0.0209 -0.1446
 4083TIP3    H133664   4.663   1.212  16.831 -1.3323  0.0408  0.1917
 4083TIP3    H233665   4.609   1.246  16.694  0.3959 -0.0752 -0.5267
 4084TIP3   OH233666   1.898   1.670   2.966  0.0358 -0.3445  0.2248
 4084TIP3    H133667   1.947   1.742   2.926 -2.0723  1.0544  0.0272
 4084TIP3    H233668   1.902   1.688   3.060 -1.2429  0.5733  0.1198
 4085TIP3   OH233669   5.065   4.490  12.979 -0.0534  0.3987 -0.2081
 4085TIP3    H133670   4.981   4.535  12.979  0.0093  0.5152 -0.0911
 4085TIP3    H233671   5.075   4.456  13.068  0.3203  0.9415 -0.0421
 4086TIP3   OH233672   0.882   1.635   4.962  0.3547 -0.1470 -0.9830
 4086TIP3    H133673   0.873   1.724   4.927 -2.6661 -0.2934 -0.6584
 4086TIP3    H233674   0.938   1.645   5.039  2.0019  1.0856 -2.2904
 4087TIP3   OH233675   1.036   2.783   3.212  0.6217  0.0974  0.4430
 4087TIP3    H133676   1.113   2.744   3.171 -0.8061  0.7751 -3.0377
 4087TIP3    H233677   1.047   2.877   3.200 -1.1675  0.1603 -1.0244
 4088TIP3   OH233678   1.682   4.229   0.760  0.1663  0.2181  0.2991
 4088TIP3    H133679   1.769   4.268   0.767 -0.0650  0.7731  0.1226
 4088TIP3    H233680   1.681   4.189   0.674  1.1320 -1.9835  1.2825
 4089TIP3   OH233681   6.133   6.182   5.043 -0.6442  0.3446  0.1643
 4089TIP3    H133682   6.043   6.203   5.068 -0.5630  0.6652  0.1927
 4089TIP3    H233683   6.166   6.129   5.115 -1.4415 -1.4424 -0.7543
 4090TIP3   OH233684   3.325   0.653   4.174  0.2113 -0.1677  0.5035
 4090TIP3    H133685   3.371   0.583   4.128  0.7139  0.2416  0.3749
 4090TIP3    H233686   3.278   0.700   4.105  1.1019  0.5511  0.3635
 4091TIP3   OH233687   5.491   6.534  11.985 -0.0973  0.3637  0.6723
 4091TIP3    H133688   5.555   6.482  12.034 -0.2849 -0.9380 -0.4313
 4091TIP3    H233689   5.544   6.584  11.923  0.0305  1.0535  1.3243
 4092TIP3   OH233690   3.606   2.948   4.711 -0.3748 -0.7654  0.2022
 4092TIP3    H133691   3.587   2.866   4.664 -0.5179  0.5889 -2.1907
 4092TIP3    H233692   3.695   2.935   4.746  0.6133 -1.0522 -2.2872
 4093TIP3   OH233693   0.663   4.194  15.970 -0.2700 -0.1059  0.1299
 4093TIP3    H133694   0.674   4.288  15.979 -0.8601 -0.2476  2.9949
 4093TIP3    H233695   0.732   4.156  16.025 -0.6515 -1.3174 -0.1952
 4094TIP3   OH233696   5.315   1.434  12.436 -0.3734  0.3657 -1.0535
 4094TIP3    H133697   5.363   1.514  12.460  0.2988 -0.4308  0.2831
 4094TIP3    H233698   5.341   1.370  12.501 -2.6904 -0.3085 -0.7520
 4095TIP3   OH233699   5.353   0.050  16.002 -0.0376 -0.6649  0.4970
 4095TIP3    H133700   5.292   0.049  16.075  1.0305  1.5907  1.4628
 4095TIP3    H233701   5.306   0.094  15.931 -0.0112 -0.1096  0.8217
 4096TIP3   OH233702   6.518   0.416   5.689 -0.1492 -0.3471  0.0184
 4096TIP3    H133703   6.466   0.344   5.724 -0.5643 -0.2031 -0.3010
 4096TIP3    H233704   6.609   0.388   5.702 -0.3006 -1.8846 -2.0662
 4097TIP3   OH233705   3.616   1.905   1.735 -0.2164 -0.4972  0.4588
 4097TIP3    H133706   3.691   1.964   1.747  0.1423 -0.9213  0.2996
 4097TIP3    H233707   3.554   1.931   1.803  0.5320 -0.8679  1.2881
 4098TIP3   OH233708   1.840   5.040   5.267  0.6256 -0.0473  0.4298
 4098TIP3    H133709   1.786   5.097   5.322 -0.1034 -0.2285 -0.0735
 4098TIP3    H233710   1.838   4.955   5.311 -0.3928 -0.3277 -0.1414
 4099TIP3   OH233711   4.957   2.533  15.712  0.0569 -0.1403  0.0791
 4099TIP3    H133712   4.996   2.510  15.628 -1.2390  0.1095 -0.5948
 4099TIP3    H233713   4.955   2.629  15.711 -0.4615 -0.1491  0.1597
 4100TIP3   OH233714   3.214   0.104   3.767 -0.9071 -0.0498  0.0230
 4100TIP3    H133715   3.121   0.124   3.751 -0.2176  2.3048 -1.4265
 4100TIP3    H233716   3.224   0.112   3.862 -2.1041  0.1117  0.1478
 4101TIP3   OH233717   6.592   2.878  12.564 -0.0399  0.2825 -0.0240
 4101TIP3    H133718   6.561   2.958  12.606  1.4194  0.9909 -0.2535
 4101TIP3    H233719   6.671   2.905  12.517 -0.9345 -0.7577 -2.1857
 4102TIP3   OH233720   1.974   2.519   5.813  0.1016 -0.2332 -0.0512
 4102TIP3    H133721   1.924   2.442   5.842  2.5891 -1.7136  0.3935
 4102TIP3    H233722   1.938   2.591   5.864  0.3135 -1.7626  2.3157
 4103TIP3   OH233723   2.844   6.634   4.932  0.0537 -0.2435  0.4411
 4103TIP3    H133724   2.799   6.598   4.856 -0.8831 -1.2415  1.4619
 4103TIP3    H233725   2.820   6.577   5.005  0.7654  0.8187  1.5485
 4104TIP3   OH233726   1.154   5.036   5.046  0.0502 -0.2029  0.6538
 4104TIP3    H133727   1.222   5.101   5.027 -0.6440 -0.0294 -1.2804
 4104TIP3    H233728   1.192   4.952   5.021 -1.1697  0.1160 -2.4461
 4105TIP3   OH233729   2.559   6.612  14.051 -0.3826  0.4538 -0.3515
 4105TIP3    H133730   2.505   6.681  14.012 -0.7900  0.1083 -0.3904
 4105TIP3    H233731   2.649   6.644  14.039 -0.5638  0.9419 -0.4419
 4106TIP3   OH233732   3.798   2.229  11.372  0.4323  0.2898  0.0785
 4106TIP3    H133733   3.802   2.176  11.293  1.1636  0.0979  0.2485
 4106TIP3    H233734   3.727   2.292  11.355 -1.0105 -1.2621  0.2085
 4107TIP3   OH233735   2.513   0.847  11.845 -0.3990 -0.2119 -0.3404
 4107TIP3    H133736   2.423   0.880  11.839 -0.5315 -0.6454 -0.7660
 4107TIP3    H233737   2.542   0.873  11.932 -0.7570  0.3833 -0.3947
 4108TIP3   OH233738   3.596   0.933  12.260 -0.2166 -0.4708 -0.0456
 4108TIP3    H133739   3.502   0.942  12.243  0.0778  1.2285 -0.8212
 4108TIP3    H233740   3.638   0.987  12.194  1.2889 -0.6598  0.7418
 4109TIP3   OH233741   5.961   2.229   5.467  0.6126 -0.4463 -0.1799
 4109TIP3    H133742   5.902   2.273   5.405 -1.9545 -1.7439  1.2296
 4109TIP3    H233743   6.048   2.262   5.445 -0.6190  1.5509 -2.3561
 4110TIP3   OH233744   6.196   6.340  15.330 -0.1834 -0.2145  0.7936
 4110TIP3    H133745   6.291   6.328  15.326 -0.0575 -0.1677  2.7886
 4110TIP3    H233746   6.159   6.253  15.315  0.2659 -0.6178  1.9432
 4111TIP3   OH233747   2.404   3.281   6.339  0.4537 -0.2218  0.7197
 4111TIP3    H133748   2.347   3.348   6.376  0.4849 -0.2748  0.8681
 4111TIP3    H233749   2.418   3.308   6.249  1.6844  0.7772  1.1966
 4112TIP3   OH233750   4.304   2.142  15.685  0.1179  0.1708 -0.0349
 4112TIP3    H133751   4.209   2.151  15.677  0.0296 -0.1676  0.5881
 4112TIP3    H233752   4.332   2.222  15.729 -0.2694 -1.0963  2.5806
 4113TIP3   OH233753   6.666   2.777  13.540 -0.0292 -0.3544 -0.8303
 4113TIP3    H133754   6.640   2.841  13.474 -0.5638  0.1422 -0.1425
 4113TIP3    H233755   6.673   2.694  13.492 -1.1977 -0.1610 -1.3517
 4114TIP3   OH233756   4.083   2.649  13.145  0.6876  0.1139 -0.4060
 4114TIP3    H133757   4.159   2.597  13.118  1.5957  0.5069  1.3678
 4114TIP3    H233758   4.118   2.713  13.207 -0.8671  1.1831 -0.6037
 4115TIP3   OH233759   1.125   5.545   0.306 -0.2626 -0.2322 -0.0519
 4115TIP3    H133760   1.056   5.609   0.292 -1.5193 -1.1636  1.5796
 4115TIP3    H233761   1.091   5.464   0.267 -0.2472 -0.7579  0.9866
 4116TIP3   OH233762   2.755   2.818  16.238  0.9415  0.0183 -1.0191
 4116TIP3    H133763   2.710   2.881  16.294  0.5276 -1.4045  0.2886
 4116TIP3    H233764   2.727   2.733  16.271  2.4127 -0.8650 -1.9951
 4117TIP3   OH233765   6.174   3.122   3.263 -0.9236 -0.1864 -0.1069
 4117TIP3    H133766   6.194   3.211   3.232 -2.1580  0.4144  0.8039
 4117TIP3    H233767   6.079   3.119   3.268 -0.9317 -1.7805 -0.7202
 4118TIP3   OH233768   5.325   5.254   2.011  0.3363 -0.0441  0.3553
 4118TIP3    H133769   5.385   5.327   2.027  0.1950  0.0980  0.2377
 4118TIP3    H233770   5.261   5.261   2.082  0.1431  0.1337  0.1618
 4119TIP3   OH233771   6.020   5.402  15.102  0.1297  0.8821 -0.7976
 4119TIP3    H133772   6.096   5.368  15.149 -0.8590  0.2824  0.3927
 4119TIP3    H233773   5.957   5.423  15.170 -0.4959  2.0886 -1.7344
 4120TIP3   OH233774   3.824   5.969   2.752 -0.4276 -0.1646  0.2105
 4120TIP3    H133775   3.874   5.920   2.687  2.8432 -0.5342  2.8272
 4120TIP3    H233776   3.734   5.938   2.743 -0.1482  0.0885 -4.3200
 4121TIP3   OH233777   2.997   0.683   0.880 -0.3700  0.0553  0.6614
 4121TIP3    H133778   3.009   0.593   0.910 -0.4123 -0.1161  0.1704
 4121TIP3    H233779   3.039   0.685   0.794 -2.0544 -0.0131 -0.1903
 4122TIP3   OH233780   1.770   0.340   1.555 -0.2653 -0.9475  0.3174
 4122TIP3    H133781   1.851   0.290   1.569  0.2308 -0.0322  0.7172
 4122TIP3    H233782   1.701   0.273   1.557  0.5693 -1.9056 -1.2614
 4123TIP3   OH233783   4.668   1.209  15.068 -0.7190 -0.3896  0.3357
 4123TIP3    H133784   4.587   1.180  15.027 -1.8942  1.6844  1.0813
 4123TIP3    H233785   4.734   1.205  14.998 -1.5790 -1.5497 -0.4243
 4124TIP3   OH233786   3.235   3.544   2.513  0.2343  0.0994  0.3023
 4124TIP3    H133787   3.306   3.480   2.510  0.1532  0.0458 -0.4244
 4124TIP3    H233788   3.280   3.629   2.516  0.3321  0.0406  0.5751
 4125TIP3   OH233789   1.675   5.792  13.636 -0.0535 -0.0199 -0.0672
 4125TIP3    H133790   1.708   5.757  13.553  1.2023  1.5718 -0.2618
 4125TIP3    H233791   1.586   5.823  13.616  0.0523 -0.1194 -0.6819
 4126TIP3   OH233792   6.012   3.805   0.802 -0.3041 -0.4131 -0.2143
 4126TIP3    H133793   5.970   3.889   0.785 -1.2032 -0.9170 -0.4898
 4126TIP3    H233794   6.037   3.772   0.716 -0.7602 -0.8474 -0.1829
 4127TIP3   OH233795   4.260   0.836   5.724 -0.0924  0.0271  0.1930
 4127TIP3    H133796   4.322   0.883   5.669  1.1532 -2.4994 -0.6370
 4127TIP3    H233797   4.280   0.865   5.813  0.0171  1.7267 -0.3678
 4128TIP3   OH233798   5.942   2.068  16.282 -0.4619  0.0999 -0.2791
 4128TIP3    H133799   5.870   2.042  16.340 -2.1019 -0.4352 -2.4724
 4128TIP3    H233800   5.973   1.986  16.243 -0.0877  0.5541 -0.9518
 4129TIP3   OH233801   2.652   4.346   6.515  0.1329  0.4368 -0.0594
 4129TIP3    H133802   2.739   4.322   6.483  0.5721  0.8251  0.8331
 4129TIP3    H233803   2.666   4.369   6.607 -0.9318  0.4010  0.1114
 4130TIP3   OH233804   6.631   4.111   0.540  0.8335  0.5467  1.0346
 4130TIP3    H133805   6.594   4.180   0.595  0.1762  1.2840 -0.2966
 4130TIP3    H233806   6.554   4.067   0.503  1.2711  0.5105  0.1612
 4131TIP3   OH233807   2.054   6.190  12.408  0.1527  0.3249  0.1292
 4131TIP3    H133808   2.106   6.208  12.329  1.1550  0.3303  0.7830
 4131TIP3    H233809   2.084   6.104  12.437  1.5728  1.3879  1.8968
 4132TIP3   OH233810   6.276   1.978   0.855  0.5490  0.5986  0.0257
 4132TIP3    H133811   6.208   1.912   0.870  0.7766 -0.0218 -1.5722
 4132TIP3    H233812   6.242   2.033   0.785  1.0867  1.1602  0.1950
 4133TIP3   OH233813   1.072   0.220   0.507  0.2571  0.4574 -0.0336
 4133TIP3    H133814   0.999   0.274   0.538 -0.1952  1.1611 -2.2713
 4133TIP3    H233815   1.138   0.283   0.478  1.0370 -0.1950  0.2942
 4134TIP3   OH233816   1.613   3.660   2.633  0.3727  0.3481  0.0730
 4134TIP3    H133817   1.545   3.602   2.598  2.0254 -0.5872 -1.7096
 4134TIP3    H233818   1.599   3.744   2.588  0.4802  0.0996 -0.4371
 4135TIP3   OH233819   5.693   1.575  14.376  0.1875 -0.1226  0.1516
 4135TIP3    H133820   5.749   1.542  14.446 -0.4744  1.7891  1.6611
 4135TIP3    H233821   5.604   1.556  14.405 -0.0957  0.6907 -0.1487
 4136TIP3   OH233822   1.436   5.490  16.433  0.3780 -0.0007  0.8294
 4136TIP3    H133823   1.528   5.511  16.415  0.0727  0.5733 -0.0882
 4136TIP3    H233824   1.400   5.571  16.470 -0.6154  0.9280 -2.0338
 4137TIP3   OH233825   3.830   4.227  13.895 -0.2760 -0.7941 -0.5157
 4137TIP3    H133826   3.894   4.182  13.839  0.8237  2.6464 -2.1612
 4137TIP3    H233827   3.879   4.299  13.934 -2.1914 -0.4850  1.4014
 4138TIP3   OH233828   0.280   0.635  16.042  0.4181  0.4965  0.1818
 4138TIP3    H133829   0.349   0.676  15.989  2.0061 -0.0152  1.8175
 4138TIP3    H233830   0.310   0.546  16.057  0.4335  0.8771  2.6558
 4139TIP3   OH233831   4.581   2.829  16.830  0.0278  0.0285 -0.2133
 4139TIP3    H133832   4.492   2.830  16.795 -0.2229  0.7310  0.4201
 4139TIP3    H233833   4.619   2.912  16.800  0.2967 -0.0431 -0.0724
 4140TIP3   OH233834   3.899   6.687  14.156  0.4769 -0.0077  0.3534
 4140TIP3    H133835   3.992   6.667  14.148  0.4576  0.5635 -1.6649
 4140TIP3    H233836   3.874   6.721  14.070 -1.2747  1.2379  1.3190
 4141TIP3   OH233837   1.493   1.074  13.667 -0.3183 -0.0485  0.5159
 4141TIP3    H133838   1.585   1.051  13.654  0.1977  2.1532  0.0907
 4141TIP3    H233839   1.487   1.096  13.760 -0.7448 -1.5772  0.8599
 4142TIP3   OH233840   5.744   2.074  14.918  0.2654  0.0751 -0.1944
 4142TIP3    H133841   5.718   2.152  14.967  1.2381  0.9817 -1.1011
 4142TIP3    H233842   5.836   2.089  14.896  0.9678 -2.0704  1.0326
 4143TIP3   OH233843   5.461   6.648   5.203  0.0052 -0.3467  0.6665
 4143TIP3    H133844   5.521   6.597   5.258  0.4951  0.1562  0.5977
 4143TIP3    H233845   5.464   6.736   5.239 -0.4557 -0.2485  0.4651
 4144TIP3   OH233846   2.780   3.083   6.323 -0.2159  0.8583  0.2582
 4144TIP3    H133847   2.715   3.146   6.353  0.7728  1.7932  0.4747
 4144TIP3    H233848   2.864   3.117   6.356  0.2984 -0.7082  0.6121
 4145TIP3   OH233849   5.216   0.791  13.769  0.0384 -0.1542 -0.1049
 4145TIP3    H133850   5.229   0.819  13.678  0.1008  0.4652  0.0889
 4145TIP3    H233851   5.171   0.707  13.763 -0.5460  0.2017 -0.6939
 4146TIP3   OH233852   4.079   4.605   0.134  0.3202 -0.7274 -0.9953
 4146TIP3    H133853   4.030   4.532   0.097 -1.4562 -0.6050  1.0561
 4146TIP3    H233854   4.118   4.569   0.215  0.4034  0.2621 -0.5891
 4147TIP3   OH233855   1.956   3.240   3.998 -0.5060 -0.0727  0.1375
 4147TIP3    H133856   1.938   3.321   3.951 -0.3989 -0.0479  0.1387
 4147TIP3    H233857   1.876   3.223   4.048 -0.6314 -0.1167 -0.0777
 4148TIP3   OH233858   5.355   3.544   3.878 -0.4310 -0.1923  0.4600
 4148TIP3    H133859   5.351   3.481   3.950  1.2251  0.9592  1.6138
 4148TIP3    H233860   5.397   3.496   3.807 -1.3284 -1.0914  0.5262
 4149TIP3   OH233861   2.923   1.975   2.881 -0.1940  0.0515 -0.6939
 4149TIP3    H133862   2.950   1.892   2.919 -1.2338  0.5304  1.1166
 4149TIP3    H233863   2.956   1.971   2.791  0.5605 -1.9208 -0.3645
 4150TIP3   OH233864   5.675   3.460   0.385 -0.5362 -0.2333 -0.4916
 4150TIP3    H133865   5.713   3.532   0.333 -0.8333  0.9881  0.9608
 4150TIP3    H233866   5.581   3.465   0.367 -0.3858 -1.2756 -1.6286
 4151TIP3   OH233867   2.861   0.501   4.988  0.2052 -0.5506  0.0934
 4151TIP3    H133868   2.957   0.504   4.983  0.2441  0.6603  1.1505
 4151TIP3    H233869   2.833   0.477   4.900  1.4485  0.3203 -0.5647
 4152TIP3   OH233870   5.859   1.026   5.759 -0.1937  0.7528  0.6839
 4152TIP3    H133871   5.807   0.952   5.727  1.1618 -0.1084  0.4177
 4152TIP3    H233872   5.908   1.055   5.682  1.2029  0.2806  1.3865
 4153TIP3   OH233873   1.358   1.885   3.449 -0.5651  0.5234  0.2858
 4153TIP3    H133874   1.448   1.867   3.477 -0.2182  1.5176 -0.1692
 4153TIP3    H233875   1.327   1.952   3.509 -1.4721 -0.7487  1.2720
 4154TIP3   OH233876   4.391   4.333  13.848 -0.6469  0.5166 -0.6375
 4154TIP3    H133877   4.378   4.238  13.851 -1.8487  0.6990 -0.0937
 4154TIP3    H233878   4.331   4.363  13.781 -0.2083  0.8983 -0.8629
 4155TIP3   OH233879   2.120   0.627  16.631  0.2552  0.6355  0.0401
 4155TIP3    H133880   2.175   0.661  16.701  1.5786 -0.1416 -0.6077
 4155TIP3    H233881   2.167   0.649  16.551 -0.1023 -0.5417 -0.5023
 4156TIP3   OH233882   2.030   1.378  16.059 -0.4237  0.2470 -0.4061
 4156TIP3    H133883   2.036   1.473  16.051  1.7768  0.0450 -1.5271
 4156TIP3    H233884   2.062   1.359  16.147 -0.6374  0.5289 -0.2661
 4157TIP3   OH233885   1.865   4.731   5.348 -0.0258  0.5229  0.3235
 4157TIP3    H133886   1.809   4.743   5.424  0.2829 -0.4538  0.7006
 4157TIP3    H233887   1.812   4.681   5.286 -0.5895  2.0447 -0.4637
 4158TIP3   OH233888   5.249   6.764   5.745 -0.3722  0.3592  0.3249
 4158TIP3    H133889   5.220   6.716   5.667 -1.5669  1.8493 -0.2013
 4158TIP3    H233890   5.296   6.840   5.709  0.2108  0.3623  1.0902
 4159TIP3   OH233891   4.628   6.742  16.983 -0.0159  0.0737  0.2669
 4159TIP3    H133892   4.593   6.653  16.977 -0.7201  0.3461  0.1847
 4159TIP3    H233893   4.718   6.732  17.013  0.0261 -0.6868 -0.1128
 4160TIP3   OH233894   4.908   1.399  13.320 -0.5434 -0.8018  0.6027
 4160TIP3    H133895   4.980   1.460  13.306 -0.4147 -0.9987  0.4030
 4160TIP3    H233896   4.832   1.454  13.338  0.5608 -0.6404  5.3972
 4161TIP3   OH233897   2.129   5.507  15.977 -0.8984  0.3798  0.0979
 4161TIP3    H133898   2.155   5.496  16.068 -0.3225 -0.6374 -0.1785
 4161TIP3    H233899   2.139   5.601  15.960 -0.5976  0.5034  0.9548
 4162TIP3   OH233900   0.030   5.210   0.537  0.1479  0.5273  0.7528
 4162TIP3    H133901   0.125   5.195   0.531  0.1211  0.8546 -0.7687
 4162TIP3    H233902   0.009   5.261   0.458 -1.1881  1.0337  1.4180
 4163TIP3   OH233903   6.380   6.724   3.183 -0.2523 -0.5871 -0.3626
 4163TIP3    H133904   6.338   6.791   3.236 -0.0528 -0.7348 -0.0137
 4163TIP3    H233905   6.447   6.686   3.241 -0.5672 -1.2910 -0.4475
 4164TIP3   OH233906   1.460   2.666   2.448 -0.0704 -0.3229  0.7178
 4164TIP3    H133907   1.451   2.747   2.398  0.9816  1.1404  2.8113
 4164TIP3    H233908   1.538   2.623   2.411  0.3074  0.4196  0.6543
 4165TIP3   OH233909   4.497   5.835   5.107 -0.5468 -0.6933 -0.1513
 4165TIP3    H133910   4.410   5.833   5.067 -0.5661 -1.7928 -0.0579
 4165TIP3    H233911   4.500   5.920   5.151 -0.7563  0.3021 -1.9556
 4166TIP3   OH233912   6.214   4.150   5.048  0.0745  0.3849 -0.0520
 4166TIP3    H133913   6.251   4.212   4.985 -0.7790  0.0539 -0.8979
 4166TIP3    H233914   6.177   4.205   5.117  0.4859  0.7777 -0.1473
 4167TIP3   OH233915   2.338   0.159   4.720  0.4642  0.7517  0.4179
 4167TIP3    H133916   2.383   0.100   4.659  1.2494  1.5230  0.2453
 4167TIP3    H233917   2.389   0.152   4.801  1.0667  1.8462  0.1354
 4168TIP3   OH233918   0.842   3.304  16.469  0.3075 -0.3278 -0.4023
 4168TIP3    H133919   0.901   3.229  16.479 -0.1572 -0.5922  0.3511
 4168TIP3    H233920   0.782   3.277  16.399  0.1043 -0.6798 -0.0900
 4169TIP3   OH233921   4.229   3.869  11.185 -0.3409  0.2410  0.2842
 4169TIP3    H133922   4.192   3.794  11.137  0.4012 -0.7979  1.3156
 4169TIP3    H233923   4.222   3.942  11.124 -1.9017 -0.4696 -0.4211
 4170TIP3   OH233924   0.145   5.859  11.895  0.0820 -0.1079  0.4647
 4170TIP3    H133925   0.100   5.792  11.843 -1.7113  0.1153  1.6504
 4170TIP3    H233926   0.168   5.927  11.832  2.5785 -2.1240 -0.8744
 4171TIP3   OH233927   0.177   4.236  13.327 -0.3086  0.1392  0.2209
 4171TIP3    H133928   0.217   4.194  13.403 -1.1570  1.7418  1.5471
 4171TIP3    H233929   0.158   4.163  13.268 -0.9594 -1.2645  2.1272
 4172TIP3   OH233930   3.348   3.130   2.477  0.4938 -0.0401  0.3016
 4172TIP3    H133931   3.381   3.216   2.453 -0.4385  0.3451  0.3725
 4172TIP3    H233932   3.323   3.138   2.569  0.1423 -0.3015  0.2334
 4173TIP3   OH233933   4.381   4.250   5.700 -0.7445 -0.2113 -0.2661
 4173TIP3    H133934   4.436   4.229   5.624  0.5456  1.4184  0.1802
 4173TIP3    H233935   4.436   4.308   5.753 -1.1140 -2.3422  2.5631
 4174TIP3   OH233936   2.347   4.834  12.715 -0.5286  0.3778 -0.2642
 4174TIP3    H133937   2.356   4.913  12.661  0.6858 -0.4202 -1.2691
 4174TIP3    H233938   2.358   4.762  12.653 -1.0338 -0.5677  0.7487
 4175TIP3   OH233939   1.366   6.403  14.277 -0.1964  0.2261  0.1324
 4175TIP3    H133940   1.273   6.419  14.264  0.1305  2.4263  0.4276
 4175TIP3    H233941   1.374   6.377  14.369 -0.4588  0.4516  0.2174
 4176TIP3   OH233942   6.714   5.267  11.201  0.0447  0.3509 -0.4747
 4176TIP3    H133943   6.650   5.199  11.224 -0.2412  0.3126 -1.3774
 4176TIP3    H233944   6.663   5.334  11.156  0.4974  0.7193 -0.4458
 4177TIP3   OH233945   0.348   6.783   5.849  0.0186  0.4456 -0.2058
 4177TIP3    H133946   0.265   6.738   5.863  0.4494 -0.6697 -1.1028
 4177TIP3    H233947   0.328   6.875   5.861 -1.0550  0.0769  0.9160
 4178TIP3   OH233948   1.046   1.766  14.658  0.7139  0.1313  0.2022
 4178TIP3    H133949   1.002   1.833  14.604 -0.1592 -1.5748 -1.2660
 4178TIP3    H233950   1.139   1.777  14.639  0.6383  1.3185  0.4547
 4179TIP3   OH233951   2.967   1.699  15.524  0.1273 -0.4410 -0.2791
 4179TIP3    H133952   3.019   1.635  15.475 -1.3850 -0.2555 -2.1501
 4179TIP3    H233953   2.903   1.645  15.572 -0.3163 -0.4173 -0.8460
 4180TIP3   OH233954   2.404   1.869  13.324  0.2882 -0.4021  0.1343
 4180TIP3    H133955   2.312   1.860  13.348 -0.4455  1.0920 -1.9770
 4180TIP3    H233956   2.402   1.893  13.232  2.8818 -2.1788 -0.4336
 4181TIP3   OH233957   0.689   1.808  14.254 -0.3968 -0.0595  0.5681
 4181TIP3    H133958   0.640   1.732  14.286 -1.8194  0.8088  0.4716
 4181TIP3    H233959   0.739   1.774  14.179  1.7965 -1.7463  2.7391
 4182TIP3   OH233960   2.448   1.478   2.328 -0.2832 -0.8171 -0.7692
 4182TIP3    H133961   2.535   1.457   2.362 -0.0879 -1.5521 -1.6772
 4182TIP3    H233962   2.426   1.403   2.272 -0.5651  0.3581 -2.2624
 4183TIP3   OH233963   1.650   4.133  15.072 -0.5767  0.2958 -0.2563
 4183TIP3    H133964   1.693   4.051  15.048 -0.9337  0.7745 -2.6957
 4183TIP3    H233965   1.722   4.192  15.096  0.1200  0.8001 -3.3972
 4184TIP3   OH233966   5.593   4.662  15.803 -0.0507  0.2446 -0.1513
 4184TIP3    H133967   5.669   4.719  15.818  0.4420 -0.1544 -1.0968
 4184TIP3    H233968   5.542   4.707  15.736  1.7266 -1.6884 -2.9128
 4185TIP3   OH233969   0.721   2.978  15.701 -0.3480  0.0989 -0.0470
 4185TIP3    H133970   0.774   2.904  15.733 -0.5144  0.4759  1.1271
 4185TIP3    H233971   0.749   3.052  15.755 -1.5784  0.4581  0.1065
 4186TIP3   OH233972   3.869   1.965   5.036  0.5928 -0.1274  0.7824
 4186TIP3    H133973   3.787   2.013   5.029  1.0131  0.6520  1.2239
 4186TIP3    H233974   3.935   2.024   5.001  1.3297  0.2126  2.6777
 4187TIP3   OH233975   5.260   4.039   2.572 -0.1040 -0.7970  0.4845
 4187TIP3    H133976   5.205   3.991   2.510 -1.2927  2.8908 -1.4834
 4187TIP3    H233977   5.197   4.084   2.629  0.8711  0.9456  0.2214
 4188TIP3   OH233978   3.895   3.027  11.964  0.3814 -0.5009 -0.3733
 4188TIP3    H133979   3.836   3.050  11.892  0.5235 -0.2809 -0.4203
 4188TIP3    H233980   3.930   2.941  11.939 -0.9722 -1.2662  0.3153
 4189TIP3   OH233981   1.120   6.240  15.594 -0.1265 -0.2534  0.3916
 4189TIP3    H133982   1.139   6.257  15.686 -1.9743 -1.4289  1.0218
 4189TIP3    H233983   1.205   6.242  15.550  0.6672  1.2747  1.9588
 4190TIP3   OH233984   4.743   5.625  15.087 -0.5946  0.4423  0.9115
 4190TIP3    H133985   4.751   5.715  15.055  1.2501  0.0528  0.2454
 4190TIP3    H233986   4.767   5.630  15.180  2.6436  0.1543  0.1534
 4191TIP3   OH233987   1.201   2.522  11.393 -0.6562 -0.3362  0.3799
 4191TIP3    H133988   1.166   2.575  11.465 -2.3628 -2.1102  0.8743
 4191TIP3    H233989   1.236   2.587  11.331 -2.2621  1.3684  1.2002
 4192TIP3   OH233990   3.485   5.929  10.897  0.6885 -0.0772 -0.4895
 4192TIP3    H133991   3.472   5.838  10.923  1.6507 -1.2526 -3.7663
 4192TIP3    H233992   3.578   5.945  10.911  0.5609  0.3341 -0.1080
 4193TIP3   OH233993   2.921   0.510  14.099  0.0444 -0.1251  0.0035
 4193TIP3    H133994   2.907   0.428  14.146 -0.8400  0.4524  0.7687
 4193TIP3    H233995   2.841   0.521  14.047  0.1317  0.2965 -0.0374
 4194TIP3   OH233996   2.129   6.589   0.282 -0.3381  0.1046  0.6983
 4194TIP3    H133997   2.097   6.678   0.294 -0.5330  0.5430 -2.4925
 4194TIP3    H233998   2.199   6.579   0.347  0.7648  3.1578  0.0669
 4195TIP3   OH233999   4.378   4.148   4.174 -0.0623  0.2271  0.3068
 4195TIP3    H134000   4.351   4.154   4.082  1.1987 -1.3809 -0.1796
 4195TIP3    H234001   4.414   4.235   4.194  1.1306  0.0974 -1.1924
 4196TIP3   OH234002   5.801   5.868   3.535  0.1125  0.7260  0.1854
 4196TIP3    H134003   5.736   5.819   3.585  2.9183 -3.4664 -0.0079
 4196TIP3    H234004   5.750   5.923   3.477 -3.2261  0.5687  2.8188
 4197TIP3   OH234005   3.808   3.034  12.572 -0.3924 -0.5169 -0.2409
 4197TIP3    H134006   3.763   3.068  12.495  1.1259 -0.1550 -0.9823
 4197TIP3    H234007   3.901   3.049  12.555  0.2217 -3.4798  0.1459
 4198TIP3   OH234008   5.951   4.437  12.546  0.0287 -0.2828  0.5203
 4198TIP3    H134009   5.995   4.460  12.465 -0.0949 -0.2989  0.4490
 4198TIP3    H234010   5.867   4.483  12.542  0.8336  1.3219  1.5389
 4199TIP3   OH234011   4.658   6.155   3.090 -0.0892  0.3073 -0.0966
 4199TIP3    H134012   4.693   6.073   3.055 -1.1832 -0.9049  1.5860
 4199TIP3    H234013   4.592   6.182   3.026 -0.5604 -0.7571 -0.0780
 4200TIP3   OH234014   4.616   3.592  14.856 -0.5293  0.1387  0.0441
 4200TIP3    H134015   4.613   3.682  14.821  0.8035  1.0112  2.0878
 4200TIP3    H234016   4.634   3.603  14.949 -0.9961 -2.2587  0.4443
 4201TIP3   OH234017   1.284   0.634  12.684 -0.0271  0.6345 -0.1332
 4201TIP3    H134018   1.296   0.578  12.761 -2.0842 -0.9542 -0.9137
 4201TIP3    H234019   1.357   0.610  12.626 -0.7524 -1.1324 -0.3592
 4202TIP3   OH234020   2.549   2.538  16.304  0.7492  0.0034  0.5555
 4202TIP3    H134021   2.498   2.545  16.385 -0.0477  0.3611  0.0322
 4202TIP3    H234022   2.489   2.568  16.235  0.9931 -1.4845 -0.3379
 4203TIP3   OH234023   4.380   5.450   2.280  0.5052  0.4714 -0.6420
 4203TIP3    H134024   4.366   5.509   2.206 -0.4684 -0.1157 -0.9311
 4203TIP3    H234025   4.362   5.363   2.245 -1.6660  0.3417  0.6932
 4204TIP3   OH234026   4.549   0.963  11.918 -0.0763 -0.1544 -0.0430
 4204TIP3    H134027   4.543   1.022  11.994  2.7937  0.6480 -0.3814
 4204TIP3    H234028   4.591   1.015  11.850 -1.5551 -1.2438 -1.8554
 4205TIP3   OH234029   6.603   4.661  17.187 -0.2553  0.0927  0.5224
 4205TIP3    H134030   6.531   4.677  17.247  0.5342  0.7994  1.3003
 4205TIP3    H234031   6.565   4.672  17.100 -1.4397 -1.0607  0.8705
 4206TIP3   OH234032   4.398   5.829  16.700  0.3136  0.5956 -0.0426
 4206TIP3    H134033   4.489   5.858  16.694  0.2367  0.9597  0.5115
 4206TIP3    H234034   4.404   5.735  16.717  0.6170  0.9513  1.9222
 4207TIP3   OH234035   4.382   3.511   1.047 -0.1264  0.6782 -0.0524
 4207TIP3    H134036   4.318   3.583   1.043  0.8125  1.5340  0.0696
 4207TIP3    H234037   4.430   3.519   0.965 -0.9521 -0.7044 -0.6813
 4208TIP3   OH234038   6.411   3.360   4.278  0.1246  0.0144 -0.1251
 4208TIP3    H134039   6.323   3.334   4.304  0.0605  0.0272 -0.3322
 4208TIP3    H234040   6.455   3.379   4.361  0.2224 -0.9067  0.0498
 4209TIP3   OH234041   3.538   4.002  12.749  0.0531  0.4136 -0.1911
 4209TIP3    H134042   3.563   3.920  12.793 -1.5199 -0.2304 -0.4565
 4209TIP3    H234043   3.616   4.029  12.702  0.7797 -0.6189  0.4010
 4210TIP3   OH234044   4.749   1.153   0.001  0.5311  0.0085  0.0257
 4210TIP3    H134045   4.673   1.110   0.041 -0.5456 -1.1081 -3.0962
 4210TIP3    H234046   4.814   1.084  -0.006  0.8779  0.3140  0.2130
 4211TIP3   OH234047   3.930   0.532  15.784  0.0515  0.3209  0.0805
 4211TIP3    H134048   3.950   0.507  15.693  0.6680 -0.0613  0.3181
 4211TIP3    H234049   3.992   0.482  15.837  0.9213  1.9056  0.6079
 4212TIP3   OH234050   5.957   0.551  11.270 -0.5282 -0.0965  0.6070
 4212TIP3    H134051   5.943   0.608  11.346 -0.4649  0.8948 -0.1137
 4212TIP3    H234052   5.929   0.604  11.195  1.6483 -0.1766 -0.2912
 4213TIP3   OH234053   2.167   2.418  16.558 -0.2088 -0.3473 -0.0182
 4213TIP3    H134054   2.237   2.383  16.613  0.8172 -1.3518 -1.9356
 4213TIP3    H234055   2.090   2.366  16.582  0.4384 -1.3941 -0.1688
 4214TIP3   OH234056   5.048   6.579  13.091  0.3554  0.2428  0.2334
 4214TIP3    H134057   5.067   6.489  13.118 -1.3996  0.5056  2.4285
 4214TIP3    H234058   4.970   6.603  13.140  0.3141  2.6959 -0.9719
 4215TIP3   OH234059   0.404   5.282   1.077 -0.1464  0.0374 -0.4709
 4215TIP3    H134060   0.434   5.289   0.987  0.4922 -0.4488 -0.3034
 4215TIP3    H234061   0.479   5.312   1.129 -0.5232  0.3511 -0.1025
 4216TIP3   OH234062   3.053   2.145  17.160  0.1876 -0.2096  0.6239
 4216TIP3    H134063   3.015   2.060  17.182  0.4208 -0.9993 -1.8351
 4216TIP3    H234064   3.091   2.176  17.242 -1.0084 -1.8865  1.8576
 4217TIP3   OH234065   1.175   4.114   5.246  0.0917 -0.2585  0.2766
 4217TIP3    H134066   1.122   4.137   5.322  2.2829  0.6352  1.5680
 4217TIP3    H234067   1.143   4.170   5.176  0.7352  1.8107  1.6074
 4218TIP3   OH234068   2.504   0.650  11.672  0.1956 -0.4792  0.2278
 4218TIP3    H134069   2.498   0.693  11.758 -2.6990 -1.2283  0.4586
 4218TIP3    H234070   2.487   0.720  11.609  1.0532 -0.1877  0.3134
 4219TIP3   OH234071   6.229   0.273   4.919 -0.4343  0.3281  0.2623
 4219TIP3    H134072   6.183   0.221   4.853  0.6600 -0.5708  0.1875
 4219TIP3    H234073   6.180   0.258   5.000  0.3417 -1.5050  0.4189
 4220TIP3   OH234074   2.075   2.716  13.286 -0.3350 -0.8796  0.6575
 4220TIP3    H134075   2.030   2.662  13.221 -0.2712 -1.4103  1.0552
 4220TIP3    H234076   2.109   2.791  13.235 -1.3487 -0.6525  0.2936
 4221TIP3   OH234077   3.898   1.170  15.064 -0.0265 -1.1088  0.1276
 4221TIP3    H134078   3.861   1.165  15.152  1.3141  0.9968  0.8500
 4221TIP3    H234079   3.989   1.142  15.074  0.3175 -0.2293 -0.4616
 4222TIP3   OH234080   3.489   3.233   5.093 -0.4067  0.4575 -0.3006
 4222TIP3    H134081   3.582   3.249   5.104 -0.5866  2.1632 -1.0533
 4222TIP3    H234082   3.451   3.254   5.178 -0.0963 -0.3427  0.0383
 4223TIP3   OH234083   5.565   3.892   3.497 -0.4870 -0.7936 -0.3955
 4223TIP3    H134084   5.508   3.944   3.441  1.2133 -0.1130 -1.5285
 4223TIP3    H234085   5.652   3.902   3.460  0.4083 -1.7678  1.3366
 4224TIP3   OH234086   5.238   4.057  15.456 -0.0387  0.2482 -0.4497
 4224TIP3    H134087   5.271   4.021  15.539 -1.0281 -2.1049 -1.0427
 4224TIP3    H234088   5.316   4.086  15.410  0.8289 -1.1683  0.0750
 4225TIP3   OH234089   6.712   1.932   4.184  0.7018 -0.0988 -0.0335
 4225TIP3    H134090   6.722   1.946   4.278 -0.6166 -2.9612  0.5696
 4225TIP3    H234091   6.624   1.895   4.174  1.7473 -2.1556 -2.1142
 4226TIP3   OH234092   1.528   0.524  11.838  0.1043 -0.3725 -0.3659
 4226TIP3    H134093   1.610   0.478  11.855 -0.3189 -1.2947 -0.7681
 4226TIP3    H234094   1.555   0.611  11.810  0.9163 -0.3471  0.4751
 4227TIP3   OH234095   3.833   6.293   3.189 -0.0157  0.3784  0.3167
 4227TIP3    H134096   3.849   6.228   3.257  0.7217 -0.8608 -1.0023
 4227TIP3    H234097   3.769   6.251   3.131 -0.0825  1.1133 -0.1428
 4228TIP3   OH234098   4.114   0.213  15.436  0.1972 -0.5154 -0.1288
 4228TIP3    H134099   4.206   0.221  15.412  0.3095 -0.8349  0.1949
 4228TIP3    H234100   4.082   0.138  15.386  0.0818 -0.3274 -0.3366
 4229TIP3   OH234101   2.242   1.826  17.065  0.0628  0.2691 -0.1514
 4229TIP3    H134102   2.321   1.874  17.092 -0.0574  0.5140 -0.2295
 4229TIP3    H234103   2.264   1.734  17.077  0.7459  0.2867 -1.2055
 4230TIP3   OH234104   0.619   1.913  13.193  0.9727  0.3931 -0.3757
 4230TIP3    H134105   0.539   1.963  13.176 -0.2786 -1.0750  1.0515
 4230TIP3    H234106   0.632   1.862  13.113 -1.5426 -2.0091  0.6395
 4231TIP3   OH234107   3.212   5.375   2.305 -0.1601  0.1026  0.0145
 4231TIP3    H134108   3.206   5.292   2.353 -0.6332 -0.0280 -0.2618
 4231TIP3    H234109   3.127   5.416   2.318  0.9372  1.7523  2.2841
 4232TIP3   OH234110   1.743   2.995  17.107  0.1490  0.3094 -0.5473
 4232TIP3    H134111   1.819   2.993  17.165 -1.1586  1.9817  1.2961
 4232TIP3    H234112   1.699   3.077  17.127 -2.4150 -0.8309 -1.2316
 4233TIP3   OH234113   3.349   1.742  10.636 -0.3945  0.1631  0.7401
 4233TIP3    H134114   3.351   1.823  10.586  0.4882 -0.5787 -0.4479
 4233TIP3    H234115   3.296   1.682  10.584 -0.4311 -0.2580  1.2478
 4234TIP3   OH234116   4.650   4.193  13.409  0.6742 -0.6513  0.5187
 4234TIP3    H134117   4.584   4.140  13.454  1.4495 -2.3409 -0.3033
 4234TIP3    H234118   4.728   4.185  13.464  1.5115 -2.4066 -0.8605
 4235TIP3   OH234119   4.806   4.606  11.532 -0.4660 -0.2026 -0.4344
 4235TIP3    H134120   4.730   4.547  11.535 -1.0778  0.6568  1.2276
 4235TIP3    H234121   4.805   4.651  11.616  1.1866  0.7206 -0.8919
 4236TIP3   OH234122   1.244   0.557  14.384 -0.2219  0.1345  0.3293
 4236TIP3    H134123   1.250   0.555  14.479  0.4846 -1.0218  0.2778
 4236TIP3    H234124   1.235   0.465  14.359 -0.2294  0.4160 -0.7238
 4237TIP3   OH234125   0.281   1.942   0.524 -0.1363 -0.0244  0.6470
 4237TIP3    H134126   0.376   1.935   0.537 -0.2941 -0.2058  1.7478
 4237TIP3    H234127   0.268   1.918   0.432  0.8305 -0.4808  0.6159
 4238TIP3   OH234128   1.894   0.798  12.934  0.6995 -0.5898  0.1604
 4238TIP3    H134129   1.882   0.720  12.988  0.5658 -0.5888  0.1314
 4238TIP3    H234130   1.891   0.871  12.997 -1.6921 -0.4182 -0.0985
 4239TIP3   OH234131   4.687   1.793   5.126 -0.2246  0.0626 -0.2679
 4239TIP3    H134132   4.677   1.731   5.198  1.3233 -0.4217 -0.4482
 4239TIP3    H234133   4.770   1.836   5.143 -0.3753  0.7273 -1.1793
 4240TIP3   OH234134   6.415   5.545   4.974  0.7655  0.6166  0.1705
 4240TIP3    H134135   6.464   5.626   4.957  0.9486  0.2857 -0.8990
 4240TIP3    H234136   6.479   5.486   5.014  1.1703  0.2964 -0.9308
 4241TIP3   OH234137   6.050   1.934   3.189 -0.2030  0.6567 -0.1602
 4241TIP3    H134138   6.141   1.912   3.167  0.3728  0.8425  1.9885
 4241TIP3    H234139   6.044   2.028   3.173  0.3247  0.8625  0.7944
 4242TIP3   OH234140   2.013   4.749   3.845 -0.3071 -0.4452 -0.1301
 4242TIP3    H134141   2.068   4.714   3.774  1.6672  0.0481  1.1228
 4242TIP3    H234142   2.029   4.690   3.919  0.0210  0.8171  0.8151
 4243TIP3   OH234143   4.320   2.575  14.285 -0.0506  0.4001 -0.0109
 4243TIP3    H134144   4.386   2.537  14.344 -0.9669 -2.2087 -0.6033
 4243TIP3    H234145   4.236   2.548  14.323 -0.7039  1.1059 -0.9468
 4244TIP3   OH234146   5.468   2.125  11.002 -0.4479 -0.5555 -0.4889
 4244TIP3    H134147   5.528   2.180  10.950  2.8074 -1.7242  1.8664
 4244TIP3    H234148   5.428   2.186  11.064  2.8996 -0.6630  1.8923
 4245TIP3   OH234149   1.112   2.472  17.185  0.4636 -0.7578 -0.1387
 4245TIP3    H134150   1.119   2.547  17.126  0.1210 -1.3389 -0.9326
 4245TIP3    H234151   1.045   2.497  17.249  2.9232  1.0786  1.8311
 4246TIP3   OH234152   3.183   3.774   4.556 -0.1155 -0.3722  0.6613
 4246TIP3    H134153   3.177   3.685   4.591  1.4384 -1.3297 -1.4598
 4246TIP3    H234154   3.092   3.803   4.549 -0.6660 -2.0513  0.7111
 4247TIP3   OH234155   1.581   0.975  15.332 -0.1510 -0.0417  0.3710
 4247TIP3    H134156   1.578   0.898  15.275 -0.1359 -0.1695  0.5413
 4247TIP3    H234157   1.523   0.953  15.405 -0.0124  0.0411  0.5054
 4248TIP3   OH234158   6.240   2.041  14.034 -0.1081  0.1351  0.2036
 4248TIP3    H134159   6.196   1.959  14.055 -1.2242  0.2980 -1.4024
 4248TIP3    H234160   6.283   2.026  13.950 -0.6032  1.2942 -0.2732
 4249TIP3   OH234161   6.714   5.225  15.196  0.0742 -0.2073 -0.2818
 4249TIP3    H134162   6.761   5.207  15.277 -2.4372 -0.9527  1.0542
 4249TIP3    H234163   6.632   5.267  15.224 -0.4472  0.3120 -2.4742
 4250TIP3   OH234164   1.117   4.550  16.783 -0.5980 -0.8515 -0.1660
 4250TIP3    H134165   1.084   4.599  16.858  0.7142  0.5438 -0.4680
 4250TIP3    H234166   1.149   4.617  16.723  1.1979 -2.0715 -0.6033
 4251TIP3   OH234167   5.697   2.304  11.891  0.2632  0.0488 -0.4529
 4251TIP3    H134168   5.631   2.234  11.893 -1.5780  1.7724  1.0708
 4251TIP3    H234169   5.692   2.338  11.802  1.3851 -1.9256 -1.3015
 4252TIP3   OH234170   1.467   5.749   3.873  0.0501 -0.0382  0.0588
 4252TIP3    H134171   1.435   5.835   3.847  0.2622  0.3370  1.0497
 4252TIP3    H234172   1.402   5.716   3.935  0.9150  0.1908  1.0985
 4253TIP3   OH234173   5.189   4.577  11.910  0.4233 -0.1630  0.5866
 4253TIP3    H134174   5.180   4.517  11.837  0.0257  0.2733  0.2749
 4253TIP3    H234175   5.123   4.547  11.974 -0.5802  0.6354 -0.0508
 4254TIP3   OH234176   3.813   5.671  13.632 -0.4662  0.3543 -0.2810
 4254TIP3    H134177   3.815   5.611  13.706  0.6380  0.0286 -0.5691
 4254TIP3    H234178   3.830   5.757  13.669 -0.0188  0.2053 -0.1414
 4255TIP3   OH234179   0.590   6.088   4.968  0.3765  0.3516 -0.1424
 4255TIP3    H134180   0.634   6.003   4.965 -1.8064 -0.8249 -0.2295
 4255TIP3    H234181   0.633   6.140   4.900  0.5293 -1.3133 -1.3653
 4256TIP3   OH234182   3.234   6.185  16.957  0.0185 -0.1787 -0.4420
 4256TIP3    H134183   3.251   6.136  16.877 -0.0611 -2.3307  0.7989
 4256TIP3    H234184   3.309   6.244  16.966 -0.1106  0.2850 -2.2094
 4257TIP3   OH234185   5.337   2.350   4.536  0.0226 -0.2518 -0.4379
 4257TIP3    H134186   5.282   2.410   4.484 -1.3755  0.4571  1.7802
 4257TIP3    H234187   5.280   2.320   4.607  2.5522  0.7739  2.1540
 4258TIP3   OH234188   4.994   1.339  12.378 -0.0802  0.3897  0.9036
 4258TIP3    H134189   5.031   1.403  12.317 -1.3561  0.6585  0.3925
 4258TIP3    H234190   5.064   1.275  12.391 -0.3524 -0.6355 -2.2339
 4259TIP3   OH234191   1.524   1.557  11.284  0.0350 -0.4808  0.3704
 4259TIP3    H134192   1.587   1.511  11.229  0.2382 -0.9760  1.0245
 4259TIP3    H234193   1.509   1.640  11.238  0.3818 -0.7928 -0.3101
 4260TIP3   OH234194   3.546   2.338   1.497 -0.3781 -0.6364  0.6018
 4260TIP3    H134195   3.542   2.383   1.581 -0.9706 -0.7217  0.6228
 4260TIP3    H234196   3.466   2.365   1.452  0.0197 -0.4631  0.0041
 4261TIP3   OH234197   5.226   3.997  17.108 -0.5396 -0.2582 -0.2208
 4261TIP3    H134198   5.206   3.967  17.196 -0.7207  1.0228  0.1869
 4261TIP3    H234199   5.321   4.011  17.109 -0.6832  0.7513  0.0980
 4262TIP3   OH234200   4.330   1.320  14.495  0.2978  0.1924 -0.0395
 4262TIP3    H134201   4.331   1.373  14.415  0.5284  0.2560  0.0051
 4262TIP3    H234202   4.342   1.383  14.566  1.8635 -0.0584 -0.0678
 4263TIP3   OH234203   1.819   0.816   2.556  0.0564  0.0395  0.0416
 4263TIP3    H134204   1.844   0.898   2.514  0.0749 -1.8465 -3.8802
 4263TIP3    H234205   1.892   0.796   2.615  1.0313  1.7903 -0.5341
 4264TIP3   OH234206   3.648   4.272  11.355 -0.4123 -0.0209 -0.1671
 4264TIP3    H134207   3.641   4.181  11.325  0.6170 -0.2841  0.3808
 4264TIP3    H234208   3.718   4.309  11.302 -0.1253  0.1578  0.3410
 4265TIP3   OH234209   4.905   6.610   4.929 -0.1258 -0.6212  0.1072
 4265TIP3    H134210   4.852   6.531   4.939 -0.9058  0.0085  1.0280
 4265TIP3    H234211   4.949   6.621   5.013  1.8435 -1.3927 -0.8046
 4266TIP3   OH234212   2.163   5.510  15.288 -0.2376 -0.0898  0.1880
 4266TIP3    H134213   2.176   5.459  15.208 -0.0718 -0.2809  0.3359
 4266TIP3    H234214   2.250   5.538  15.314 -0.2893 -0.0467  0.3165
 4267TIP3   OH234215   0.601   3.657   1.041  0.1552 -0.1697 -0.0476
 4267TIP3    H134216   0.644   3.644   0.957 -1.6412  0.9432 -1.1698
 4267TIP3    H234217   0.526   3.597   1.040 -0.6082  0.7620  0.2138
 4268TIP3   OH234218   5.754   4.341  14.902  0.0912  0.3853  0.7617
 4268TIP3    H134219   5.813   4.324  14.976 -0.0928 -0.5698  0.6931
 4268TIP3    H234220   5.760   4.435  14.888  0.2406  0.5535  1.9055
 4269TIP3   OH234221   0.782   6.517   1.771  0.2158  0.0169 -0.2139
 4269TIP3    H134222   0.747   6.490   1.685  0.0936 -1.7180  0.3591
 4269TIP3    H234223   0.869   6.478   1.774 -0.4381 -1.3834  1.1419
 4270TIP3   OH234224   3.086   3.420  13.017 -0.6783  0.1640 -0.3824
 4270TIP3    H134225   3.163   3.365  13.023 -0.8831 -0.0121  0.6491
 4270TIP3    H234226   3.037   3.403  13.097 -0.8970  1.6039 -0.1882
 4271TIP3   OH234227   5.330   2.024   2.882 -0.5636  0.3453 -0.4254
 4271TIP3    H134228   5.365   2.058   2.800  1.1265  1.4103  0.7030
 4271TIP3    H234229   5.273   1.952   2.856  0.7321  0.0202 -2.4697
 4272TIP3   OH234230   6.737   4.133   4.573 -0.3903  0.0106  0.0584
 4272TIP3    H134231   6.824   4.094   4.580 -0.6450 -0.1107  3.0039
 4272TIP3    H234232   6.744   4.192   4.497  1.2998 -2.2991 -1.6709
 4273TIP3   OH234233   0.402   4.407  11.283  0.1844 -0.1121 -0.8704
 4273TIP3    H134234   0.454   4.488  11.278 -1.0881  0.7404 -0.6327
 4273TIP3    H234235   0.433   4.355  11.209  0.6603  0.8156 -1.3443
 4274TIP3   OH234236   0.666   3.049  11.968  0.4361  0.1366  0.9403
 4274TIP3    H134237   0.577   3.077  11.947 -0.0130 -2.3231 -0.6709
 4274TIP3    H234238   0.658   3.007  12.053  0.4535  1.6910  1.7243
 4275TIP3   OH234239   2.410   0.430   1.040 -0.9751  0.2558 -0.6987
 4275TIP3    H134240   2.391   0.365   1.107  0.4883  1.7828  1.2495
 4275TIP3    H234241   2.456   0.381   0.971  2.6327 -0.3208  1.9850
 4276TIP3   OH234242   0.376   4.566   3.428  0.1990 -0.2931  0.4438
 4276TIP3    H134243   0.333   4.528   3.505 -0.9869  0.9700  0.4237
 4276TIP3    H234244   0.351   4.658   3.430  3.2682  0.5953  0.6589
 4277TIP3   OH234245   5.162   0.847  17.136  0.3150  0.1418 -0.4026
 4277TIP3    H134246   5.252   0.823  17.157  0.7177  0.9686 -1.2028
 4277TIP3    H234247   5.169   0.924  17.081 -0.9245  0.8728  0.4274
 4278TIP3   OH234248   6.654   5.539  11.165 -0.6414  0.1779  0.6105
 4278TIP3    H134249   6.602   5.597  11.221  0.6088  1.8548  0.0739
 4278TIP3    H234250   6.745   5.556  11.192 -0.2483 -1.4967  0.3929
 4279TIP3   OH234251   3.571   6.248  12.949 -0.1816 -0.1014  0.6731
 4279TIP3    H134252   3.518   6.263  13.027  0.3510 -2.0094  1.4280
 4279TIP3    H234253   3.521   6.288  12.878 -1.3556  0.4038  1.7617
 4280TIP3   OH234254   0.082   5.352   4.446  0.1680 -0.0831  0.4306
 4280TIP3    H134255   0.118   5.288   4.384  0.0522 -0.4797  0.7720
 4280TIP3    H234256   0.051   5.424   4.391 -0.0873 -0.5073  0.0156
 4281TIP3   OH234257   4.588   5.719  15.429  0.1829  0.0104  0.4005
 4281TIP3    H134258   4.680   5.704  15.404  0.1249 -2.0266  1.3131
 4281TIP3    H234259   4.593   5.753  15.518  0.0614 -0.0814  0.4421
 4282TIP3   OH234260   4.043   2.769   0.763 -0.1301 -0.2490  0.1908
 4282TIP3    H134261   4.136   2.788   0.750  0.1993 -0.4601  2.1041
 4282TIP3    H234262   4.013   2.737   0.678  0.7883  2.7847 -1.3426
 4283TIP3   OH234263   2.975   3.620  14.896 -0.7942 -0.2531  0.0105
 4283TIP3    H134264   2.999   3.564  14.969  0.1702  0.3336  0.1516
 4283TIP3    H234265   3.021   3.583  14.821  0.1089  0.5266  0.1679
 4284TIP3   OH234266   4.986   0.780   1.742  0.3815 -0.1389  0.3171
 4284TIP3    H134267   4.958   0.689   1.750  0.2558 -0.1401 -0.1213
 4284TIP3    H234268   4.981   0.814   1.832 -1.5113 -0.0021  0.1809
 4285TIP3   OH234269   6.637   6.127  11.288 -0.1223 -0.1275  0.3889
 4285TIP3    H134270   6.543   6.129  11.268  0.4979 -0.0643 -2.7450
 4285TIP3    H234271   6.671   6.208  11.249  1.5736 -1.1879 -0.3351
 4286TIP3   OH234272   6.090   1.827   5.855  0.0451  0.2718 -0.2715
 4286TIP3    H134273   6.108   1.885   5.928 -0.0594  0.6127 -0.5129
 4286TIP3    H234274   6.008   1.860   5.818 -0.7305 -0.8422  0.4056
 4287TIP3   OH234275   5.702   3.934   1.442  0.8586 -0.1718  0.1008
 4287TIP3    H134276   5.687   3.928   1.347  0.5852  0.1633  0.1210
 4287TIP3    H234277   5.789   3.896   1.455  0.4443 -1.2094 -0.1480
 4288TIP3   OH234278   3.410   2.772  15.077  0.0058 -0.0371  0.0371
 4288TIP3    H134279   3.467   2.704  15.112  0.3902  0.5703  0.6115
 4288TIP3    H234280   3.338   2.779  15.140 -0.0599  0.0475 -0.0462
 4289TIP3   OH234281   4.173   4.080   5.292 -0.0977  0.4045  0.6900
 4289TIP3    H134282   4.227   4.034   5.356  0.2681  0.7681  0.6497
 4289TIP3    H234283   4.231   4.095   5.217 -0.5033  0.0389  0.2947
 4290TIP3   OH234284   4.952   2.362   5.527 -0.4913  0.2282  0.3408
 4290TIP3    H134285   4.881   2.399   5.475 -0.9597 -0.6240  0.3618
 4290TIP3    H234286   4.917   2.356   5.616  0.2090  1.4099  0.7175
 4291TIP3   OH234287   3.901   3.833   1.158 -0.3250 -0.1413 -0.2658
 4291TIP3    H134288   3.940   3.837   1.245 -0.1582  0.1482 -0.3538
 4291TIP3    H234289   3.822   3.887   1.165 -0.5089 -0.4218 -0.1902
 4292TIP3   OH234290   1.115   5.670  11.674  0.3840  0.4920  0.0488
 4292TIP3    H134291   1.188   5.655  11.734  0.0396  0.2390  0.4108
 4292TIP3    H234292   1.156   5.691  11.591  0.9046 -2.1781 -0.4097
 4293TIP3   OH234293   5.816   1.716  11.284  0.0631  0.4459 -0.3599
 4293TIP3    H134294   5.827   1.687  11.193 -2.6829  0.2157 -0.6441
 4293TIP3    H234295   5.823   1.812  11.279 -2.6997  0.6542 -1.2748
 4294TIP3   OH234296   3.192   2.104  16.761  0.2002  0.5132  0.1024
 4294TIP3    H134297   3.281   2.140  16.758 -0.4231  2.1732  0.8986
 4294TIP3    H234298   3.139   2.175  16.798 -0.9640 -1.4426  2.2489
 4295TIP3   OH234299   6.755   2.998   1.989 -0.2241  0.4904  0.1222
 4295TIP3    H134300   6.684   3.061   2.000 -0.1295  0.8099 -0.9680
 4295TIP3    H234301   6.833   3.053   1.974  0.8607  0.2453  4.2891
 4296TIP3   OH234302   4.038   6.654   2.413 -0.6036 -0.6529  0.1883
 4296TIP3    H134303   4.100   6.722   2.437  0.2900 -1.5332  0.4191
 4296TIP3    H234304   3.958   6.701   2.391  0.4977  0.5764 -1.2633
 4297TIP3   OH234305   5.076   0.761  10.452 -0.3222  0.6897 -0.0866
 4297TIP3    H134306   5.107   0.838  10.500 -0.3294  0.5522  0.1377
 4297TIP3    H234307   4.986   0.749  10.482  0.0779 -0.1402  0.8005
 4298TIP3   OH234308   6.778   5.460  13.981 -0.1821 -0.0095 -0.0477
 4298TIP3    H134309   6.862   5.445  14.024 -0.9724  0.3303  1.6269
 4298TIP3    H234310   6.762   5.554  13.991 -0.6573 -0.0297 -0.5733
 4299TIP3   OH234311   6.282   3.545  15.345  0.0771  0.5723  0.3988
 4299TIP3    H134312   6.256   3.509  15.260  4.3014  1.4049 -1.3605
 4299TIP3    H234313   6.227   3.623  15.356 -0.6916  0.3109 -1.4572
 4300TIP3   OH234314   0.515   0.076   1.938  0.5787 -1.1379  0.1501
 4300TIP3    H134315   0.427   0.105   1.914  0.3264 -1.7696  0.2850
 4300TIP3    H234316   0.557   0.054   1.856  0.2513 -1.8236  0.1649
 4301TIP3   OH234317   2.508   3.155   0.899  0.1968  0.0395  0.3312
 4301TIP3    H134318   2.514   3.068   0.938  1.8561  0.6936  1.6223
 4301TIP3    H234319   2.595   3.193   0.912 -0.5402  1.9369 -0.0912
 4302TIP3   OH234320   6.230   4.173   2.891  0.1691 -0.0720  0.0950
 4302TIP3    H134321   6.215   4.246   2.830  0.5924 -0.2283 -0.2073
 4302TIP3    H234322   6.248   4.098   2.833 -1.4876 -0.7008  0.3818
 4303TIP3   OH234323   0.472   5.166   5.506  0.1859  0.2185  0.1636
 4303TIP3    H134324   0.447   5.236   5.567 -1.4776  1.2387 -1.6041
 4303TIP3    H234325   0.561   5.189   5.478  0.0589  1.0384  0.4227
 4304TIP3   OH234326   0.133   5.954   0.447 -0.5284 -0.1550 -0.4230
 4304TIP3    H134327   0.165   5.976   0.534 -1.1794 -3.4503  0.7309
 4304TIP3    H234328   0.208   5.970   0.389  0.7074 -0.2784  1.1087
 4305TIP3   OH234329   4.344   5.744   1.796  0.0454 -0.1631  0.6433
 4305TIP3    H134330   4.366   5.731   1.704  0.5317  2.1278  0.3866
 4305TIP3    H234331   4.253   5.772   1.795  0.3721  0.9443  0.7339
 4306TIP3   OH234332   3.120   3.701   5.285 -0.8056  0.1286 -0.2277
 4306TIP3    H134333   3.070   3.768   5.332 -1.9915 -0.7229 -0.2517
 4306TIP3    H234334   3.123   3.733   5.195  1.7020  1.8973  0.4315
 4307TIP3   OH234335   5.481   4.208   5.059  0.0297  0.3407 -0.3813
 4307TIP3    H134336   5.545   4.148   5.020  0.3791  0.2051  0.3969
 4307TIP3    H234337   5.522   4.294   5.055  0.7717  0.0673  1.2309
 4308TIP3   OH234338   6.396   0.995  12.824 -0.3982  0.4493 -0.0915
 4308TIP3    H134339   6.332   0.956  12.884  0.2985 -0.1216  0.2911
 4308TIP3    H234340   6.437   1.064  12.876 -0.6861  0.8059 -0.3327
 4309TIP3   OH234341   6.502   2.490   4.961  0.2769  0.2320 -0.1580
 4309TIP3    H134342   6.491   2.573   5.008  1.2805 -0.2154  0.8744
 4309TIP3    H234343   6.595   2.487   4.939  0.1202 -0.3308 -0.7671
 4310TIP3   OH234344   1.394   3.497  10.941 -0.2660  0.4326 -0.0787
 4310TIP3    H134345   1.308   3.459  10.958 -0.8307  1.8391  0.2793
 4310TIP3    H234346   1.447   3.423  10.910 -1.4124 -0.5770  0.3096
 4311TIP3   OH234347   3.002   0.867  10.982 -0.3153 -0.2492  0.1442
 4311TIP3    H134348   3.025   0.865  10.889  0.1637  1.7280  0.1947
 4311TIP3    H234349   2.911   0.899  10.983 -0.7692 -1.5038  0.3056
 4312TIP3   OH234350   2.874   6.154   3.438 -0.4176  0.0515 -0.5177
 4312TIP3    H134351   2.895   6.097   3.512 -0.7983 -0.0791 -0.5064
 4312TIP3    H234352   2.779   6.166   3.443 -0.2559  1.2663 -0.1002
 4313TIP3   OH234353   2.823   4.861   2.644 -0.4122 -0.6343 -0.4059
 4313TIP3    H134354   2.893   4.827   2.588 -0.1336  0.8607 -1.0074
 4313TIP3    H234355   2.847   4.952   2.660 -2.3784  0.0087 -0.9005
 4314TIP3   OH234356   2.747   1.774  15.070  0.2679  0.6530 -0.1277
 4314TIP3    H134357   2.815   1.840  15.061  0.0492  0.7548 -1.1165
 4314TIP3    H234358   2.789   1.692  15.042 -0.0224  0.7165 -0.7389
 4315TIP3   OH234359   0.951   0.182  12.257  0.2388  0.0832  0.3176
 4315TIP3    H134360   1.007   0.234  12.199 -0.6270  0.4211 -0.2274
 4315TIP3    H234361   0.926   0.242  12.327 -0.8364  0.4364 -0.3619
 4316TIP3   OH234362   0.339   0.554  12.128 -0.0532  0.1481  0.3448
 4316TIP3    H134363   0.368   0.638  12.093 -3.0468  0.7125 -0.9702
 4316TIP3    H234364   0.365   0.555  12.220  0.9082  2.0354  0.0666
 4317TIP3   OH234365   6.437   5.864   1.771 -0.2473  0.2951  0.0867
 4317TIP3    H134366   6.522   5.855   1.814 -0.8251 -0.0934  1.1591
 4317TIP3    H234367   6.377   5.812   1.824 -0.7604 -1.1149 -1.8142
 4318TIP3   OH234368   5.189   5.767  12.423  0.0921  0.3655  0.4377
 4318TIP3    H134369   5.148   5.807  12.346 -1.3098 -2.6601 -0.4382
 4318TIP3    H234370   5.213   5.679  12.395  0.5180 -0.4264  3.1476
 4319TIP3   OH234371   0.104   5.320  15.590  0.3468  0.5002  0.4899
 4319TIP3    H134372   0.040   5.288  15.654  0.0831  1.0135  0.4880
 4319TIP3    H234373   0.189   5.306  15.632  0.2522 -0.4602  0.3703
 4320TIP3   OH234374   1.878   2.184   1.996 -0.2497 -0.2982  0.0837
 4320TIP3    H134375   1.924   2.111   1.956  1.2734  0.5742  0.1724
 4320TIP3    H234376   1.848   2.238   1.923  0.3056 -0.0281  0.0504
 4321TIP3   OH234377   1.393   1.064   0.787 -0.1002  0.2255 -0.2883
 4321TIP3    H134378   1.305   1.060   0.751 -0.1571  1.4212 -0.3089
 4321TIP3    H234379   1.448   1.023   0.721 -0.4874  0.5343 -0.8072
 4322TIP3   OH234380   0.187   3.187   1.967  0.2813 -0.5401  0.5181
 4322TIP3    H134381   0.222   3.231   2.044 -0.1524 -2.2618  1.7341
 4322TIP3    H234382   0.193   3.252   1.897 -0.6295  1.5277  2.3139
 4323TIP3   OH234383   6.120   0.506   2.122 -0.2554  0.4712  0.3894
 4323TIP3    H134384   6.214   0.503   2.135 -0.0857  1.6728 -0.5067
 4323TIP3    H234385   6.106   0.466   2.037 -0.5277  0.6127  0.3667
 4324TIP3   OH234386   0.001   0.142  16.545 -0.2763  0.6755 -0.3357
 4324TIP3    H134387  -0.065   0.156  16.477 -0.0398 -0.7048 -0.8623
 4324TIP3    H234388   0.045   0.227  16.553 -2.5093  1.8049  0.4679
 4325TIP3   OH234389   2.768   0.877  15.112  0.0667  0.0874 -0.1005
 4325TIP3    H134390   2.746   0.840  15.197 -2.1016  1.1458 -0.1640
 4325TIP3    H234391   2.857   0.910  15.122  0.2356 -0.8075  1.3947
 4326TIP3   OH234392   0.173   5.679  14.704 -0.0098 -0.3561 -0.3679
 4326TIP3    H134393   0.150   5.718  14.788  0.4746  1.1234 -0.8974
 4326TIP3    H234394   0.119   5.726  14.640  1.5165  0.3572 -1.1621
 4327TIP3   OH234395   5.423   2.854  12.508 -0.2110 -0.1218 -0.0294
 4327TIP3    H134396   5.518   2.847  12.504 -0.2299 -0.2590 -0.2286
 4327TIP3    H234397   5.407   2.943  12.541 -0.0173 -0.0500 -0.1295
 4328TIP3   OH234398   2.693   2.062  17.145  0.7445  0.0276 -0.5546
 4328TIP3    H134399   2.689   2.157  17.133 -2.8137  0.0825  0.5631
 4328TIP3    H234400   2.752   2.050  17.219  0.3230  1.4433  0.0326
 4329TIP3   OH234401   4.517   1.738  11.305 -0.3074  0.0663  0.0776
 4329TIP3    H134402   4.523   1.652  11.263 -0.7900 -0.0931  0.3325
 4329TIP3    H234403   4.603   1.751  11.345  0.6337  0.8508 -2.1762
 4330TIP3   OH234404   3.936   4.140   2.810  0.1649  0.4803  0.1737
 4330TIP3    H134405   3.884   4.094   2.744  1.5588  0.9524 -1.2730
 4330TIP3    H234406   3.871   4.188   2.862 -1.0674 -1.0436  0.0679
 4331TIP3   OH234407   2.026   4.010   1.530 -0.8153 -0.2918  0.0697
 4331TIP3    H134408   1.941   4.026   1.488 -1.0441  0.2984  0.7401
 4331TIP3    H234409   2.006   3.955   1.605 -0.5942 -0.2260  0.1784
 4332TIP3   OH234410   5.818   1.569   2.452  0.4944 -0.0070  0.3114
 4332TIP3    H134411   5.802   1.541   2.362  0.6568  1.9353 -0.3456
 4332TIP3    H234412   5.909   1.547   2.469  0.1032 -1.5600  0.4651
 4333TIP3   OH234413   4.076   0.102  13.026 -0.3370  0.5581  0.2191
 4333TIP3    H134414   4.083   0.065  13.114  0.5115  0.8786  0.2947
 4333TIP3    H234415   4.148   0.165  13.021 -0.6415  0.8485 -0.5549
 4334TIP3   OH234416   5.332   1.820  16.164 -0.2954  0.1286 -0.0185
 4334TIP3    H134417   5.342   1.914  16.176 -1.3546  0.2278  0.1938
 4334TIP3    H234418   5.420   1.784  16.173  0.2406  1.1898 -0.9436
 4335TIP3   OH234419   0.895   0.338   5.838 -0.2184 -0.2804 -0.6303
 4335TIP3    H134420   0.963   0.402   5.813 -0.9241  0.5108 -0.5374
 4335TIP3    H234421   0.939   0.281   5.902  0.8266 -0.7392 -1.7383
 4336TIP3   OH234422   5.871   5.428   2.891 -0.2275 -0.0335 -0.2463
 4336TIP3    H134423   5.839   5.428   2.981  1.7157  0.9996  0.4731
 4336TIP3    H234424   5.882   5.336   2.869  1.1666 -0.2380  1.2665
 4337TIP3   OH234425   3.849   2.608  16.328 -0.1786  0.1454  0.2327
 4337TIP3    H134426   3.915   2.616  16.397 -0.8529 -1.6756  1.1384
 4337TIP3    H234427   3.853   2.691  16.280 -0.2027  1.7360  2.9133
 4338TIP3   OH234428   1.826   0.595  13.150  0.0313  0.2574 -0.0616
 4338TIP3    H134429   1.732   0.598  13.169  0.0026 -0.3808 -0.0997
 4338TIP3    H234430   1.864   0.547  13.223  0.1891 -0.3937 -0.5684
 4339TIP3   OH234431   6.733   1.317   4.207 -0.6629 -0.0500  0.0586
 4339TIP3    H134432   6.663   1.301   4.144 -0.0554  1.4636 -1.0486
 4339TIP3    H234433   6.813   1.288   4.163 -0.4393 -0.5861  0.8133
 4340TIP3   OH234434   0.004   2.911  13.869 -0.0566 -0.2027 -0.9264
 4340TIP3    H134435  -0.037   2.982  13.820  2.1562  1.4604 -0.4500
 4340TIP3    H234436   0.073   2.878  13.811 -0.3454 -1.2145 -0.7047
 4341TIP3   OH234437   5.704   0.017  13.063  0.0321  0.3762 -0.2455
 4341TIP3    H134438   5.782  -0.012  13.015 -0.4298  0.1705 -0.8886
 4341TIP3    H234439   5.732   0.096  13.109  0.7586  0.0197 -0.0698
 4342TIP3   OH234440   6.740   5.677  12.561 -0.0799  0.4023 -0.0779
 4342TIP3    H134441   6.710   5.708  12.476 -1.9507  0.5057  0.5991
 4342TIP3    H234442   6.776   5.590  12.544 -1.0558  0.1475 -0.8616
 4343TIP3   OH234443   3.835   1.333   3.914 -0.3264  0.1787 -0.3637
 4343TIP3    H134444   3.789   1.327   3.997  0.6882  0.9041  0.2617
 4343TIP3    H234445   3.825   1.424   3.887  0.6001  0.3016 -0.3064
 4344TIP3   OH234446   0.016   2.798   5.911 -0.1080 -0.1189  0.6640
 4344TIP3    H134447   0.009   2.878   5.858  0.0788 -0.8502 -0.4968
 4344TIP3    H234448   0.059   2.826   5.992 -1.4466  1.2450  0.9120
 4345TIP3   OH234449   2.067   3.831  12.714 -0.4393  0.0581  0.0586
 4345TIP3    H134450   2.099   3.777  12.642 -0.8313 -0.8572  0.5564
 4345TIP3    H234451   2.143   3.879  12.745 -0.4995  1.2760 -1.6762
 4346TIP3   OH234452   6.118   6.473   2.966 -0.0754  0.1964 -0.7912
 4346TIP3    H134453   6.110   6.382   2.936 -2.6419 -0.4515  1.6514
 4346TIP3    H234454   6.118   6.525   2.886 -1.4209 -1.7933 -2.1252
 4347TIP3   OH234455   3.612   2.306  14.160  0.3080 -0.4892 -0.2876
 4347TIP3    H134456   3.607   2.359  14.081  0.1691 -0.7377 -0.4459
 4347TIP3    H234457   3.682   2.243  14.144  0.4073 -0.4193 -0.1378
 4348TIP3   OH234458   6.318   2.255   5.641 -0.3206 -0.3152  0.2667
 4348TIP3    H134459   6.257   2.315   5.598  1.9787 -0.1445 -2.9149
 4348TIP3    H234460   6.366   2.310   5.703 -1.0383  0.2699  0.3051
 4349TIP3   OH234461   1.987   0.128   5.924 -0.1377 -1.0316  0.2898
 4349TIP3    H134462   1.901   0.097   5.895 -1.3161  2.4522 -0.1815
 4349TIP3    H234463   1.981   0.129   6.020 -0.1928 -1.8558  0.3015
 4350TIP3   OH234464   3.292   0.542  11.940  0.1341  0.0124 -0.0947
 4350TIP3    H134465   3.312   0.461  11.893  0.0009  0.8341 -1.6119
 4350TIP3    H234466   3.219   0.581  11.891 -1.3860 -0.1042  1.9940
 4351TIP3   OH234467   5.142   3.065   2.855  1.2146  0.6446  1.0135
 4351TIP3    H134468   5.109   2.979   2.830  1.9547  0.9621 -1.0886
 4351TIP3    H234469   5.226   3.047   2.898  0.7376  0.2288  1.7755
 4352TIP3   OH234470   2.277   0.686   2.635  0.1941  0.3787  0.1936
 4352TIP3    H134471   2.348   0.748   2.618  0.4151 -0.0891 -0.6122
 4352TIP3    H234472   2.303   0.643   2.717  1.5837 -0.8300 -0.8625
 4353TIP3   OH234473   1.475   0.411  10.944 -0.8823  0.4932  0.1451
 4353TIP3    H134474   1.449   0.394  10.854 -1.7408  1.3902  0.2098
 4353TIP3    H234475   1.418   0.483  10.972  0.9815  1.8005  0.6492
 4354TIP3   OH234476   1.049   1.775  16.920 -0.5524  0.7932  0.0129
 4354TIP3    H134477   0.977   1.735  16.969 -1.5942 -0.1412 -2.1693
 4354TIP3    H234478   1.007   1.842  16.866  0.1498  0.0396 -1.5053
 4355TIP3   OH234479   4.042   3.270  15.153 -0.2743 -0.4713 -0.3044
 4355TIP3    H134480   4.074   3.326  15.224 -0.6395  0.6650 -1.0315
 4355TIP3    H234481   3.952   3.298  15.139 -0.2144 -0.7261 -1.1920
 4356TIP3   OH234482   3.557   3.659   5.422 -0.3975  0.3622  0.2971
 4356TIP3    H134483   3.584   3.654   5.514  0.9050 -0.5131 -0.1121
 4356TIP3    H234484   3.558   3.753   5.402 -2.1988  0.6787  1.5963
 4357TIP3   OH234485   6.556   2.752   5.139  0.4761 -0.4043  0.0146
 4357TIP3    H134486   6.538   2.838   5.102 -0.1094 -0.3773  0.3590
 4357TIP3    H234487   6.474   2.726   5.182  0.7983 -0.9235  0.3235
 4358TIP3   OH234488   0.711   1.387   5.025 -0.4224  0.4000 -0.1664
 4358TIP3    H134489   0.762   1.467   5.010 -0.0041  0.0379 -0.6955
 4358TIP3    H234490   0.726   1.334   4.947 -2.2938  0.6396 -0.7076
 4359TIP3   OH234491   6.260   1.831   4.795  0.0266 -0.4707 -0.7895
 4359TIP3    H134492   6.218   1.784   4.868  0.4303 -1.2556 -1.0654
 4359TIP3    H234493   6.321   1.768   4.758  0.3929  0.1973 -1.3161
 4360TIP3   OH234494   2.436   1.999  16.797  0.0794  0.1159  0.7371
 4360TIP3    H134495   2.465   2.058  16.866 -2.1548  0.1051  1.7245
 4360TIP3    H234496   2.498   1.926  16.800  0.1555  0.2500  2.5522
 4361TIP3   OH234497   6.547   0.614   4.453 -0.1411  0.1952  0.1794
 4361TIP3    H134498   6.566   0.524   4.477 -2.4057 -0.5964 -0.8198
 4361TIP3    H234499   6.582   0.624   4.364  2.2468  1.0724  1.1754
 4362TIP3   OH234500   1.747   0.163   2.849 -0.1649 -0.0459 -0.4477
 4362TIP3    H134501   1.817   0.098   2.845  1.6135  1.6021  2.1259
 4362TIP3    H234502   1.682   0.124   2.907  0.2800 -0.0992  0.0198
 4363TIP3   OH234503   1.347   5.083  13.209 -0.0895  0.2740  0.1988
 4363TIP3    H134504   1.377   5.127  13.289  2.8501 -3.2234  1.0972
 4363TIP3    H234505   1.310   5.000  13.239 -1.9466  0.3167 -1.8208
 4364TIP3   OH234506   3.148   6.605   0.775 -0.0136  0.7040 -0.5921
 4364TIP3    H134507   3.155   6.536   0.841 -0.5787  0.5653 -0.6722
 4364TIP3    H234508   3.238   6.618   0.744 -0.1369 -1.2588 -1.8524
 4365TIP3   OH234509   2.803   6.110  16.350  0.0580 -0.0436 -0.7118
 4365TIP3    H134510   2.897   6.128  16.356 -0.2138  1.3009 -0.2460
 4365TIP3    H234511   2.762   6.183  16.396 -1.1947 -0.9765 -0.3147
 4366TIP3   OH234512   3.686   1.741   0.168  0.0010  0.1680  0.7345
 4366TIP3    H134513   3.666   1.649   0.150 -0.4003  0.7430 -1.9476
 4366TIP3    H234514   3.633   1.762   0.246  2.3847 -2.6379  3.2134
 4367TIP3   OH234515   6.779   2.246  16.593 -0.2636  0.8838 -0.4759
 4367TIP3    H134516   6.807   2.277  16.507  2.3590  1.0380  0.3963
 4367TIP3    H234517   6.855   2.258  16.650 -1.6511 -0.0496  1.6797
 4368TIP3   OH234518   1.753   1.850   6.484  0.1820  0.7031 -0.0276
 4368TIP3    H134519   1.785   1.773   6.437  0.4789 -0.1710  1.5672
 4368TIP3    H234520   1.661   1.831   6.502  0.5127  0.2662  1.2461
 4369TIP3   OH234521   1.911   1.660  13.068  0.1768  0.1269  0.3285
 4369TIP3    H134522   1.974   1.733  13.077 -0.3906  0.4795  1.4885
 4369TIP3    H234523   1.886   1.662  12.976  0.2099  1.3738  0.3372
 4370TIP3   OH234524   6.492   4.323  13.187 -0.2262 -0.3548 -0.1292
 4370TIP3    H134525   6.506   4.262  13.259 -2.2786 -1.2313 -0.4406
 4370TIP3    H234526   6.484   4.409  13.230  2.7933 -0.2218  0.2923
 4371TIP3   OH234527   3.044   2.273   1.236 -0.4314  0.7389 -0.3439
 4371TIP3    H134528   3.078   2.202   1.181  0.3655  0.3204  0.6882
 4371TIP3    H234529   2.993   2.228   1.304 -0.7221  1.2135 -0.2469
 4372TIP3   OH234530   4.819   1.110  15.905  0.5348 -0.7357 -0.4074
 4372TIP3    H134531   4.898   1.114  15.851  0.1659  2.9135 -0.8332
 4372TIP3    H234532   4.842   1.161  15.983 -0.9636 -0.7351  0.0461
 4373TIP3   OH234533   6.128   6.565  14.560 -0.1573 -0.1541 -0.0223
 4373TIP3    H134534   6.107   6.652  14.524 -0.7706 -1.0558 -1.8875
 4373TIP3    H234535   6.223   6.567  14.571 -0.0759  0.5209 -0.7344
 4374TIP3   OH234536   5.003   1.704   5.184 -0.2344 -0.0702 -0.1085
 4374TIP3    H134537   4.969   1.726   5.271  0.5432  0.6166  0.0334
 4374TIP3    H234538   5.096   1.689   5.198 -0.1289 -0.0921 -0.8044
 4375TIP3   OH234539   6.185   5.901  15.680 -0.2246  0.0694  0.7078
 4375TIP3    H134540   6.249   5.849  15.729  1.8995  0.8630 -1.1572
 4375TIP3    H234541   6.215   5.991  15.690 -1.8788  0.6167  0.9571
 4376TIP3   OH234542   3.430   4.376  11.832 -0.3602  0.1375  0.5784
 4376TIP3    H134543   3.516   4.375  11.874  0.1224 -0.2502 -0.4059
 4376TIP3    H234544   3.448   4.361  11.739 -1.3441  1.8423  0.0822
 4377TIP3   OH234545   0.806   3.499  14.211 -0.1484  0.4651 -0.0024
 4377TIP3    H134546   0.772   3.464  14.293  1.9112 -2.3308 -0.2764
 4377TIP3    H234547   0.890   3.538  14.234  0.3870 -0.2321 -0.7853
 4378TIP3   OH234548   1.395   4.560  16.925 -0.1347 -0.2779 -0.4811
 4378TIP3    H134549   1.429   4.650  16.928 -1.1063  0.1139 -0.9359
 4378TIP3    H234550   1.306   4.567  16.959 -1.0193 -0.6643 -2.6482
 4379TIP3   OH234551   3.475   3.980  15.941  0.6745  0.2994 -0.1212
 4379TIP3    H134552   3.569   3.979  15.960  0.4248 -1.0731  1.0302
 4379TIP3    H234553   3.470   4.017  15.853  2.4242 -1.2375 -0.9064
 4380TIP3   OH234554   3.230   2.926   1.894 -0.7585  0.2557 -0.5267
 4380TIP3    H134555   3.307   2.973   1.861 -0.0922 -1.0093 -0.7791
 4380TIP3    H234556   3.167   2.930   1.822 -0.4336  0.1215 -0.8185
 4381TIP3   OH234557   6.345   1.225  16.981  0.1639  0.0034 -0.1314
 4381TIP3    H134558   6.430   1.183  16.993  0.4098  0.6735  0.5083
 4381TIP3    H234559   6.351   1.306  17.032 -0.8928  0.0056 -0.0066
 4382TIP3   OH234560   3.448   6.476   1.900  0.4169 -0.2934 -0.8926
 4382TIP3    H134561   3.464   6.465   1.806 -2.7155 -3.2283 -1.1680
 4382TIP3    H234562   3.375   6.538   1.904  0.0128 -0.7990 -0.4310
 4383TIP3   OH234563   5.689   4.388  13.156 -0.1225 -0.1034  1.0039
 4383TIP3    H134564   5.608   4.439  13.161 -1.0975 -1.6934  1.8060
 4383TIP3    H234565   5.758   4.452  13.172 -1.2393  1.1758  0.8635
 4384TIP3   OH234566   4.716   0.191   3.693 -0.4329  0.0918  0.3952
 4384TIP3    H134567   4.721   0.218   3.602 -1.4290  0.4637  0.4392
 4384TIP3    H234568   4.631   0.146   3.700  0.1935 -1.0345  0.8495
 4385TIP3   OH234569   0.531   4.887  15.501 -0.2444  0.1672 -0.6756
 4385TIP3    H134570   0.519   4.817  15.438 -0.6949 -1.1519  0.8346
 4385TIP3    H234571   0.570   4.844  15.578 -0.0285  1.6581  0.0738
 4386TIP3   OH234572   4.893   2.664   0.630  0.3665 -0.1676 -0.6402
 4386TIP3    H134573   4.851   2.626   0.707  2.7839 -0.7240  0.4622
 4386TIP3    H234574   4.882   2.599   0.561  0.8779 -1.0343  0.0980
 4387TIP3   OH234575   2.253   5.046  13.126  0.4832 -0.3525 -0.1726
 4387TIP3    H134576   2.225   4.957  13.151  0.2366  0.1442  1.3561
 4387TIP3    H234577   2.231   5.100  13.202 -0.8113  1.3183 -1.6953
 4388TIP3   OH234578   1.406   4.918  11.278 -0.4079 -0.8690  0.2579
 4388TIP3    H134579   1.453   4.835  11.262 -0.0748 -0.5700 -0.3109
 4388TIP3    H234580   1.409   4.928  11.374 -0.9069 -1.7787  0.3774
 4389TIP3   OH234581   1.932   6.749   2.805 -0.7011  0.3658  0.9574
 4389TIP3    H134582   1.967   6.766   2.717  0.1963 -0.6997  1.0968
 4389TIP3    H234583   2.010   6.738   2.859 -1.2546  0.7380  1.8352
 4390TIP3   OH234584   3.438   5.471   6.397  0.2113 -0.3934  0.0314
 4390TIP3    H134585   3.363   5.490   6.341 -0.0664  0.6288  0.7259
 4390TIP3    H234586   3.448   5.550   6.452  1.4745 -0.7118  0.2911
 4391TIP3   OH234587   6.250   5.763   3.276  0.0773  0.4100  0.0593
 4391TIP3    H134588   6.182   5.739   3.213 -0.5169  1.1707  0.4085
 4391TIP3    H234589   6.324   5.789   3.222 -1.0935  2.9923 -0.3695
 4392TIP3   OH234590   2.673   5.940   3.294  0.1208 -0.0045  0.9199
 4392TIP3    H134591   2.640   6.015   3.342  3.9427  1.0522  2.1259
 4392TIP3    H234592   2.704   5.975   3.211  1.0041 -0.3722  1.0787
 4393TIP3   OH234593   4.662   1.281   4.484  0.1760  0.4701  0.1722
 4393TIP3    H134594   4.663   1.219   4.411  1.2531  0.8422 -0.1304
 4393TIP3    H234595   4.749   1.276   4.523 -0.3208  0.4264  1.3162
 4394TIP3   OH234596   1.947   3.346   0.004 -0.2351 -0.2053  0.1897
 4394TIP3    H134597   1.997   3.427   0.019 -0.0134 -0.2881 -0.0983
 4394TIP3    H234598   1.983   3.284   0.067  1.2767 -0.8061 -1.2118
 4395TIP3   OH234599   3.411   4.986   1.827  0.1768 -0.2860 -0.1555
 4395TIP3    H134600   3.326   4.949   1.800 -0.2752  0.6335 -0.0302
 4395TIP3    H234601   3.387   5.059   1.884  1.0927 -0.8759  0.9834
 4396TIP3   OH234602   0.664   3.819  15.496  0.5288  0.3355 -0.1361
 4396TIP3    H134603   0.638   3.761  15.425 -0.1370  1.6951 -1.0307
 4396TIP3    H234604   0.759   3.825  15.489  0.5948 -0.6027 -0.0637
 4397TIP3   OH234605   5.987   3.842   3.250 -0.5421 -0.1165  0.2379
 4397TIP3    H134606   6.079   3.816   3.240 -0.2283  0.9473  0.2768
 4397TIP3    H234607   5.959   3.866   3.162 -0.9955 -1.0939  0.1085
 4398TIP3   OH234608   1.272   0.832   5.854 -0.2509  0.2278 -0.2922
 4398TIP3    H134609   1.342   0.877   5.900 -0.9039  1.4536 -0.4588
 4398TIP3    H234610   1.304   0.822   5.764  1.1869 -2.5281  0.4787
 4399TIP3   OH234611   0.312   4.476  10.862 -0.4280  0.0084  0.3728
 4399TIP3    H134612   0.253   4.546  10.834 -2.2983 -1.2234  1.0626
 4399TIP3    H234613   0.370   4.518  10.925  0.6215  1.6549 -1.6420
 4400TIP3   OH234614   5.590   6.761  15.417 -0.1178 -0.0670 -0.6560
 4400TIP3    H134615   5.520   6.776  15.353 -1.0454  0.5393  0.4741
 4400TIP3    H234616   5.595   6.666  15.425 -0.1199 -0.1440 -1.4764
 4401TIP3   OH234617   0.899   3.009  15.240 -0.0945 -0.5185 -0.5591
 4401TIP3    H134618   0.978   2.955  15.240  0.0265 -0.3490 -0.1002
 4401TIP3    H234619   0.827   2.947  15.249  0.1021 -0.5424  1.0500
 4402TIP3   OH234620   1.526   2.261  12.779  0.3827 -0.2401  0.1701
 4402TIP3    H134621   1.605   2.227  12.737  0.0809  1.0444 -1.5029
 4402TIP3    H234622   1.535   2.356  12.773 -1.9164 -0.0563 -1.3525
 4403TIP3   OH234623   2.740   6.122   2.217 -0.2575  0.4330 -0.2995
 4403TIP3    H134624   2.825   6.103   2.177  0.9900  0.7802  2.1250
 4403TIP3    H234625   2.729   6.216   2.204  0.2221  0.5749  0.2757
 4404TIP3   OH234626   1.663   2.227  13.555 -0.0509 -0.3801 -0.3365
 4404TIP3    H134627   1.727   2.174  13.601  2.0273  0.7847 -1.8266
 4404TIP3    H234628   1.647   2.182  13.473 -0.2728 -0.0609 -0.4738
 4405TIP3   OH234629   2.164   1.595   1.087 -0.3229 -0.1432  0.2249
 4405TIP3    H134630   2.168   1.595   1.182  0.0620  2.5638  0.2534
 4405TIP3    H234631   2.073   1.615   1.066 -0.6322 -1.7304  0.0009
 4406TIP3   OH234632   4.403   2.952   5.806 -0.1525  0.6537  0.5888
 4406TIP3    H134633   4.459   2.901   5.748 -0.8916 -0.4325  0.8283
 4406TIP3    H234634   4.460   3.022   5.839  1.0089 -0.3391  0.6944
 4407TIP3   OH234635   2.018   3.008  12.921  0.1618  0.2721  0.1072
 4407TIP3    H134636   2.030   2.988  12.828 -1.0680  0.9574 -0.1954
 4407TIP3    H234637   2.039   3.101  12.929 -1.7720  0.7317  0.1279
 4408TIP3   OH234638   5.703   2.846  15.573  0.1766  0.1095 -0.4311
 4408TIP3    H134639   5.625   2.816  15.526 -0.1023  0.9436 -0.5123
 4408TIP3    H234640   5.767   2.865  15.505  0.1050  0.3885 -0.4215
 4409TIP3   OH234641   5.670   1.615   0.457  0.3297 -0.2026  0.2818
 4409TIP3    H134642   5.674   1.653   0.369 -4.7184 -0.7879 -0.3523
 4409TIP3    H234643   5.648   1.689   0.514 -1.0908 -0.6692  0.3390
 4410TIP3   OH234644   4.355   1.402   5.702  0.0231 -0.1424  0.0193
 4410TIP3    H134645   4.373   1.335   5.768 -1.1395  1.0387  1.5829
 4410TIP3    H234646   4.368   1.485   5.748  2.7735  0.7835 -2.2425
 4411TIP3   OH234647   6.673   3.076  13.660  0.6229 -1.0298  0.0556
 4411TIP3    H134648   6.699   3.167  13.672  2.1233 -1.4032 -0.3299
 4411TIP3    H234649   6.669   3.064  13.565 -2.4888 -0.5646  0.0634
 4412TIP3   OH234650   5.493   6.373   2.452  0.1690  0.9297  0.3992
 4412TIP3    H134651   5.458   6.446   2.503  0.3865  1.2097  0.1436
 4412TIP3    H234652   5.462   6.295   2.499  0.4737  1.1851  1.0300
 4413TIP3   OH234653   6.549   4.978  11.110  0.5677 -0.7058  0.1740
 4413TIP3    H134654   6.512   5.066  11.105  1.5060 -0.3131  0.0890
 4413TIP3    H234655   6.500   4.936  11.182  1.5457  0.5857  1.6276
 4414TIP3   OH234656   5.645   0.674  12.629  0.2906 -0.1639 -0.5134
 4414TIP3    H134657   5.600   0.741  12.680 -0.5157 -0.0635 -1.3445
 4414TIP3    H234658   5.738   0.692  12.642  0.0942 -0.4843  1.3500
 4415TIP3   OH234659   2.219   5.917  12.979 -0.0949  0.4337 -0.5330
 4415TIP3    H134660   2.150   5.898  12.915  0.2684  0.0756 -0.8248
 4415TIP3    H234661   2.267   5.835  12.987 -0.8447  0.1384  1.0836
 4416TIP3   OH234662   3.695   2.298   1.281 -0.5154 -0.4125 -0.7028
 4416TIP3    H134663   3.643   2.321   1.358 -1.2558 -0.9049 -1.0509
 4416TIP3    H234664   3.666   2.358   1.213 -1.2275 -1.2253 -1.1301
 4417TIP3   OH234665   1.933   6.767   2.491  0.6732  0.2745  0.0598
 4417TIP3    H134666   2.027   6.762   2.472  0.1504  1.3624 -3.1600
 4417TIP3    H234667   1.897   6.820   2.420 -2.3104  0.4262  1.5872
 4418TIP3   OH234668   0.993   6.745  12.873  0.7565 -0.2215 -0.3355
 4418TIP3    H134669   1.010   6.806  12.945  0.7810 -0.9735  0.2916
 4418TIP3    H234670   1.071   6.752  12.818  1.4034 -0.7796  0.5055
 4419TIP3   OH234671   1.990   1.139  16.370 -0.4130  0.0456 -0.1436
 4419TIP3    H134672   2.040   1.199  16.425 -1.2136  0.8031 -0.2407
 4419TIP3    H234673   2.054   1.103  16.309 -0.0111  1.0830 -0.3344
 4420TIP3   OH234674   5.049   2.698   4.744  0.7144  0.2274 -0.0094
 4420TIP3    H134675   5.051   2.759   4.671 -1.5193  0.4783  0.1113
 4420TIP3    H234676   5.096   2.744   4.814  1.8377  0.4574 -0.8867
 4421TIP3   OH234677   0.080   2.403  15.840 -0.4928 -0.4295  0.4828
 4421TIP3    H134678   0.132   2.423  15.918 -0.3619  1.7298 -0.1377
 4421TIP3    H234679  -0.004   2.446  15.856 -1.3621 -2.1015  0.5290
 4422TIP3   OH234680   1.979   4.893   2.256  0.2996 -0.4029  0.1017
 4422TIP3    H134681   2.018   4.816   2.297  1.4124  1.9436  3.7352
 4422TIP3    H234682   2.051   4.934   2.208  0.2524 -0.4963 -0.0473
 4423TIP3   OH234683   1.154   3.741  16.421  0.0456 -0.3105 -0.0660
 4423TIP3    H134684   1.093   3.698  16.480 -1.1078  0.8322 -0.4093
 4423TIP3    H234685   1.159   3.682  16.345 -0.7733 -0.3151 -0.1176
 4424TIP3   OH234686   4.235   4.789   6.484 -0.3393  0.3301 -0.0940
 4424TIP3    H134687   4.252   4.719   6.421 -0.7400 -0.3403  0.5237
 4424TIP3    H234688   4.194   4.858   6.433  1.4373  0.7311 -1.0083
 4425TIP3   OH234689   1.672   3.148   2.627 -0.7493  0.7679  0.4139
 4425TIP3    H134690   1.577   3.137   2.628 -0.7838  1.1090  0.8385
 4425TIP3    H234691   1.706   3.060   2.616 -1.0666  0.4541  1.8733
 4426TIP3   OH234692   0.894   5.819   6.333 -0.0452 -0.1801  0.0283
 4426TIP3    H134693   0.802   5.834   6.354 -0.0651 -0.3933  0.0917
 4426TIP3    H234694   0.927   5.766   6.405  0.5978  1.4318  0.9440
 4427TIP3   OH234695   2.469   6.390  11.342 -0.5982 -0.2505  0.2458
 4427TIP3    H134696   2.435   6.415  11.256  1.3024  1.9587  0.0918
 4427TIP3    H234697   2.470   6.294  11.341  0.3331 -0.2559 -2.5978
 4428TIP3   OH234698   0.277   4.707   1.403 -0.4932  0.0172 -0.1105
 4428TIP3    H134699   0.234   4.763   1.339 -1.3227  0.2125  0.6188
 4428TIP3    H234700   0.239   4.620   1.389 -1.4109  0.2712  0.7955
 4429TIP3   OH234701   0.289   3.472  16.069  0.6995  0.7345 -0.4710
 4429TIP3    H134702   0.209   3.490  16.020  1.8773  0.4693 -2.5412
 4429TIP3    H234703   0.260   3.423  16.146 -1.2009  1.3170 -0.7950
 4430TIP3   OH234704   4.649   0.918   5.894 -0.9567 -0.2352 -0.3834
 4430TIP3    H134705   4.627   0.974   5.969 -1.7317 -1.7003  0.4961
 4430TIP3    H234706   4.571   0.922   5.839  0.0098  1.6813 -1.6518
 4431TIP3   OH234707   4.799   5.916  15.067 -0.5705 -0.3394 -0.3674
 4431TIP3    H134708   4.815   5.915  14.972 -0.5091 -2.2246 -0.3554
 4431TIP3    H234709   4.879   5.952  15.104 -1.3410  2.2779 -1.1410
 4432TIP3   OH234710   0.151   6.210  15.405  0.2651 -0.1794 -0.4907
 4432TIP3    H134711   0.218   6.143  15.389 -1.1899 -1.5549 -1.0545
 4432TIP3    H234712   0.068   6.162  15.399 -0.8703  1.8801 -1.9546
 4433TIP3   OH234713   3.636   5.592  16.334 -0.4395 -0.2908  0.2141
 4433TIP3    H134714   3.653   5.685  16.349  1.0702 -0.7987  1.7879
 4433TIP3    H234715   3.583   5.565  16.409 -1.0157 -0.6703 -0.3267
 4434TIP3   OH234716   1.820   6.709   0.052 -0.3612  0.1880  0.3509
 4434TIP3    H134717   1.774   6.757  -0.017 -0.7120 -0.7495 -0.0726
 4434TIP3    H234718   1.765   6.719   0.130  0.3103  1.7113  0.6485
 4435TIP3   OH234719   2.691   2.559   2.216  0.6098 -0.2252  0.5584
 4435TIP3    H134720   2.633   2.528   2.147 -2.0660  1.0999  2.1476
 4435TIP3    H234721   2.710   2.481   2.268  1.9604 -1.0597 -1.1086
 4436TIP3   OH234722   6.086   1.762   1.673 -0.7300 -0.2702  0.1102
 4436TIP3    H134723   6.021   1.701   1.638 -1.2100  0.7901 -0.8951
 4436TIP3    H234724   6.103   1.823   1.601  0.6255  0.0761  0.7032
 4437TIP3   OH234725   0.969   4.831   3.686  0.0207  0.3752 -0.6706
 4437TIP3    H134726   0.984   4.923   3.662 -2.5367  0.8678 -0.4646
 4437TIP3    H234727   0.921   4.794   3.612 -1.7730  0.0730  0.6029
 4438TIP3   OH234728   3.728   0.676   3.970 -0.0019  0.2660 -0.4457
 4438TIP3    H134729   3.774   0.754   3.940  0.8675 -0.6403 -1.5340
 4438TIP3    H234730   3.722   0.620   3.892 -1.1196 -0.5070  0.1788
 4439TIP3   OH234731   5.673   5.326   0.698  0.7985  0.1116 -0.0619
 4439TIP3    H134732   5.714   5.276   0.768  0.0100 -1.5662 -0.7773
 4439TIP3    H234733   5.580   5.309   0.706  0.7255 -0.4021 -1.7310
 4440TIP3   OH234734   3.315   5.987   2.461  0.5679 -0.4662 -0.7549
 4440TIP3    H134735   3.385   5.923   2.475 -0.0445 -0.7942  0.9016
 4440TIP3    H234736   3.341   6.033   2.381  3.4021  0.3604  0.5364
 4441TIP3   OH234737   5.355   5.805  11.731  0.0591 -0.0171 -0.2729
 4441TIP3    H134738   5.313   5.774  11.811  0.9983  1.6709  0.9248
 4441TIP3    H234739   5.292   5.866  11.692  0.7999  1.5195  0.8420
 4442TIP3   OH234740   5.954   5.347  13.249 -0.5883 -0.2959  0.0466
 4442TIP3    H134741   6.009   5.397  13.187 -0.3999  1.2209  1.4117
 4442TIP3    H234742   6.017   5.303  13.306 -0.7723 -1.5202 -0.6623
 4443TIP3   OH234743   1.826   0.222   4.690  0.1918 -0.8656 -0.1278
 4443TIP3    H134744   1.881   0.169   4.634  0.6235 -1.3916  0.7841
 4443TIP3    H234745   1.880   0.242   4.766  0.2373  1.3654 -0.6981
 4444TIP3   OH234746   0.124   4.048  16.007 -0.3463  0.1037 -0.2673
 4444TIP3    H134747   0.114   4.033  16.101 -1.1375  0.1473 -0.3387
 4444TIP3    H234748   0.218   4.042  15.992 -0.1448  0.7565  0.6431
 4445TIP3   OH234749   3.553   0.314  14.328 -0.0429 -0.2372  0.3481
 4445TIP3    H134750   3.532   0.389  14.273 -1.9411 -1.1211 -0.1717
 4445TIP3    H234751   3.634   0.279  14.290 -1.4289 -0.9569 -2.0739
 4446TIP3   OH234752   5.051   1.933   0.451  0.5097  0.1010 -0.5213
 4446TIP3    H134753   5.061   1.848   0.409  0.5138 -0.0694 -0.1751
 4446TIP3    H234754   5.073   1.918   0.543 -0.5230  0.2477 -0.2395
 4447TIP3   OH234755   0.408   3.876   0.285 -0.2426  0.1961  0.5196
 4447TIP3    H134756   0.363   3.861   0.367  1.3932  0.6148  1.5243
 4447TIP3    H234757   0.485   3.928   0.309  0.6933 -0.3702 -1.1436
 4448TIP3   OH234758   6.535   1.490   3.521 -0.3788  0.2952 -0.5482
 4448TIP3    H134759   6.559   1.397   3.525  0.8583  0.6695  1.4231
 4448TIP3    H234760   6.490   1.500   3.437 -2.7623 -2.6056  0.3027
 4449TIP3   OH234761   3.331   3.245  13.057 -0.3444  0.2703  0.5899
 4449TIP3    H134762   3.367   3.158  13.037  0.3226  0.4697  0.9248
 4449TIP3    H234763   3.373   3.270  13.139 -0.1971  1.1107  0.2608
 4450TIP3   OH234764   0.150   0.495  12.374 -0.0670 -0.5014 -0.2984
 4450TIP3    H134765   0.164   0.416  12.426 -0.6775  1.0216  2.2237
 4450TIP3    H234766   0.236   0.534  12.366  0.0374 -0.7699 -0.4915
 4451TIP3   OH234767   1.684   1.758  12.350  0.0992 -0.0402 -0.2590
 4451TIP3    H134768   1.715   1.670  12.331 -1.6137 -0.3193 -1.9600
 4451TIP3    H234769   1.746   1.816  12.306  0.3805 -0.4656 -0.4223
 4452TIP3   OH234770   5.521   3.944   5.208  0.5956  0.1519 -0.4693
 4452TIP3    H134771   5.503   4.038   5.202  0.0689  0.1555  0.9062
 4452TIP3    H234772   5.600   3.932   5.155  0.1641  1.2127 -1.3861
 4453TIP3   OH234773   0.240   2.083  16.528  0.1006  0.3020 -0.2457
 4453TIP3    H134774   0.243   2.095  16.622 -0.1669  0.7012 -0.2878
 4453TIP3    H234775   0.313   2.024  16.508 -0.8857 -1.1737  0.4245
 4454TIP3   OH234776   2.299   6.022  13.531  0.6870 -0.4942  0.1545
 4454TIP3    H134777   2.324   5.964  13.604 -1.6330 -3.8627 -1.5866
 4454TIP3    H234778   2.343   5.983  13.455  0.7349  1.2986 -0.7528
 4455TIP3   OH234779   5.957   2.096   2.802  0.9754 -0.1062 -0.2064
 4455TIP3    H134780   5.888   2.046   2.845  0.5378 -0.4184 -1.2710
 4455TIP3    H234781   5.951   2.184   2.840  0.8893 -0.5028  0.6965
 4456TIP3   OH234782   3.713   1.349   4.171  0.3047 -0.2089 -0.5366
 4456TIP3    H134783   3.622   1.320   4.176  0.8177 -1.3542  2.8865
 4456TIP3    H234784   3.711   1.439   4.205  0.5592 -0.5338  0.3538
 4457TIP3   OH234785   2.764   2.135   1.945 -0.2157 -0.1913  0.4245
 4457TIP3    H134786   2.736   2.111   2.033 -0.4050  0.9019  0.6696
 4457TIP3    H234787   2.824   2.209   1.958 -0.7454  0.3940 -0.3999
 4458TIP3   OH234788   0.500   5.470  14.043  0.0332  0.9777 -0.3346
 4458TIP3    H134789   0.423   5.451  14.096 -0.2596  2.2024 -0.3107
 4458TIP3    H234790   0.540   5.547  14.084  0.0073  1.7080 -1.6504
 4459TIP3   OH234791   0.393   6.754  14.694 -0.0590  0.1864 -0.3838
 4459TIP3    H134792   0.328   6.698  14.652  0.2837 -0.7208  0.2667
 4459TIP3    H234793   0.345   6.801  14.763  0.1714 -1.2492  0.7764
 4460TIP3   OH234794   5.918   1.087   5.463 -0.3844 -0.3000  0.1051
 4460TIP3    H134795   6.007   1.103   5.430 -0.6064  3.4433  1.0298
 4460TIP3    H234796   5.875   1.037   5.394  1.9440 -0.6772 -1.1160
 4461TIP3   OH234797   3.575   1.678  17.112 -0.0673  0.0441  0.0655
 4461TIP3    H134798   3.647   1.642  17.060 -0.4690 -1.7662  0.7185
 4461TIP3    H234799   3.498   1.668  17.057  0.2741  2.9038 -1.0463
 4462TIP3   OH234800   1.026   3.271  11.889 -0.2428 -0.8327  0.5143
 4462TIP3    H134801   0.984   3.220  11.958 -0.3386 -1.6765 -0.1492
 4462TIP3    H234802   0.956   3.291  11.827  0.0478 -1.0545  0.1055
 4463TIP3   OH234803   2.570   4.017  15.846 -0.5383  0.2283 -0.0934
 4463TIP3    H134804   2.480   3.987  15.832 -0.3681  0.8481 -2.8138
 4463TIP3    H234805   2.606   3.956  15.911 -2.4345 -0.9946 -0.1661
 4464TIP3   OH234806   3.255   3.611   5.838 -0.2026 -0.0591  0.1212
 4464TIP3    H134807   3.175   3.633   5.790  0.0480  1.1866  0.2582
 4464TIP3    H234808   3.225   3.592   5.927 -0.3987 -0.0474  0.0579
 4465TIP3   OH234809   0.154   2.994  15.916  0.3639  0.1811 -0.2939
 4465TIP3    H134810   0.124   2.913  15.873  1.5210 -0.4017 -0.0333
 4465TIP3    H234811   0.208   3.037  15.850  1.4516 -0.2985  0.2597
 4466TIP3   OH234812   3.653   4.864   5.229 -0.1932 -0.1108 -0.1211
 4466TIP3    H134813   3.591   4.873   5.156  0.1981  1.0991 -0.3205
 4466TIP3    H234814   3.610   4.909   5.302  0.5813  1.0212 -0.3511
 4467TIP3   OH234815   5.503   0.587   0.370 -0.1322  0.3374 -0.0512
 4467TIP3    H134816   5.552   0.658   0.411  0.0950  1.0735 -1.5650
 4467TIP3    H234817   5.471   0.624   0.288  0.4752 -1.4805 -1.1296
 4468TIP3   OH234818   2.245   5.833  11.281 -0.4119 -0.0250  0.0273
 4468TIP3    H134819   2.314   5.891  11.313 -0.3590  0.1068 -0.3302
 4468TIP3    H234820   2.166   5.861  11.328 -0.2152 -0.2101  0.4741
 4469TIP3   OH234821   6.556   6.496   1.071  0.4424 -0.7220  0.3459
 4469TIP3    H134822   6.540   6.413   1.115 -1.6199 -0.5645 -0.0191
 4469TIP3    H234823   6.565   6.560   1.141 -0.2933 -0.8941  0.6077
 4470TIP3   OH234824   0.165   0.879  14.959 -0.6511  0.4341  0.1070
 4470TIP3    H134825   0.121   0.794  14.967  0.6140 -0.2591 -0.2006
 4470TIP3    H234826   0.096   0.938  14.927 -0.4845 -1.4592 -4.0770
 4471TIP3   OH234827   2.696   1.335  16.145 -0.0875  0.0779 -0.3363
 4471TIP3    H134828   2.632   1.405  16.162  1.4797  1.5291 -0.2901
 4471TIP3    H234829   2.707   1.335  16.050 -1.4102 -1.3417 -0.5175
 4472TIP3   OH234830   4.328   0.767  11.883  0.4527  0.0658  0.3706
 4472TIP3    H134831   4.392   0.825  11.924  2.5718  0.0287 -2.7157
 4472TIP3    H234832   4.351   0.680  11.914  2.1227  0.0238 -0.9253
 4473TIP3   OH234833   0.624   4.070  12.825 -0.3974  0.0903 -0.3991
 4473TIP3    H134834   0.555   4.113  12.876 -0.5218 -0.7188  0.1185
 4473TIP3    H234835   0.590   3.982  12.809 -0.5578  0.4773 -2.2882
 4474TIP3   OH234836   0.136   6.351   2.610  0.0496  0.0549  0.1667
 4474TIP3    H134837   0.102   6.286   2.548  1.3887 -2.3248  1.8558
 4474TIP3    H234838   0.189   6.410   2.555  2.0469 -2.6035 -0.8889
 4475TIP3   OH234839   0.309   5.077   0.615 -0.1032 -0.8164 -0.2049
 4475TIP3    H134840   0.397   5.107   0.591 -0.1609  0.5470  1.2208
 4475TIP3    H234841   0.303   4.990   0.576  1.6064 -0.6444 -0.9392
 4476TIP3   OH234842   6.402   1.801   2.465 -0.0569 -0.2633  0.7913
 4476TIP3    H134843   6.333   1.787   2.400 -0.2002 -0.8319  1.0678
 4476TIP3    H234844   6.445   1.882   2.437 -0.7043 -0.0154  0.5017
 4477TIP3   OH234845   1.967   1.532   3.214  0.4857  0.0830 -0.7528
 4477TIP3    H134846   1.889   1.481   3.194 -1.1613  3.0561 -2.2493
 4477TIP3    H234847   1.971   1.535   3.309 -0.3735 -1.3332 -0.6639
 4478TIP3   OH234848   0.033   1.069  14.088  0.1102 -0.2007  0.1873
 4478TIP3    H134849   0.000   1.136  14.149  1.7015  0.0808  0.7691
 4478TIP3    H234850   0.122   1.051  14.119  1.1119  0.2500 -2.3014
 4479TIP3   OH234851   0.826   3.846  14.028 -0.1454 -0.1312 -0.0722
 4479TIP3    H134852   0.798   3.780  14.091 -2.0623  2.1291  1.5490
 4479TIP3    H234853   0.918   3.860  14.046  0.4034 -2.5746 -0.7030
 4480TIP3   OH234854   1.803   4.693  11.926  0.1710 -0.9329 -0.2176
 4480TIP3    H134855   1.888   4.721  11.891 -0.2378  0.4757 -0.1419
 4480TIP3    H234856   1.739   4.746  11.878 -0.5877 -1.1827  0.5066
 4481TIP3   OH234857   4.497   2.746   0.154 -0.0535 -0.0939  0.1539
 4481TIP3    H134858   4.464   2.687   0.087 -0.4103  1.3218 -0.9620
 4481TIP3    H234859   4.576   2.704   0.187  1.7078  0.4244 -3.1248
 4482TIP3   OH234860   2.686   0.195   1.864 -0.0398 -0.0482 -0.8282
 4482TIP3    H134861   2.682   0.121   1.925  1.3916  0.1610 -0.4637
 4482TIP3    H234862   2.595   0.215   1.844 -0.4892 -0.5959  0.6642
 4483TIP3   OH234863   3.660   6.288   3.982 -0.0177  0.2490  0.3983
 4483TIP3    H134864   3.633   6.198   3.963 -1.7000  0.7791  0.1972
 4483TIP3    H234865   3.609   6.313   4.059  1.3594  0.6160  1.2001
 4484TIP3   OH234866   3.728   3.898  12.530  0.0595  0.3343 -0.2442
 4484TIP3    H134867   3.809   3.936  12.563  0.2929  0.9963 -1.5526
 4484TIP3    H234868   3.751   3.808  12.508 -0.4432 -0.5409  2.6638
 4485TIP3   OH234869   3.491   4.881  14.726  0.2086 -0.4115  0.1207
 4485TIP3    H134870   3.498   4.786  14.725  0.8958 -0.3666  0.9298
 4485TIP3    H234871   3.575   4.912  14.693 -0.4337 -0.0864 -1.3032
 4486TIP3   OH234872   3.856   6.288  11.882  0.0440 -0.2208  0.1685
 4486TIP3    H134873   3.952   6.286  11.884  0.0285 -0.3099  1.2645
 4486TIP3    H234874   3.831   6.301  11.974 -0.9677  1.1235 -0.2879
 4487TIP3   OH234875   3.006   4.283   3.465  0.1719 -0.3967  0.7508
 4487TIP3    H134876   3.005   4.263   3.559 -0.0689 -4.3910 -0.0211
 4487TIP3    H234877   3.094   4.261   3.437 -0.1806 -0.5637 -0.2346
 4488TIP3   OH234878   3.755   5.477  16.799  0.0583  0.1146  0.6997
 4488TIP3    H134879   3.729   5.463  16.708  0.5447  2.3467  0.1836
 4488TIP3    H234880   3.828   5.416  16.813  0.8050  0.6404 -0.8016
 4489TIP3   OH234881   1.797   0.554  14.795  1.0205 -0.0564 -0.2448
 4489TIP3    H134882   1.744   0.630  14.772 -0.3086 -0.8189  0.2406
 4489TIP3    H234883   1.784   0.493  14.722  1.2906 -0.2172 -0.1588
 4490TIP3   OH234884   0.208   3.404   4.594 -0.0950  0.3238  0.8439
 4490TIP3    H134885   0.290   3.361   4.616 -0.1735 -1.6733 -2.3279
 4490TIP3    H234886   0.206   3.404   4.498 -4.8545 -1.9339  0.7971
 4491TIP3   OH234887   0.266   5.423  14.182 -0.2827 -0.2401  0.4527
 4491TIP3    H134888   0.237   5.504  14.224 -0.6490 -0.8590  1.4206
 4491TIP3    H234889   0.272   5.360  14.254 -2.5569 -1.7909 -0.6456
 4492TIP3   OH234890   2.376   3.227  14.978 -0.3644  0.1073  0.3063
 4492TIP3    H134891   2.465   3.213  14.944 -0.3660  0.0955  0.3065
 4492TIP3    H234892   2.341   3.298  14.923 -0.7090 -0.5583 -0.3358
 4493TIP3   OH234893   6.731   4.240   5.254  0.2897  0.5994  0.3914
 4493TIP3    H134894   6.771   4.323   5.230  0.4611  0.2718 -0.4486
 4493TIP3    H234895   6.651   4.264   5.301 -0.2438  1.2371 -0.8284
 4494TIP3   OH234896   5.315   2.235   2.315  0.0117 -0.2390  0.9116
 4494TIP3    H134897   5.316   2.266   2.225 -0.4476  2.3628  1.7756
 4494TIP3    H234898   5.226   2.201   2.327 -0.1336  0.0260  0.5867
 4495TIP3   OH234899   6.285   1.396  12.114 -0.5058 -0.1294  0.2387
 4495TIP3    H134900   6.197   1.406  12.149  0.0397  0.6040  1.4804
 4495TIP3    H234901   6.324   1.483  12.124  0.6607 -0.6749  0.6067
 4496TIP3   OH234902   2.952   3.750   3.309 -0.5175 -0.1499 -0.0475
 4496TIP3    H134903   3.008   3.709   3.375 -0.4902  1.3241  0.8564
 4496TIP3    H234904   3.003   3.825   3.277 -2.1633  1.5508  1.1903
 4497TIP3   OH234905   0.441   1.852   4.326 -0.1420  0.0754 -0.7981
 4497TIP3    H134906   0.446   1.792   4.401  1.3692 -0.4004 -1.2668
 4497TIP3    H234907   0.352   1.842   4.294  0.0306 -1.8082 -0.7577
 4498TIP3   OH234908   2.735   1.296   6.233  0.2961 -0.1562 -0.3418
 4498TIP3    H134909   2.644   1.291   6.261 -0.1889 -0.3510 -1.8723
 4498TIP3    H234910   2.765   1.381   6.263  0.5024 -1.2626  2.7069
 4499TIP3   OH234911   2.193   1.742   5.775  0.4138  0.3017  0.6348
 4499TIP3    H134912   2.241   1.721   5.855  1.4170 -0.2201 -0.0963
 4499TIP3    H234913   2.136   1.815   5.800  0.5709  0.0126  1.8735
 4500TIP3   OH234914   1.397   6.617  16.312 -0.0984 -0.4475  1.0620
 4500TIP3    H134915   1.464   6.617  16.243  0.2035  2.2027  1.2950
 4500TIP3    H234916   1.317   6.643  16.267  0.0705  1.1478  1.6606
 4501TIP3   OH234917   5.649   0.418  10.799 -0.2335 -0.2522  0.0374
 4501TIP3    H134918   5.616   0.468  10.724 -0.1037 -1.1029 -0.5908
 4501TIP3    H234919   5.743   0.434  10.798  0.0498 -1.9020 -1.2140
 4502TIP3   OH234920   4.491   0.388  10.300 -0.3728  0.3418  0.4323
 4502TIP3    H134921   4.428   0.449  10.338  0.9877  1.6767  0.5701
 4502TIP3    H234922   4.568   0.394  10.357  0.4601 -0.1154 -0.6240
 4503TIP3   OH234923   6.484   2.165   0.024  0.5248  0.1945 -0.3144
 4503TIP3    H134924   6.569   2.122   0.017  1.9444  3.1055 -1.9771
 4503TIP3    H234925   6.456   2.178  -0.066 -0.8912  0.7556  0.1889
 4504TIP3   OH234926   3.549   5.131  13.970  0.0385  0.3388 -0.0993
 4504TIP3    H134927   3.539   5.219  13.933  1.5570 -0.2283 -1.9422
 4504TIP3    H234928   3.621   5.139  14.032 -0.6653  0.6739  0.6776
 4505TIP3   OH234929   1.756   2.221   1.146  0.1278 -0.2904  0.1870
 4505TIP3    H134930   1.760   2.265   1.231  0.4274  2.9485 -1.4315
 4505TIP3    H234931   1.684   2.264   1.100 -0.7021 -2.7226 -0.8456
 4506TIP3   OH234932   5.336   0.192   1.885 -0.3173  0.4239 -0.2249
 4506TIP3    H134933   5.410   0.188   1.945 -0.2600 -0.3505 -0.3464
 4506TIP3    H234934   5.281   0.117   1.909  0.4355 -0.7462 -2.0876
 4507TIP3   OH234935   2.596   4.772   1.625 -0.0316 -0.1328 -0.3180
 4507TIP3    H134936   2.586   4.839   1.557 -0.6255  0.1731  0.0699
 4507TIP3    H234937   2.521   4.714   1.612  1.4551 -1.7881 -1.8341
 4508TIP3   OH234938   3.454   6.503  16.710 -0.3301  0.2734  0.3450
 4508TIP3    H134939   3.418   6.556  16.781  1.6163  1.4857  0.4543
 4508TIP3    H234940   3.506   6.436  16.754  0.1101  0.4521  0.1009
 4509TIP3   OH234941   3.453   3.075  13.527 -0.4313 -0.2908 -0.1378
 4509TIP3    H134942   3.505   3.071  13.447  0.3864  1.4967  0.2922
 4509TIP3    H234943   3.364   3.056  13.498 -0.1615  0.4798 -1.5092
 4510TIP3   OH234944   4.395   6.006  12.534  0.8075  0.5567 -0.0770
 4510TIP3    H134945   4.419   5.973  12.621  0.5697  1.9635  0.5280
 4510TIP3    H234946   4.381   5.927  12.482  1.8294 -0.3021  0.9181
 4511TIP3   OH234947   0.662   0.860   2.421 -0.3547 -0.3456 -0.1982
 4511TIP3    H134948   0.597   0.920   2.456  0.1014 -0.6357  1.1938
 4511TIP3    H234949   0.625   0.773   2.438 -0.3679 -0.4851 -0.9264
 4512TIP3   OH234950   2.322   5.371  13.592 -0.1493  0.0904  0.4036
 4512TIP3    H134951   2.275   5.370  13.676 -0.4254  0.4431  0.2541
 4512TIP3    H234952   2.259   5.334  13.530 -1.6812  4.1567 -0.5686
 4513TIP3   OH234953   0.451   2.622  13.947  0.4382 -0.1222  0.0670
 4513TIP3    H134954   0.483   2.644  14.034  0.9783  0.6375 -0.3240
 4513TIP3    H234955   0.361   2.591  13.962  1.3184 -2.2554  1.1627
 4514TIP3   OH234956   4.889   0.339   5.347  0.2703 -0.1729  0.4073
 4514TIP3    H134957   4.941   0.260   5.362 -1.2331 -1.3559 -0.4805
 4514TIP3    H234958   4.938   0.388   5.281  0.5681 -0.9783  0.0270
 4515TIP3   OH234959   6.544   5.368  12.700 -0.2302  0.6359 -0.1811
 4515TIP3    H134960   6.531   5.308  12.773  1.8053  0.0777 -0.2221
 4515TIP3    H234961   6.510   5.452  12.730  0.8642  0.4755  1.5304
 4516TIP3   OH234962   6.723   4.368  14.806 -0.0122  0.3087 -0.0201
 4516TIP3    H134963   6.805   4.408  14.776  1.2653 -1.6650  0.7719
 4516TIP3    H234964   6.717   4.393  14.898 -0.2512  0.3554 -0.0482
 4517TIP3   OH234965   0.748   5.066  13.270 -0.3195 -0.2093  0.1223
 4517TIP3    H134966   0.751   5.141  13.211  2.5213 -1.2688 -1.1533
 4517TIP3    H234967   0.833   5.067  13.315 -0.8203 -1.8169  1.1737
 4518TIP3   OH234968   1.655   1.496   6.786  0.2968 -0.3472 -0.7015
 4518TIP3    H134969   1.676   1.405   6.806  0.9356  0.1260  0.8483
 4518TIP3    H234970   1.597   1.524   6.857  0.5595  0.6116 -0.8587
 4519TIP3   OH234971   5.399   0.455   4.588  0.1352 -0.1973  0.3154
 4519TIP3    H134972   5.345   0.381   4.559  2.5736 -1.9724  0.1566
 4519TIP3    H234973   5.412   0.508   4.510 -0.6888 -0.1831  0.1795
 4520TIP3   OH234974   0.070   3.579   3.119 -0.4082  0.1666 -0.2475
 4520TIP3    H134975   0.073   3.636   3.043 -1.9025  0.8666  0.2026
 4520TIP3    H234976   0.100   3.494   3.087  1.3153  1.0646 -1.0394
 4521TIP3   OH234977   1.233   2.200   5.735  0.1185 -0.4629 -0.7402
 4521TIP3    H134978   1.257   2.284   5.773 -0.6895 -0.5964  0.0811
 4521TIP3    H234979   1.182   2.223   5.657  0.2934 -0.2003 -0.7802
 4522TIP3   OH234980   4.762   5.199   4.692  0.7229 -0.2976  0.0472
 4522TIP3    H134981   4.721   5.158   4.769 -1.6046 -0.1747 -1.0987
 4522TIP3    H234982   4.854   5.176   4.700  0.7411  0.6922  3.5029
 4523TIP3   OH234983   4.726   6.299   4.029 -0.1752  0.2992 -0.0064
 4523TIP3    H134984   4.775   6.305   3.948 -0.4557  0.3522 -0.1733
 4523TIP3    H234985   4.747   6.213   4.065  0.3637  0.4880  0.1324
 4524TIP3   OH234986   6.418   1.926   0.372 -0.3059  0.3254 -0.1327
 4524TIP3    H134987   6.514   1.924   0.367 -0.4510 -0.7050 -2.8509
 4524TIP3    H234988   6.390   1.845   0.331 -2.4002  1.1885 -0.4652
 4525TIP3   OH234989   5.852   1.628  15.382  0.0466 -0.1032  0.1140
 4525TIP3    H134990   5.885   1.680  15.308 -0.2543 -1.9031 -1.3277
 4525TIP3    H234991   5.930   1.587  15.419 -0.3400 -3.4238 -2.5610
 4526TIP3   OH234992   6.221   6.414   3.398  0.4462 -0.0484 -0.5279
 4526TIP3    H134993   6.208   6.336   3.343 -0.0646 -1.1050  1.0473
 4526TIP3    H234994   6.138   6.462   3.390  0.9812  0.6890 -1.9887
 4527TIP3   OH234995   3.318   0.037   1.402 -0.4421  0.3087  0.0509
 4527TIP3    H134996   3.403   0.019   1.363 -0.1722 -0.9103  1.1711
 4527TIP3    H234997   3.329   0.123   1.443  0.3147  0.0798  0.3449
 4528TIP3   OH234998   1.948   0.323   4.917 -0.0154  0.0608 -0.3777
 4528TIP3    H134999   2.022   0.368   4.875 -0.2962  0.8411 -0.0480
 4528TIP3    H235000   1.977   0.309   5.007 -1.5631  3.5348  0.7709
 4529TIP3   OH235001   1.961   4.707   4.446 -0.2591 -0.8985  0.0906
 4529TIP3    H135002   1.978   4.801   4.451 -0.5739 -0.9005  1.3029
 4529TIP3    H235003   1.984   4.674   4.533  0.1844 -1.9963 -0.4414
 4530TIP3   OH235004   4.113   5.662  13.260  0.1940 -0.9856  0.0402
 4530TIP3    H135005   4.031   5.711  13.266  0.1382 -1.2308  1.5865
 4530TIP3    H235006   4.102   5.589  13.320  1.5352 -1.0354  0.2420
 4531TIP3   OH235007   4.324   1.975   3.332 -0.9039  1.4857 -0.3236
 4531TIP3    H135008   4.325   1.967   3.427 -0.0854 -0.0131 -0.4460
 4531TIP3    H235009   4.275   1.898   3.302  2.2011 -0.2136 -1.2764
 4532TIP3   OH235010   1.299   0.206   2.616 -0.8621  0.0412  0.2382
 4532TIP3    H135011   1.264   0.123   2.585 -1.2714  0.8893 -1.6963
 4532TIP3    H235012   1.389   0.208   2.583 -0.6201  0.0287  0.9099
 4533TIP3   OH235013   2.674   3.413  13.506 -0.2081  0.2446 -0.0834
 4533TIP3    H135014   2.689   3.366  13.588  0.3127 -1.3507 -1.0762
 4533TIP3    H235015   2.601   3.472  13.526 -0.2465 -0.2908  1.4561
 4534TIP3   OH235016   5.338   3.406  17.102 -0.4299 -0.4668  0.4769
 4534TIP3    H135017   5.300   3.454  17.029  0.0091 -0.5166  0.2142
 4534TIP3    H235018   5.265   3.394  17.163 -0.4642  0.8278  0.7017
 4535TIP3   OH235019   1.550   1.368  14.444  0.0650  0.3175  0.1337
 4535TIP3    H135020   1.549   1.323  14.529 -0.1951 -2.3055 -1.2133
 4535TIP3    H235021   1.642   1.388  14.429  0.3917 -1.1515  0.0734
 4536TIP3   OH235022   2.464   6.070   2.910 -0.6906  0.7316  0.6147
 4536TIP3    H135023   2.480   5.978   2.931  1.1445  0.9859  0.4629
 4536TIP3    H235024   2.431   6.070   2.820  0.2795  0.2885  0.2550
 4537TIP3   OH235025   5.393   4.577  16.998 -0.2565  0.2756 -0.5059
 4537TIP3    H135026   5.363   4.486  16.988 -1.0155  0.5830 -1.0427
 4537TIP3    H235027   5.387   4.594  17.092 -2.7412  0.6525 -0.6940
 4538TIP3   OH235028   3.286   5.632   3.840  0.0358 -0.5063 -0.0078
 4538TIP3    H135029   3.309   5.724   3.844 -1.8573  0.0470 -1.0665
 4538TIP3    H235030   3.206   5.626   3.894  0.0295 -1.4851 -0.1209
 4539TIP3   OH235031   0.556   1.070   6.701 -0.2699  0.0541  0.3671
 4539TIP3    H135032   0.645   1.105   6.711 -0.5361  1.2503 -1.2169
 4539TIP3    H235033   0.568   0.976   6.691  0.7752  0.1320  0.8076
 4540TIP3   OH235034   0.437   0.635  15.802  0.1031 -0.3640 -0.0284
 4540TIP3    H135035   0.468   0.663  15.716  0.2327 -1.5950 -0.3989
 4540TIP3    H235036   0.400   0.548  15.787 -0.4042 -0.3504  1.0558
 4541TIP3   OH235037   1.353   2.817  15.398  0.1882 -0.4320  0.4398
 4541TIP3    H135038   1.301   2.817  15.478 -1.3548  0.1114 -0.5336
 4541TIP3    H235039   1.442   2.797  15.427 -0.4597 -0.8393  2.2029
 4542TIP3   OH235040   0.057   4.199   4.275 -0.1093  0.1428  0.0579
 4542TIP3    H135041   0.011   4.197   4.191 -0.1701 -0.4664  0.1012
 4542TIP3    H235042   0.149   4.212   4.252 -0.4270  2.5207  0.0258
 4543TIP3   OH235043   3.367   3.824  11.034 -0.0168 -0.1955  0.3070
 4543TIP3    H135044   3.302   3.786  11.094 -1.4365  0.7573 -0.5866
 4543TIP3    H235045   3.451   3.798  11.071 -0.8615 -0.0894  2.4090
 4544TIP3   OH235046   1.595   3.158   5.617  0.4558  0.9281 -0.0868
 4544TIP3    H135047   1.508   3.125   5.592  0.7882  0.8300 -1.1382
 4544TIP3    H235048   1.596   3.152   5.713 -2.0486  4.3171  0.2518
 4545TIP3   OH235049   4.759   3.307   1.042  0.5586  0.3157 -0.2379
 4545TIP3    H135050   4.702   3.259   0.983 -0.4305  0.5168  0.5468
 4545TIP3    H235051   4.772   3.248   1.117  0.6628  0.6196 -0.0114
 4546TIP3   OH235052   3.135   4.862   1.765  0.4925  0.5908  0.2767
 4546TIP3    H135053   3.073   4.845   1.836  1.3483  1.7490  1.3428
 4546TIP3    H235054   3.174   4.777   1.746  0.1484  0.2421  1.1060
 4547TIP3   OH235055   4.819   4.074   5.608  0.2820  0.3547 -0.0590
 4547TIP3    H135056   4.759   4.035   5.672  1.6659 -1.0724  0.4208
 4547TIP3    H235057   4.805   4.168   5.616 -0.6135  0.1241  1.3157
 4548TIP3   OH235058   5.453   4.983   4.986  0.6847 -0.4973  0.5107
 4548TIP3    H135059   5.464   4.890   5.006  0.7513 -0.6600 -0.2729
 4548TIP3    H235060   5.403   4.984   4.904  4.1374  0.0646 -1.7422
 4549TIP3   OH235061   0.033   0.237  11.574 -0.2898 -0.1297 -0.2476
 4549TIP3    H135062   0.097   0.248  11.504  1.8467 -1.0298  1.5036
 4549TIP3    H235063   0.006   0.145  11.568 -1.3019  0.2054 -0.8802
 4550TIP3   OH235064   0.414   6.405   0.923  0.2746  0.2768 -0.6733
 4550TIP3    H135065   0.496   6.369   0.887  0.5118  0.1914 -0.0565
 4550TIP3    H235066   0.354   6.408   0.848  0.7121 -0.0503 -1.0406
 4551TIP3   OH235067   3.860   5.704   5.500 -0.0129 -0.6089  0.2003
 4551TIP3    H135068   3.867   5.768   5.429 -0.1452  0.1784  0.8935
 4551TIP3    H235069   3.946   5.707   5.543 -0.3381 -0.2142  0.8164
 4552TIP3   OH235070   0.460   6.263   5.588 -0.0461 -0.8234  0.2688
 4552TIP3    H135071   0.503   6.304   5.663  1.0012  2.6681 -2.1068
 4552TIP3    H235072   0.395   6.327   5.559  0.9131 -1.2161 -2.9838
 4553TIP3   OH235073   4.149   0.472   0.455 -0.3381 -0.0538 -0.2930
 4553TIP3    H135074   4.173   0.453   0.364 -0.5127 -2.3127  0.1044
 4553TIP3    H235075   4.168   0.391   0.502 -2.0110  0.4757  1.3393
 4554TIP3   OH235076   0.178   3.348   1.752 -0.3439 -0.4382 -0.2054
 4554TIP3    H135077   0.238   3.418   1.775 -1.6380  0.2810  1.0295
 4554TIP3    H235078   0.181   3.344   1.656 -0.1366  1.1828 -0.2712
 4555TIP3   OH235079   1.596   1.425  11.792  0.1302 -0.0316  0.0198
 4555TIP3    H135080   1.593   1.435  11.887 -1.8601  2.5588 -0.2557
 4555TIP3    H235081   1.668   1.364  11.776  0.4734 -0.5148  3.1752
 4556TIP3   OH235082   3.341   5.425   5.130 -0.0807  0.2895  0.9284
 4556TIP3    H135083   3.318   5.333   5.143  0.1048  0.0138 -0.5909
 4556TIP3    H235084   3.273   5.474   5.175 -0.1122 -0.5946  1.8500
 4557TIP3   OH235085   1.243   0.469  11.333 -0.0277  0.6568  0.4287
 4557TIP3    H135086   1.271   0.500  11.247  1.4977  0.4947  0.8592
 4557TIP3    H235087   1.318   0.484  11.390 -1.0496  0.8165  1.7493
 4558TIP3   OH235088   2.599   5.414  15.025  0.1402  0.1499  1.0959
 4558TIP3    H135089   2.674   5.376  15.071  0.0378 -0.0009  1.1365
 4558TIP3    H235090   2.523   5.370  15.062  0.0360  0.2522  1.0024
 4559TIP3   OH235091   4.163   3.611  11.887 -0.5727 -0.8148 -0.7319
 4559TIP3    H135092   4.211   3.572  11.960 -2.4823 -0.4197  0.8024
 4559TIP3    H235093   4.225   3.613  11.815  1.2638 -1.5399  0.7869
 4560TIP3   OH235094   4.971   6.311   5.545  0.7122 -0.0012  0.0986
 4560TIP3    H135095   4.876   6.303   5.540  0.6090  0.8859  0.5464
 4560TIP3    H235096   4.986   6.391   5.595  1.6892  0.6492 -1.1839
 4561TIP3   OH235097   1.787   0.738   3.642 -0.6150 -0.5910  0.1731
 4561TIP3    H135098   1.796   0.710   3.733 -0.5323 -1.0064  0.0408
 4561TIP3    H235099   1.877   0.738   3.608 -0.6674 -0.6505  0.0336
 4562TIP3   OH235100   3.820   0.469   6.477 -0.1917 -0.0767  0.2921
 4562TIP3    H135101   3.890   0.444   6.536  0.7001 -1.4443 -1.3126
 4562TIP3    H235102   3.851   0.444   6.390 -2.2313  0.2487 -0.5643
 4563TIP3   OH235103   5.668   4.168  14.027 -0.2277 -0.0135 -0.2220
 4563TIP3    H135104   5.595   4.107  14.016 -1.6380  1.6191 -0.1232
 4563TIP3    H235105   5.731   4.121  14.082 -0.9545 -1.6481 -0.7594
 4564TIP3   OH235106   3.068   1.325  15.292 -0.6763  0.2271 -0.0842
 4564TIP3    H135107   3.067   1.386  15.218 -1.6902  1.8584  1.2473
 4564TIP3    H235108   2.976   1.298  15.301 -0.3174 -1.0830 -0.3184
 4565TIP3   OH235109   1.943   4.293   5.675 -0.0293  0.3436  0.1216
 4565TIP3    H135110   1.973   4.229   5.739 -0.5065 -1.0541 -1.0260
 4565TIP3    H235111   1.851   4.308   5.696  0.5423  2.0766  1.5332
 4566TIP3   OH235112   5.799   4.862  15.866 -0.5132  0.0478  0.0287
 4566TIP3    H135113   5.795   4.832  15.956 -0.6086 -0.6123 -0.1924
 4566TIP3    H235114   5.795   4.958  15.872  2.5537  0.1916  0.9147
 4567TIP3   OH235115   2.921   6.325   4.100 -0.7439 -0.0516  0.0778
 4567TIP3    H135116   2.914   6.421   4.095 -0.0650 -0.0844 -3.0831
 4567TIP3    H235117   3.005   6.310   4.144 -0.5216  0.8239 -0.0284
 4568TIP3   OH235118   4.228   5.614  13.890  0.0862 -0.0962  0.6444
 4568TIP3    H135119   4.279   5.664  13.827  0.5335 -1.4943 -0.1332
 4568TIP3    H235120   4.147   5.663  13.900  0.1273  0.2867 -0.8090
 4569TIP3   OH235121   0.630   4.582  11.979  0.4815 -0.2809  0.0432
 4569TIP3    H135122   0.668   4.495  11.990  1.1387  0.0679  0.5991
 4569TIP3    H235123   0.645   4.605  11.888  0.7071 -0.5641  0.0123
 4570TIP3   OH235124   0.159   2.316   2.210 -1.0458  0.5333 -0.2648
 4570TIP3    H135125   0.242   2.363   2.199 -0.4611 -0.5868 -0.7196
 4570TIP3    H235126   0.124   2.349   2.292 -0.5959  1.6987 -0.5334
 4571TIP3   OH235127   2.707   1.915   0.350  0.3963  0.1089 -0.3882
 4571TIP3    H135128   2.698   1.961   0.433 -1.8512  0.3043 -0.7173
 4571TIP3    H235129   2.725   1.984   0.286 -1.8814  0.4410 -0.7016
 4572TIP3   OH235130   4.924   1.054  14.615  0.0923  0.4877 -0.1933
 4572TIP3    H135131   5.008   1.035  14.574  0.2103 -0.7048  0.5559
 4572TIP3    H235132   4.877   0.970  14.614 -0.6957  0.9124  0.2636
 4573TIP3   OH235133   4.580   2.829   1.531  0.5270  0.0721  0.6019
 4573TIP3    H135134   4.592   2.761   1.597 -1.8473 -0.0034  1.0174
 4573TIP3    H235135   4.549   2.905   1.581  0.1743  0.4794 -0.2233
 4574TIP3   OH235136   1.665   0.882   3.267 -0.6470 -0.0960 -0.0437
 4574TIP3    H135137   1.646   0.947   3.335  1.2044  0.8686 -0.4100
 4574TIP3    H235138   1.725   0.927   3.207 -0.0474 -1.8510 -0.7997
 4575TIP3   OH235139   5.492   0.489   1.992 -0.1084  0.3332 -0.4777
 4575TIP3    H135140   5.468   0.482   1.899 -1.0513 -1.7450 -0.1192
 4575TIP3    H235141   5.587   0.496   1.992  0.0409 -1.3681 -1.5609
 4576TIP3   OH235142   6.381   6.272   1.956 -0.0869 -0.4132  0.2707
 4576TIP3    H135143   6.430   6.352   1.976 -1.9012  0.7243  0.2780
 4576TIP3    H235144   6.340   6.248   2.039  0.2060 -1.1994  0.1937
 4577TIP3   OH235145   0.772   3.456  13.131  0.0881  0.2217 -0.1817
 4577TIP3    H135146   0.829   3.456  13.053  2.3584 -2.3913  1.3812
 4577TIP3    H235147   0.701   3.396  13.108 -0.8788  1.7243 -1.2758
 4578TIP3   OH235148   1.005   3.537   4.635 -0.4586 -0.1736 -0.0875
 4578TIP3    H135149   0.990   3.458   4.686 -1.8749 -0.8050 -1.4223
 4578TIP3    H235150   0.917   3.567   4.612  0.1287  0.4925 -1.5115
 4579TIP3   OH235151   0.058   0.603  15.291 -0.2324 -0.0932 -0.3369
 4579TIP3    H135152   0.043   0.670  15.357  2.3335 -1.9206  2.2298
 4579TIP3    H235153  -0.013   0.540  15.305  0.9736 -1.0755  1.5454
 4580TIP3   OH235154   3.067   1.689   0.381  0.5812  0.2489 -0.0206
 4580TIP3    H135155   3.136   1.665   0.443 -1.6609 -1.0085  2.1060
 4580TIP3    H235156   3.088   1.641   0.301  1.1879 -1.5652  1.1994
 4581TIP3   OH235157   3.469   4.579   4.517 -0.1962 -0.5687  0.1361
 4581TIP3    H135158   3.404   4.529   4.568 -1.4902  0.2408 -0.7046
 4581TIP3    H235159   3.529   4.512   4.485  0.9644 -1.0668  3.1254
 4582TIP3   OH235160   6.684   4.507   3.036 -0.2141 -0.4852 -0.1111
 4582TIP3    H135161   6.720   4.587   2.998  0.6674 -0.8447 -0.0455
 4582TIP3    H235162   6.703   4.515   3.130 -1.6078 -0.0053  0.1511
 4583TIP3   OH235163   4.182   2.783   0.252 -0.1341 -0.7674 -0.4012
 4583TIP3    H135164   4.116   2.793   0.184  0.3113 -1.0471 -0.8729
 4583TIP3    H235165   4.260   2.751   0.206  0.2049 -0.8326  0.2138
 4584TIP3   OH235166   1.045   1.961  16.623  0.2557  0.2457 -0.1717
 4584TIP3    H135167   1.035   2.027  16.691  1.2316 -0.9216  1.1424
 4584TIP3    H235168   0.958   1.919  16.617 -0.7377  2.4360 -1.9170
 4585TIP3   OH235169   5.786   2.906   1.058 -0.4625 -0.6879 -0.0727
 4585TIP3    H135170   5.727   2.859   0.999  0.1466  0.1950 -1.4180
 4585TIP3    H235171   5.805   2.844   1.129 -1.0090 -1.8441 -0.9294
 4586TIP3   OH235172   5.616   3.465  12.335 -0.6603 -0.3262  0.3347
 4586TIP3    H135173   5.652   3.543  12.377 -1.2572  0.5729 -0.8217
 4586TIP3    H235174   5.522   3.479  12.333 -0.6078 -0.2000 -1.6354
 4587TIP3   OH235175   4.497   2.443   3.249 -0.3511  0.4007  0.4068
 4587TIP3    H135176   4.424   2.433   3.310 -0.9977  0.8269 -0.2735
 4587TIP3    H235177   4.512   2.538   3.245  1.4505  0.1937  1.9216
 4588TIP3   OH235178   0.114   5.497  14.495 -0.0212 -0.5141 -0.4199
 4588TIP3    H135179   0.148   5.523  14.580 -0.8360 -0.8711  0.0274
 4588TIP3    H235180   0.114   5.577  14.443  1.9549 -0.6103 -0.5991
 4589TIP3   OH235181   6.747   3.260  14.052  0.9133 -0.1661 -0.3423
 4589TIP3    H135182   6.817   3.240  13.991  0.0546  1.3606 -1.8580
 4589TIP3    H235183   6.719   3.175  14.086  1.9303 -0.9558 -1.4794
 4590TIP3   OH235184   4.667   4.097   6.104  0.1671 -0.2508  0.3802
 4590TIP3    H135185   4.584   4.081   6.150 -1.0210  2.4306 -0.6888
 4590TIP3    H235186   4.734   4.080   6.170 -1.2537 -1.5986  1.5339
 4591TIP3   OH235187   6.594   3.557   4.894  0.9295 -0.7895  0.8210
 4591TIP3    H135188   6.619   3.503   4.969  0.8329 -1.7089  0.1961
 4591TIP3    H235189   6.637   3.516   4.819  0.5297 -0.2341  0.2805
 4592TIP3   OH235190   1.333   2.082   0.255  0.0444  0.3875 -0.4237
 4592TIP3    H135191   1.378   2.115   0.178  1.0749 -2.2057 -0.9781
 4592TIP3    H235192   1.261   2.028   0.220  0.6471 -0.9803  0.3855
 4593TIP3   OH235193   2.542   4.790   0.173 -1.2302 -0.4835  0.0589
 4593TIP3    H135194   2.625   4.780   0.220 -2.4480 -1.8173  2.0365
 4593TIP3    H235195   2.537   4.883   0.153  0.7369 -0.3871 -0.0934
 4594TIP3   OH235196   6.699   2.956   1.290  0.0195 -0.0140 -0.1749
 4594TIP3    H135197   6.713   3.023   1.356 -1.7287 -0.5283  0.7560
 4594TIP3    H235198   6.666   2.880   1.338 -1.8833 -0.1953 -1.6671
 4595TIP3   OH235199   1.716   5.923  11.395  0.0190  0.3699 -0.0666
 4595TIP3    H135200   1.622   5.931  11.411  0.0582  0.8968 -0.1145
 4595TIP3    H235201   1.741   5.842  11.441 -0.5293  0.0171 -0.3808
 4596TIP3   OH235202   0.990   1.350  16.589 -0.5582  0.4158 -0.5016
 4596TIP3    H135203   1.048   1.364  16.664 -1.9016  2.6540  0.1851
 4596TIP3    H235204   1.049   1.335  16.515  0.7886 -2.2871  1.0340
 4597TIP3   OH235205   3.886   5.612   1.682 -0.1912 -0.3751  0.2338
 4597TIP3    H135206   3.798   5.601   1.647  0.2482 -1.4075 -0.5734
 4597TIP3    H235207   3.879   5.686   1.742 -1.1132  0.9757 -1.4903
 4598TIP3   OH235208   4.575   1.781   1.159 -0.4216 -0.2031 -0.1666
 4598TIP3    H135209   4.515   1.855   1.148  0.7037  0.7530  0.0099
 4598TIP3    H235210   4.637   1.790   1.087  0.8541  0.1350  0.9559
 4599TIP3   OH235211   1.411   0.194  17.061 -0.2853 -0.1950 -0.2410
 4599TIP3    H135212   1.499   0.214  17.029 -0.2791 -1.0347 -0.7617
 4599TIP3    H235213   1.353   0.222  16.990 -0.3872 -0.3617 -0.2243
 4600TIP3   OH235214   4.655   3.422  11.246 -0.1474 -0.2330  0.1452
 4600TIP3    H135215   4.705   3.353  11.202 -2.7256 -0.5798 -2.3991
 4600TIP3    H235216   4.581   3.438  11.188 -0.1141  4.0711  1.1834
 4601TIP3   OH235217   6.219   6.232   5.537  0.0040  0.2818 -0.2900
 4601TIP3    H135218   6.180   6.292   5.473 -0.0778 -0.4705 -0.9592
 4601TIP3    H235219   6.214   6.278   5.620  0.1890  1.3153 -0.8457
 4602TIP3   OH235220   4.093   4.237  14.472 -0.1142 -1.1546 -0.0060
 4602TIP3    H135221   4.060   4.163  14.523 -0.6562 -0.4308  0.7064
 4602TIP3    H235222   4.177   4.258  14.512 -1.3129  0.5156  1.7477
 4603TIP3   OH235223   6.173   0.196   3.703 -1.0262  0.5428  0.2434
 4603TIP3    H135224   6.150   0.120   3.756 -0.8260 -0.2372 -0.7671
 4603TIP3    H235225   6.236   0.245   3.756 -0.3537 -0.5466  0.4680
 4604TIP3   OH235226   5.852   0.031  11.334 -0.2105 -0.2299  0.0219
 4604TIP3    H135227   5.845   0.082  11.253  3.5620 -0.0831 -0.2888
 4604TIP3    H235228   5.914   0.081  11.387 -2.3906 -0.4915  2.9370
 4605TIP3   OH235229   6.584   6.379  13.775 -0.2219 -0.1506  0.3434
 4605TIP3    H135230   6.557   6.411  13.689 -0.2421 -0.0691  0.3785
 4605TIP3    H235231   6.551   6.446  13.836  1.3174  0.6951  0.2801
 4606TIP3   OH235232   4.395   4.636   3.093 -0.1795 -0.0281  0.2602
 4606TIP3    H135233   4.364   4.616   3.005  1.7171 -0.4446 -0.3405
 4606TIP3    H235234   4.387   4.553   3.140  0.2314 -0.1921  0.0431
 4607TIP3   OH235235   2.744   5.462  12.659 -0.1019 -0.0646  0.2532
 4607TIP3    H135236   2.685   5.538  12.654 -1.4051 -1.0041  1.1195
 4607TIP3    H235237   2.685   5.387  12.664  1.1928 -1.1723 -0.9578
 4608TIP3   OH235238   1.835   4.595   0.378  0.1855  0.1584  0.1840
 4608TIP3    H135239   1.900   4.525   0.368 -0.3264 -0.3426  0.3468
 4608TIP3    H235240   1.882   4.674   0.355  0.8648 -0.2024  0.3174
 4609TIP3   OH235241   3.817   2.593  11.308 -0.6602 -0.0245  0.1950
 4609TIP3    H135242   3.849   2.626  11.392 -0.0436  0.6651 -0.3004
 4609TIP3    H235243   3.772   2.511  11.330 -0.2686  0.0074  1.1595
 4610TIP3   OH235244   4.988   5.697  16.286 -0.2901 -0.2787  0.2366
 4610TIP3    H135245   4.926   5.696  16.214 -0.7984 -1.2483  0.6826
 4610TIP3    H235246   5.058   5.756  16.257 -2.0627  1.8793  0.2985
 4611TIP3   OH235247   5.193   5.610  14.872 -0.1650 -0.1205  0.0455
 4611TIP3    H135248   5.252   5.559  14.928 -1.1407 -0.9905  0.2773
 4611TIP3    H235249   5.105   5.587  14.902 -0.7680 -1.6756 -2.7678
 4612TIP3   OH235250   5.694   3.347   6.050  0.2572  0.1898 -0.3543
 4612TIP3    H135251   5.697   3.443   6.049 -4.0486  0.5091  2.7175
 4612TIP3    H235252   5.756   3.322   6.120 -0.1672  0.8724  0.2774
 4613TIP3   OH235253   2.114   4.861  12.179 -0.1081 -0.3751  0.0926
 4613TIP3    H135254   2.190   4.878  12.124 -1.9570 -0.4952 -2.6140
 4613TIP3    H235255   2.149   4.857  12.268  3.1995 -1.5494 -1.1741
 4614TIP3   OH235256   4.199   1.215   4.983 -0.0720 -0.3838 -0.3922
 4614TIP3    H135257   4.134   1.152   5.014 -0.3906 -0.2893 -0.8506
 4614TIP3    H235258   4.208   1.277   5.055 -1.1201  0.0738 -0.6307
 4615TIP3   OH235259   6.505   2.507   1.123 -0.3269 -0.6914  0.1579
 4615TIP3    H135260   6.445   2.464   1.184 -1.3407 -0.1640 -0.4518
 4615TIP3    H235261   6.543   2.435   1.073  0.5139 -1.1323  1.3879
 4616TIP3   OH235262   5.163   1.080  15.524  0.5449 -0.2429 -0.1287
 4616TIP3    H135263   5.206   1.044  15.447  1.2132  0.2466  0.0161
 4616TIP3    H235264   5.132   1.166  15.497 -0.4971 -0.6590 -0.2834
 4617TIP3   OH235265   1.203   1.644   3.446 -0.3359 -0.3850 -0.1354
 4617TIP3    H135266   1.186   1.642   3.540 -0.2464 -1.5292 -0.1312
 4617TIP3    H235267   1.250   1.726   3.431 -0.6957 -0.0190  0.7561
 4618TIP3   OH235268   5.714   3.460   5.648  0.0695 -0.3231  0.8410
 4618TIP3    H135269   5.627   3.430   5.674 -0.7658  1.0288 -0.3577
 4618TIP3    H235270   5.741   3.519   5.719 -0.3652 -0.0247  0.7534
 4619TIP3   OH235271   3.448   3.495   3.949  0.2422 -0.4811  0.7362
 4619TIP3    H135272   3.395   3.429   3.995 -0.1683 -0.4948  0.2528
 4619TIP3    H235273   3.433   3.576   3.999 -1.5690 -0.1149 -0.3632
 4620TIP3   OH235274   0.444   3.365   4.770  0.3279 -0.2025  0.5734
 4620TIP3    H135275   0.427   3.454   4.738 -0.0927 -0.8148 -0.9494
 4620TIP3    H235276   0.423   3.368   4.863  0.8255  1.4285  0.6528
 4621TIP3   OH235277   2.789   3.836   3.080  0.3307 -0.0570 -0.1231
 4621TIP3    H135278   2.807   3.905   3.144  0.1237  0.7092 -0.8819
 4621TIP3    H235279   2.694   3.824   3.084  0.3834 -0.3816  0.1009
 4622TIP3   OH235280   0.445   1.966  16.226 -0.2131 -0.1468  0.0048
 4622TIP3    H135281   0.386   1.894  16.202  0.0688 -0.3761 -0.0044
 4622TIP3    H235282   0.409   2.043  16.182 -1.1174 -0.0707  0.8538
 4623TIP3   OH235283   0.805   1.733  14.031  0.4213 -0.0931 -0.0165
 4623TIP3    H135284   0.852   1.668  13.979  0.0138 -0.5699  0.2157
 4623TIP3    H235285   0.850   1.816  14.012 -0.1726 -0.1370 -1.6703
 4624TIP3   OH235286   3.011   3.096  14.011 -0.0434 -0.3976 -0.8163
 4624TIP3    H135287   3.021   3.003  13.991  2.3790  0.0111 -1.6868
 4624TIP3    H235288   3.032   3.141  13.929  0.8665  0.9845  0.1509
 4625TIP3   OH235289   5.691   3.917   0.140  0.2422  0.1286 -0.0111
 4625TIP3    H135290   5.701   3.992   0.199 -1.9218  2.0953 -2.0258
 4625TIP3    H235291   5.715   3.951   0.054 -1.1131 -1.3907 -1.0239
 4626TIP3   OH235292   3.479   5.312   0.475 -0.3063  0.1164  0.1267
 4626TIP3    H135293   3.566   5.350   0.463 -0.0362 -1.0882 -2.0808
 4626TIP3    H235294   3.450   5.292   0.386 -1.6036 -2.1708  1.0335
 4627TIP3   OH235295   6.061   3.634   0.999  0.1301  0.0594 -0.0114
 4627TIP3    H135296   5.969   3.612   1.012  0.2278 -0.9484 -0.9428
 4627TIP3    H235297   6.060   3.702   0.932  0.0997 -0.4836 -0.5674
 4628TIP3   OH235298   4.151   6.143   5.309  0.3901  0.4505  0.7336
 4628TIP3    H135299   4.229   6.162   5.360  0.1945 -0.0796  1.2346
 4628TIP3    H235300   4.099   6.086   5.365 -0.2342  0.5852  0.2959
 4629TIP3   OH235301   2.185   2.314   2.785 -0.8482 -0.0246  0.0467
 4629TIP3    H135302   2.213   2.314   2.876 -0.6129  1.7769 -0.0173
 4629TIP3    H235303   2.113   2.250   2.783 -1.9255  1.0896  1.8266
 4630TIP3   OH235304   6.769   0.622   3.514 -0.1453  0.4666 -0.1604
 4630TIP3    H135305   6.781   0.551   3.450  0.7064 -0.3268  0.8672
 4630TIP3    H235306   6.718   0.582   3.584  0.5542  0.8020  0.5439
 4631TIP3   OH235307   5.475   2.585   5.573 -0.0858 -0.2601  0.4594
 4631TIP3    H135308   5.390   2.597   5.532 -0.0064 -1.4628 -0.0825
 4631TIP3    H235309   5.483   2.658   5.635 -0.5951  1.0466 -0.9933
 4632TIP3   OH235310   2.465   6.271  11.701  0.2627  0.3634 -0.7607
 4632TIP3    H135311   2.434   6.362  11.708  1.2800  0.6996 -0.5045
 4632TIP3    H235312   2.546   6.278  11.649 -0.4942 -0.5876 -2.0941
 4633TIP3   OH235313   3.026   2.048   5.815  1.1545 -0.3763 -0.2016
 4633TIP3    H135314   3.048   2.082   5.729  1.0322 -2.7880 -1.2376
 4633TIP3    H235315   2.943   2.090   5.837  0.4710 -0.8056 -1.9081
 4634TIP3   OH235316   5.284   3.951   2.983  0.3293  0.0314 -0.1358
 4634TIP3    H135317   5.376   3.951   3.010  0.0429 -0.4524  0.8710
 4634TIP3    H235318   5.241   4.007   3.047 -0.1981 -0.3625 -0.1467
 4635TIP3   OH235319   6.080   2.459  14.905  0.0256  0.6851 -0.3477
 4635TIP3    H135320   6.065   2.465  14.810  0.9570 -0.0569 -0.5471
 4635TIP3    H235321   6.083   2.550  14.934 -1.5639  0.9003 -0.8211
 4636TIP3   OH235322   4.105   4.698  11.967 -0.3339 -1.0723 -0.2716
 4636TIP3    H135323   4.076   4.764  12.030 -1.2260 -1.9141  0.1966
 4636TIP3    H235324   4.199   4.690  11.983 -0.2164  0.0803 -0.3266
 4637TIP3   OH235325   6.287   2.749  17.092 -0.5569  0.5042 -0.0574
 4637TIP3    H135326   6.352   2.707  17.148 -1.1883  0.8404  0.9348
 4637TIP3    H235327   6.259   2.679  17.032  1.3482  0.5826 -1.0872
 4638TIP3   OH235328   2.119   6.728  11.747 -0.0222  0.5380 -0.0433
 4638TIP3    H135329   2.076   6.798  11.796  0.0526 -0.0743  0.8993
 4638TIP3    H235330   2.112   6.651  11.804  1.4055  0.1843 -0.3423
 4639TIP3   OH235331   4.669   5.997   4.047 -0.0250 -0.0544  0.2663
 4639TIP3    H135332   4.744   5.976   3.991 -0.9734 -0.3661 -0.8844
 4639TIP3    H235333   4.674   5.934   4.118  0.3095 -0.6352 -0.2709
 4640TIP3   OH235334   5.569   0.449  11.071 -0.7586 -0.3090 -0.3038
 4640TIP3    H135335   5.596   0.403  10.991 -1.5539 -0.3623 -0.5464
 4640TIP3    H235336   5.491   0.402  11.101 -1.3076  0.5844 -0.2930
 4641TIP3   OH235337   4.871   3.701   2.722 -0.3761 -0.0119  0.4205
 4641TIP3    H135338   4.862   3.639   2.793  0.0216 -0.6308 -0.0627
 4641TIP3    H235339   4.815   3.775   2.746 -1.0190 -0.6555  0.8791
 4642TIP3   OH235340   5.789   3.666   3.049 -0.0038  0.2699  0.3704
 4642TIP3    H135341   5.726   3.652   2.979 -0.2067 -0.5498  0.7017
 4642TIP3    H235342   5.792   3.761   3.062  1.9495  0.6417 -2.4583
 4643TIP3   OH235343   1.524   1.528   5.003  0.3889  0.1073  0.0739
 4643TIP3    H135344   1.501   1.525   4.910  0.2740 -1.0116  0.1351
 4643TIP3    H235345   1.472   1.458   5.043  1.7200 -0.5243  0.7065
 4644TIP3   OH235346   5.816   1.067   1.313  0.1523 -0.1516  0.5106
 4644TIP3    H135347   5.839   1.049   1.405  1.3036  2.6904  0.8425
 4644TIP3    H235348   5.776   1.154   1.316  1.4241  0.5364 -1.8664
 4645TIP3   OH235349   5.258   6.655  11.300  0.6729 -0.3947  0.2158
 4645TIP3    H135350   5.299   6.726  11.350  0.7360 -0.0404 -0.3301
 4645TIP3    H235351   5.165   6.678  11.300  0.7898  0.1355 -0.6479
 4646TIP3   OH235352   5.989   5.653   3.434 -1.1618  0.2201 -0.2554
 4646TIP3    H135353   5.917   5.599   3.401 -0.6760  0.0362 -0.9960
 4646TIP3    H235354   5.945   5.719   3.488 -1.9064  0.1990 -0.8223
 4647TIP3   OH235355   6.184   3.650   3.345  0.4887  0.0213  0.4356
 4647TIP3    H135356   6.106   3.690   3.383  0.6601  1.2235 -0.4428
 4647TIP3    H235357   6.157   3.561   3.322  0.3639 -0.7104  3.2298
 4648TIP3   OH235358   2.436   4.843  11.738 -0.0919  0.0851 -0.5065
 4648TIP3    H135359   2.444   4.873  11.828 -1.5152 -1.6353  0.2315
 4648TIP3    H235360   2.489   4.905  11.687 -1.3107  2.5821  1.1654
 4649TIP3   OH235361   0.446   1.317   5.251 -0.3662 -0.0178  0.4426
 4649TIP3    H135362   0.541   1.325   5.243 -0.4562  0.7978  0.0867
 4649TIP3    H235363   0.418   1.398   5.293 -1.2127  1.1320 -2.2396
 4650TIP3   OH235364   2.835   2.790   4.427  0.1942  0.0294 -0.3997
 4650TIP3    H135365   2.825   2.696   4.438 -0.4823  0.3476  2.1177
 4650TIP3    H235366   2.745   2.824   4.430  0.4906  0.8235 -0.4039
 4651TIP3   OH235367   1.440   5.834  13.518  0.0133  0.8847  0.1879
 4651TIP3    H135368   1.354   5.872  13.500 -0.0218  0.2293 -1.1103
 4651TIP3    H235369   1.446   5.759  13.458  1.0842  0.3341  0.9632
 4652TIP3   OH235370   6.719   0.250   5.257  0.0123  0.3185 -0.6831
 4652TIP3    H135371   6.763   0.269   5.174 -0.9895 -0.3045 -1.3676
 4652TIP3    H235372   6.744   0.322   5.315  1.6665  0.1407 -1.1632
 4653TIP3   OH235373   2.176   0.994  14.837 -0.0952  0.4327  0.6107
 4653TIP3    H135374   2.138   1.081  14.842  0.1780  0.5881  0.0009
 4653TIP3    H235375   2.246   0.994  14.902 -0.4279  0.5004  0.9687
 4654TIP3   OH235376   5.327   2.658  12.725  0.6203  0.4097  0.0132
 4654TIP3    H135377   5.255   2.695  12.777  1.5636  1.3935  0.6298
 4654TIP3    H235378   5.334   2.716  12.649 -0.3505 -0.6752 -0.9372
 4655TIP3   OH235379   0.982   1.649  14.900  0.1564 -0.1364  0.2551
 4655TIP3    H135380   1.009   1.684  14.815 -2.1468  0.6696 -0.1749
 4655TIP3    H235381   0.955   1.559  14.880 -0.3706  0.0480  0.1322
 4656TIP3   OH235382   1.021   3.947  16.026  0.4344 -0.4030 -0.0659
 4656TIP3    H135383   0.996   3.855  16.017 -1.3390 -0.0727  1.3519
 4656TIP3    H235384   1.076   3.949  16.104 -0.7595 -0.0260  0.7707
 4657TIP3   OH235385   0.266   0.270  11.428 -0.5784  0.5339 -0.0373
 4657TIP3    H135386   0.299   0.217  11.355 -1.2667  0.9815 -0.6841
 4657TIP3    H235387   0.342   0.318  11.459 -0.4693  1.0965 -1.1264
 4658TIP3   OH235388   0.509   3.234  16.244 -0.4788  0.0594  0.5905
 4658TIP3    H135389   0.575   3.170  16.217  0.7832  1.5722 -0.0723
 4658TIP3    H235390   0.442   3.183  16.288  0.7423 -1.6409  0.5438
 4659TIP3   OH235391   5.840   0.471   1.738 -0.8504 -0.0855  0.6865
 4659TIP3    H135392   5.819   0.421   1.659  0.8155  0.0812  0.1143
 4659TIP3    H235393   5.756   0.486   1.780 -1.6746 -0.8745 -0.6436
 4660TIP3   OH235394   2.233   2.650  13.658  0.7337  0.2606 -0.1353
 4660TIP3    H135395   2.169   2.583  13.634 -0.4244  1.5406 -0.6820
 4660TIP3    H235396   2.316   2.619  13.622  0.0815 -0.5613 -0.9365
 4661TIP3   OH235397   4.683   1.616  15.386  0.1516 -0.0458 -0.2133
 4661TIP3    H135398   4.627   1.539  15.387 -1.7959  1.3182 -1.1677
 4661TIP3    H235399   4.666   1.660  15.470  0.0633  0.1789 -0.3470
 4662TIP3   OH235400   0.160   3.059   2.855 -0.4026 -0.3365  0.0169
 4662TIP3    H135401   0.091   3.099   2.801  0.4168  1.2027  0.0809
 4662TIP3    H235402   0.231   3.123   2.854  0.9899 -1.8469  0.0584
 4663TIP3   OH235403   4.047   5.529   4.015 -0.5058  0.0022 -0.6033
 4663TIP3    H135404   4.104   5.476   3.959 -1.0945 -0.8549 -0.4042
 4663TIP3    H235405   4.042   5.480   4.097  0.4210  1.3029  0.2402
 4664TIP3   OH235406   4.845   4.868   2.560 -0.5123  0.2784 -0.4085
 4664TIP3    H135407   4.807   4.955   2.557 -0.6360  0.2317 -0.1853
 4664TIP3    H235408   4.823   4.834   2.647  0.7782  0.5926  0.0604
 4665TIP3   OH235409   2.575   3.903   1.427 -0.4110  0.7593 -0.5802
 4665TIP3    H135410   2.609   3.951   1.352 -0.0630  2.5711  0.7034
 4665TIP3    H235411   2.595   3.958   1.502  0.2807 -1.5530  0.9928
 4666TIP3   OH235412   4.679   4.339  15.575  0.0192 -0.1902  0.1353
 4666TIP3    H135413   4.720   4.381  15.499 -1.6119  1.3747  0.0797
 4666TIP3    H235414   4.726   4.375  15.650  0.6597 -0.6268 -0.0468
 4667TIP3   OH235415   2.815   5.655   2.174  0.0358  0.4503  0.0363
 4667TIP3    H135416   2.766   5.674   2.094  0.1288  0.0022 -0.1256
 4667TIP3    H235417   2.873   5.731   2.185  0.7448  0.0464 -0.8728
 4668TIP3   OH235418   1.851   6.169   1.402  0.2863  0.3562 -0.1387
 4668TIP3    H135419   1.869   6.199   1.312  2.2941  1.7804  0.7159
 4668TIP3    H235420   1.756   6.160   1.404  0.1120  1.2964 -2.1187
 4669TIP3   OH235421   6.392   3.025  12.358  0.9143  0.2020  0.1621
 4669TIP3    H135422   6.457   3.093  12.377 -0.6432  0.5160  4.9341
 4669TIP3    H235423   6.433   2.944  12.387  0.0228  0.1262  1.2432
 4670TIP3   OH235424   5.187   1.139  11.370 -0.1007  0.5768  0.2235
 4670TIP3    H135425   5.224   1.141  11.282 -0.7961 -0.5708 -0.1009
 4670TIP3    H235426   5.117   1.204  11.368 -2.0319 -1.5020 -0.9468
 4671TIP3   OH235427   1.306   1.538  16.072 -0.0032 -0.9935  0.5966
 4671TIP3    H135428   1.391   1.538  16.116  0.8553 -2.2974 -1.0193
 4671TIP3    H235429   1.263   1.617  16.104  0.7400 -1.6609  3.4681
 4672TIP3   OH235430   6.135   3.011   0.854  0.5230  0.3221 -0.9361
 4672TIP3    H135431   6.219   3.051   0.829  0.9455  0.6425  0.9782
 4672TIP3    H235432   6.109   2.962   0.776  2.7814 -0.2755 -1.3633
 4673TIP3   OH235433   6.225   0.266   2.511  0.2016  0.0852 -0.0587
 4673TIP3    H135434   6.142   0.294   2.471  0.1001 -1.7467 -1.1854
 4673TIP3    H235435   6.248   0.338   2.570 -1.8921  0.8891 -0.1587
 4674TIP3   OH235436   6.047   0.227   4.279 -0.3120 -0.0071 -0.1441
 4674TIP3    H135437   6.091   0.164   4.222  1.0200  1.8035 -1.1791
 4674TIP3    H235438   5.999   0.173   4.342 -0.2947 -2.0432 -1.8203
 4675TIP3   OH235439   4.965   0.557   0.398  0.3649  0.2964 -0.0253
 4675TIP3    H135440   5.042   0.560   0.341 -1.4039 -1.8448 -2.7121
 4675TIP3    H235441   4.991   0.501   0.471  0.6174 -2.6718 -2.2704
 4676TIP3   OH235442   4.377   4.508   0.582 -0.1766  0.1853  0.4348
 4676TIP3    H135443   4.472   4.507   0.588 -0.1136  1.0938 -0.3620
 4676TIP3    H235444   4.347   4.478   0.668  0.8285 -1.5223  0.2222
 4677TIP3   OH235445   2.903   5.358  14.546  0.0956  0.3733 -0.3470
 4677TIP3    H135446   2.973   5.326  14.603  0.0511  0.4403 -0.2522
 4677TIP3    H235447   2.935   5.441  14.513 -0.8682  1.5221  1.4943
 4678TIP3   OH235448   5.106   3.539  12.927  0.1098 -0.9366  0.0312
 4678TIP3    H135449   5.098   3.618  12.874 -0.6199 -1.3812 -0.5113
 4678TIP3    H235450   5.041   3.479  12.893 -0.1235 -1.3635  1.1903
 4679TIP3   OH235451   5.456   3.174  15.753 -0.2335 -0.4371  0.4820
 4679TIP3    H135452   5.552   3.179  15.752 -0.2295 -0.1069  2.1493
 4679TIP3    H235453   5.427   3.261  15.782 -1.0139 -0.8005  0.8079
 4680TIP3   OH235454   0.953   6.331  15.001  0.6912  0.5197  0.1235
 4680TIP3    H135455   0.873   6.280  14.987  1.5941 -1.1137  0.8266
 4680TIP3    H235456   0.921   6.419  15.022 -0.9598 -0.3316  1.3267
 4681TIP3   OH235457   3.840   4.346  14.226 -0.4032 -0.7260  0.4038
 4681TIP3    H135458   3.819   4.425  14.176  1.1331 -1.8231 -2.0660
 4681TIP3    H235459   3.879   4.379  14.307  0.6127  1.0644 -0.7823
 4682TIP3   OH235460   0.369   4.253  14.893 -0.3510 -0.7657 -0.2391
 4682TIP3    H135461   0.337   4.163  14.894  0.5250 -1.0873 -0.2578
 4682TIP3    H235462   0.446   4.249  14.836  0.1949 -0.1788  0.4591
 4683TIP3   OH235463   5.714   0.872   4.619 -0.1712  0.6199  0.1244
 4683TIP3    H135464   5.800   0.888   4.582  0.7210 -0.0670  1.8749
 4683TIP3    H235465   5.684   0.791   4.575  1.5290 -1.0475  1.9813
 4684TIP3   OH235466   5.919   3.458   1.628  0.4702  0.0760  0.1110
 4684TIP3    H135467   5.891   3.367   1.612 -0.6828  0.1379  1.6176
 4684TIP3    H235468   5.933   3.494   1.541 -1.1732 -0.9200 -0.6016
 4685TIP3   OH235469   3.531   5.240   1.222  0.0241 -0.1212  0.0814
 4685TIP3    H135470   3.574   5.209   1.302 -0.6129 -0.4781  0.3003
 4685TIP3    H235471   3.504   5.160   1.177 -1.2561  0.0941  0.4328
 4686TIP3   OH235472   6.354   2.043   1.835  0.3617  0.6915 -0.2153
 4686TIP3    H135473   6.444   2.075   1.839  0.8189 -0.5304 -0.3235
 4686TIP3    H235474   6.360   1.952   1.867 -0.4790 -0.1045 -2.2673
 4687TIP3   OH235475   6.359   5.896  17.058 -0.0455 -0.2979 -0.2500
 4687TIP3    H135476   6.339   5.919  17.149 -0.1419 -0.2884 -0.2748
 4687TIP3    H235477   6.352   5.979  17.011  0.0509 -0.2946 -0.2601
 4688TIP3   OH235478   0.178   1.496   1.720  0.1002 -0.0924 -0.1252
 4688TIP3    H135479   0.157   1.543   1.801 -0.9946  0.2074 -0.5755
 4688TIP3    H235480   0.236   1.425   1.749 -1.4408 -0.8690  1.1586
 4689TIP3   OH235481   3.836   2.916   1.694 -0.3550 -0.4044  0.0494
 4689TIP3    H135482   3.748   2.887   1.671 -0.5790 -0.6187  1.1389
 4689TIP3    H235483   3.883   2.918   1.611 -1.1943 -0.9504 -0.4479
 4690TIP3   OH235484   3.952   2.914   5.104 -0.2031  0.5062 -0.3274
 4690TIP3    H135485   3.889   2.955   5.164  0.4202  1.0947 -0.0752
 4690TIP3    H235486   3.916   2.827   5.088  0.8303 -0.5899  2.8213
 4691TIP3   OH235487   5.100   5.686  13.867 -0.3366 -0.2100  0.6054
 4691TIP3    H135488   5.149   5.617  13.911 -0.6187 -2.3795 -2.3747
 4691TIP3    H235489   5.009   5.673  13.895 -0.5884 -1.8704 -0.9012
 4692TIP3   OH235490   0.693   5.846   1.617 -0.0327  0.3745  0.1537
 4692TIP3    H135491   0.709   5.759   1.653  0.7688  0.0800 -0.8878
 4692TIP3    H235492   0.743   5.848   1.536  0.0653  1.8677  0.2375
 4693TIP3   OH235493   4.481   2.392  14.837  0.6495  0.0986 -0.0095
 4693TIP3    H135494   4.484   2.486  14.856  1.8535  0.0279  0.1934
 4693TIP3    H235495   4.429   2.355  14.908 -0.0302  0.6354 -0.2181
 4694TIP3   OH235496   5.740   3.636  16.041 -0.3206 -0.3412 -0.0618
 4694TIP3    H135497   5.722   3.542  16.044  0.6372 -0.5225  0.0543
 4694TIP3    H235498   5.715   3.662  15.952  0.1639 -0.8592 -0.3515
 4695TIP3   OH235499   3.454   5.238  16.907  0.2059  0.2841  0.0287
 4695TIP3    H135500   3.476   5.219  16.816 -0.4189  1.7737 -0.4553
 4695TIP3    H235501   3.380   5.299  16.901  2.2440  3.0094  1.4533
 4696TIP3   OH235502   2.997   1.942   4.240  0.6848 -0.2270  0.0623
 4696TIP3    H135503   2.986   1.958   4.146 -0.9239 -1.7737 -0.0400
 4696TIP3    H235504   2.942   2.008   4.282  2.0788  1.0299 -0.0216
 4697TIP3   OH235505   4.202   2.641  14.671  0.3234  0.0129  0.0376
 4697TIP3    H135506   4.141   2.571  14.696  0.3594  0.7027  2.2090
 4697TIP3    H235507   4.182   2.713  14.732  5.1777 -0.7300  2.7209
 4698TIP3   OH235508   1.897   5.722  15.189 -0.3966 -0.1246  0.3204
 4698TIP3    H135509   1.974   5.715  15.133 -0.1262 -0.8961  0.7866
 4698TIP3    H235510   1.883   5.633  15.222 -0.3347  0.3977  1.7690
 4699TIP3   OH235511   1.631   2.571  13.355  0.2311  0.5956 -0.4417
 4699TIP3    H135512   1.705   2.558  13.415 -1.9026 -1.0823  1.9163
 4699TIP3    H235513   1.575   2.635  13.400 -1.3791 -0.6616 -0.6084
 4700TIP3   OH235514   2.862   3.627  16.570  0.7552 -0.0475 -0.0471
 4700TIP3    H135515   2.783   3.599  16.524  2.1659 -2.5491 -1.0381
 4700TIP3    H235516   2.894   3.703  16.520 -0.9379  0.9347  0.3198
 4701TIP3   OH235517   0.548   5.137   3.913 -0.2387 -0.3541  0.2999
 4701TIP3    H135518   0.509   5.124   3.827 -0.6182  0.9561  0.2564
 4701TIP3    H235519   0.623   5.195   3.896  0.0944 -0.6563  0.7503
 4702TIP3   OH235520   5.444   6.443  12.573  0.0577  0.5520  0.1984
 4702TIP3    H135521   5.488   6.472  12.653 -0.5974 -0.3249  0.9054
 4702TIP3    H235522   5.351   6.444  12.596 -0.1138  0.0349 -0.4657
 4703TIP3   OH235523   0.675   5.545  11.869 -0.3615 -0.2511  0.1174
 4703TIP3    H135524   0.752   5.599  11.887 -0.9587  0.3573  0.9315
 4703TIP3    H235525   0.610   5.606  11.835 -0.3608 -0.8324 -0.9623
 4704TIP3   OH235526   4.492   5.356  16.177 -0.1032  0.1663  0.2078
 4704TIP3    H135527   4.581   5.344  16.211  0.2920 -1.4763 -1.3133
 4704TIP3    H235528   4.504   5.367  16.083 -1.3791  1.9809  0.2178
 4705TIP3   OH235529   1.074   5.867   0.571 -0.4794  0.4961  0.3799
 4705TIP3    H135530   1.056   5.956   0.539  1.0958  0.6042 -0.2449
 4705TIP3    H235531   1.154   5.876   0.622 -0.9553 -0.3681  1.2944
 4706TIP3   OH235532   0.932   1.932   5.219  0.3551 -0.5106 -0.6840
 4706TIP3    H135533   1.022   1.900   5.230  0.0361 -1.8867 -1.8904
 4706TIP3    H235534   0.923   1.948   5.125 -0.8307 -0.9356 -0.6590
 4707TIP3   OH235535   5.141   2.304   4.738 -0.3403 -0.4592  0.4727
 4707TIP3    H135536   5.092   2.222   4.741 -1.5721  0.2645  0.7327
 4707TIP3    H235537   5.073   2.372   4.739  0.5922  0.5454 -1.7002
 4708TIP3   OH235538   0.438   3.543   4.082  0.3731 -0.2021  0.0745
 4708TIP3    H135539   0.414   3.486   4.009 -1.0367  1.3645 -0.7381
 4708TIP3    H235540   0.502   3.493   4.132 -1.6337 -2.9400  0.0270
 4709TIP3   OH235541   4.023   1.032  11.862 -0.4008 -0.4405 -0.4739
 4709TIP3    H135542   4.045   0.940  11.848  0.0444 -0.2373 -1.1438
 4709TIP3    H235543   3.984   1.034  11.949 -0.9364 -1.3513 -0.6778
 4710TIP3   OH235544   5.079   5.453  11.078  0.2378  0.6326  0.4689
 4710TIP3    H135545   5.158   5.489  11.038  0.0248 -0.6480 -1.1475
 4710TIP3    H235546   5.094   5.358  11.081 -1.0751  0.4113  0.4841
 4711TIP3   OH235547   6.001   0.886  16.158  0.7071 -0.7447 -0.1502
 4711TIP3    H135548   6.057   0.932  16.096  1.3984  0.0951  1.0610
 4711TIP3    H235549   5.952   0.955  16.202 -1.1207 -1.4554 -1.0262
 4712TIP3   OH235550   6.098   4.406   1.505  0.1219 -0.5452 -0.1791
 4712TIP3    H135551   6.024   4.440   1.455  0.6777  1.6256  0.4073
 4712TIP3    H235552   6.064   4.327   1.547 -1.4822 -0.2930 -0.9493
 4713TIP3   OH235553   4.366   6.501  13.609  0.4457  0.7784 -0.0854
 4713TIP3    H135554   4.290   6.488  13.666  1.2412  0.7791  1.0008
 4713TIP3    H235555   4.336   6.476  13.522 -0.5946  0.1211  0.4532
 4714TIP3   OH235556   1.234   6.451   0.076 -0.3123 -0.1712 -0.2235
 4714TIP3    H135557   1.279   6.381   0.123 -0.1667  0.0564 -0.0201
 4714TIP3    H235558   1.143   6.447   0.107  0.2878  1.5425  1.9573
 4715TIP3   OH235559   2.656   0.992  13.489 -0.0843  0.2114 -0.3632
 4715TIP3    H135560   2.713   1.032  13.555  0.4325  0.1110 -0.7415
 4715TIP3    H235561   2.714   0.977  13.414 -0.5591 -0.1110 -0.6672
 4716TIP3   OH235562   5.519   1.484   5.580  0.1463  0.0063 -0.2888
 4716TIP3    H135563   5.564   1.565   5.556  0.1429  0.3228  0.7759
 4716TIP3    H235564   5.564   1.454   5.659  0.6327 -1.4251 -1.1056
 4717TIP3   OH235565   4.208   0.998   4.556  0.0668  0.9153 -0.7512
 4717TIP3    H135566   4.142   0.932   4.538  0.5986  0.1838 -0.0381
 4717TIP3    H235567   4.162   1.082   4.548 -1.5313  0.3592  1.9998
 4718TIP3   OH235568   0.913   1.273  14.539  0.3717 -0.3206 -0.1432
 4718TIP3    H135569   0.821   1.290  14.557  0.0919 -0.4115 -1.3781
 4718TIP3    H235570   0.954   1.359  14.541  0.2794 -0.2888  0.4914
 4719TIP3   OH235571   1.459   1.973   1.861  0.0303  0.1685  0.7649
 4719TIP3    H135572   1.389   1.914   1.833 -0.1487  0.5218  0.4663
 4719TIP3    H235573   1.468   1.956   1.955 -0.0721 -0.2792  0.6972
 4720TIP3   OH235574   4.260   1.248   2.085  0.4691  0.1335  0.4870
 4720TIP3    H135575   4.319   1.230   2.012  0.1924  0.3511  0.2053
 4720TIP3    H235576   4.283   1.337   2.113 -0.3159  0.5765 -0.2079
 4721TIP3   OH235577   6.368   3.789   3.192  0.5241 -0.0428 -0.0948
 4721TIP3    H135578   6.330   3.876   3.186  0.4779 -0.0600 -0.0485
 4721TIP3    H235579   6.308   3.740   3.248  0.7583  0.0057  0.1982
 4722TIP3   OH235580   0.675   2.979   5.263  0.3969  0.1901 -0.0664
 4722TIP3    H135581   0.745   2.956   5.324  0.9138  0.1273 -0.6723
 4722TIP3    H235582   0.657   3.071   5.280  1.5240  0.5580 -0.7720
 4723TIP3   OH235583   3.061   2.822  13.031 -0.0388 -0.7578  0.7105
 4723TIP3    H135584   3.121   2.779  12.970 -0.4609 -0.9503  0.4307
 4723TIP3    H235585   2.977   2.821  12.987 -0.0109  0.5521  0.6195
 4724TIP3   OH235586   2.424   1.369   1.855  0.1672  0.0612  0.8117
 4724TIP3    H135587   2.480   1.437   1.820 -1.9671  2.1462  1.3122
 4724TIP3    H235588   2.438   1.294   1.797  1.7968  1.2398 -0.3470
 4725TIP3   OH235589   2.591   5.684  12.654 -0.8114 -0.0047 -0.5843
 4725TIP3    H135590   2.570   5.680  12.560  0.3452 -1.1706 -0.8183
 4725TIP3    H235591   2.506   5.693  12.697 -1.3748  0.3851 -1.7378
 4726TIP3   OH235592   3.479   3.173  10.893  0.5094 -0.0934  0.6125
 4726TIP3    H135593   3.498   3.249  10.838  1.0675 -1.7008 -1.4834
 4726TIP3    H235594   3.520   3.194  10.977  0.7857  1.8547  0.0283
 4727TIP3   OH235595   5.747   2.749   4.837  0.1613  0.2698 -0.0585
 4727TIP3    H135596   5.688   2.715   4.769 -0.8504  2.0463 -0.0883
 4727TIP3    H235597   5.802   2.813   4.791  1.0340 -0.2002  0.3213
 4728TIP3   OH235598   3.630   5.392  15.771  0.6425 -0.1413  0.5827
 4728TIP3    H135599   3.598   5.470  15.815  0.4915 -0.1617  0.5073
 4728TIP3    H235600   3.696   5.357  15.831 -0.1486 -0.6291  1.1753
 4729TIP3   OH235601   0.300   0.312  10.320 -0.1141  0.5300  0.2511
 4729TIP3    H135602   0.306   0.403  10.292 -0.3953  0.2440 -0.7479
 4729TIP3    H235603   0.347   0.309  10.403  1.3558  1.2264 -0.5393
 4730TIP3   OH235604   1.002   6.316  16.351  0.4695 -0.2394 -0.5520
 4730TIP3    H135605   1.022   6.393  16.297  0.6465 -0.5319 -0.9097
 4730TIP3    H235606   0.935   6.346  16.412  0.0819  0.0311 -1.1066
 4731TIP3   OH235607   0.753   5.804   4.091  0.2592  0.0916 -0.5148
 4731TIP3    H135608   0.662   5.774   4.099  0.4426 -0.2082  0.4649
 4731TIP3    H235609   0.796   5.734   4.042  0.5505 -0.9795  1.2558
 4732TIP3   OH235610   6.402   0.869  14.793  0.6400 -0.3269  0.1379
 4732TIP3    H135611   6.377   0.950  14.749 -0.1332 -0.2757  0.6498
 4732TIP3    H235612   6.448   0.898  14.872 -0.7514 -0.3586  0.9683
 4733TIP3   OH235613   6.626   5.484   4.061 -0.5762 -0.2036 -0.6689
 4733TIP3    H135614   6.657   5.552   4.002 -0.8947  0.3382 -0.2103
 4733TIP3    H235615   6.550   5.522   4.105  0.1465 -0.2875  0.6876
 4734TIP3   OH235616   1.973   6.343  15.101 -0.6060  0.4992  0.4781
 4734TIP3    H135617   2.024   6.278  15.150 -1.1935 -0.2854  0.0651
 4734TIP3    H235618   1.887   6.302  15.090  0.0907 -0.1449 -2.9040
 4735TIP3   OH235619   4.160   6.612  14.199  0.0538  1.3480 -0.3963
 4735TIP3    H135620   4.203   6.665  14.133  1.6374  0.1281 -0.3839
 4735TIP3    H235621   4.230   6.557  14.235 -0.6351  2.3767  2.6810
 4736TIP3   OH235622   5.122   3.450   5.854  0.0536 -0.4602 -0.0782
 4736TIP3    H135623   5.138   3.393   5.778 -1.0505 -1.5659  0.5081
 4736TIP3    H235624   5.143   3.395   5.930 -1.4435 -0.2361  0.5119
 4737TIP3   OH235625   5.202   5.782   1.548  0.2513  0.4021  0.1902
 4737TIP3    H135626   5.237   5.748   1.631 -0.7104 -0.0132  0.4352
 4737TIP3    H235627   5.153   5.860   1.574  2.6702  2.1731 -0.4007
 4738TIP3   OH235628   4.793   3.789  13.951  0.1638  0.0465 -0.1111
 4738TIP3    H135629   4.826   3.700  13.944 -0.0613  0.0057 -0.6372
 4738TIP3    H235630   4.865   3.839  13.989  0.1658 -0.4332  0.5264
 4739TIP3   OH235631   3.134   6.267   4.265  0.4611  0.1194 -0.1369
 4739TIP3    H135632   3.175   6.275   4.351  1.1856  0.5026 -0.5180
 4739TIP3    H235633   3.196   6.217   4.213 -0.7058 -1.5215  0.0299
 4740TIP3   OH235634   1.656   3.139   3.790 -0.1789  0.4371  0.1432
 4740TIP3    H135635   1.677   3.109   3.879  0.7941  0.9375  0.0870
 4740TIP3    H235636   1.605   3.219   3.804 -0.4770  0.2322  0.2513
 4741TIP3   OH235637   1.220   6.076  13.925  0.1845 -0.3930  0.1714
 4741TIP3    H135638   1.282   6.128  13.873 -0.2168  0.3798  0.4613
 4741TIP3    H235639   1.275   6.031  13.989  0.7033 -1.4732 -1.0033
 4742TIP3   OH235640   0.455   2.042   4.600  0.5251  0.5111  0.1425
 4742TIP3    H135641   0.429   2.112   4.540 -0.4213  0.2048  0.1875
 4742TIP3    H235642   0.550   2.051   4.608  0.6622  0.5556 -1.4060
 4743TIP3   OH235643   3.797   0.241  15.515 -0.0723 -0.1257 -0.4016
 4743TIP3    H135644   3.735   0.207  15.450 -1.1769 -1.3520  1.2727
 4743TIP3    H235645   3.839   0.163  15.551  0.5400  0.5557  0.3724
 4744TIP3   OH235646   3.085   6.202  14.562  0.0130  0.4286 -0.9187
 4744TIP3    H135647   3.056   6.178  14.650  3.0738  1.5781  0.4849
 4744TIP3    H235648   3.108   6.119  14.521  0.6897  0.0406  0.1990
 4745TIP3   OH235649   2.919   3.673  12.155  0.1124 -0.1450  0.1073
 4745TIP3    H135650   2.943   3.623  12.077  0.7104 -0.1324  0.2828
 4745TIP3    H235651   2.969   3.632  12.226  0.1416  0.3219  0.3538
 4746TIP3   OH235652   0.738   6.468   0.038 -0.3322  0.3307 -0.1709
 4746TIP3    H135653   0.769   6.388  -0.004  0.4870  1.6693 -2.2375
 4746TIP3    H235654   0.789   6.474   0.119 -0.8166 -1.5088  0.2754
 4747TIP3   OH235655   1.526   3.268  13.026 -0.1197 -0.0255 -0.5575
 4747TIP3    H135656   1.509   3.287  12.934  1.0997  0.4285 -0.7055
 4747TIP3    H235657   1.613   3.226  13.026  0.3459  0.9171  0.4787
 4748TIP3   OH235658   1.704   0.366  11.084 -0.2440  0.3341 -0.1291
 4748TIP3    H135659   1.699   0.276  11.116 -1.7033  0.6314  0.4900
 4748TIP3    H235660   1.619   0.382  11.043  0.1074  1.3424 -0.4845
 4749TIP3   OH235661   3.073   4.735   3.810 -0.1971 -0.0058 -0.2576
 4749TIP3    H135662   3.099   4.750   3.902 -3.0570  0.4518  0.5091
 4749TIP3    H235663   3.052   4.642   3.806 -0.0936 -0.0207 -0.4642
 4750TIP3   OH235664   6.422   0.807   5.837 -0.0540 -0.8208  0.4494
 4750TIP3    H135665   6.375   0.747   5.779 -1.0535  0.5487 -0.2078
 4750TIP3    H235666   6.442   0.883   5.781 -1.4760  0.7417  1.9897
 4751TIP3   OH235667   4.699   0.157  14.016 -0.1918  0.1310 -0.0345
 4751TIP3    H135668   4.771   0.220  14.016  0.2155 -0.3303 -0.7763
 4751TIP3    H235669   4.655   0.171  14.100 -0.0983  1.3929 -0.1907
 4752TIP3   OH235670   0.479   0.613  13.703  0.7451  0.8214  0.3812
 4752TIP3    H135671   0.504   0.654  13.785 -0.5956  2.4140  0.0087
 4752TIP3    H235672   0.401   0.660  13.674  0.8117 -0.1315 -1.4848
 4753TIP3   OH235673   6.404   4.658  10.950 -0.2102 -0.5227 -0.0471
 4753TIP3    H135674   6.489   4.668  10.906 -0.6475 -0.0600 -0.7954
 4753TIP3    H235675   6.372   4.747  10.960 -0.7528 -0.7156 -0.0498
 4754TIP3   OH235676   2.521   1.139   3.231  0.0064  0.0338  0.6824
 4754TIP3    H135677   2.469   1.122   3.309 -0.3446 -1.1363  0.2068
 4754TIP3    H235678   2.504   1.231   3.210 -1.6726 -0.2481  0.6997
 4755TIP3   OH235679   2.695   5.222  14.418  0.2565 -0.1742  0.6469
 4755TIP3    H135680   2.711   5.249  14.328 -0.6095  0.7458  0.7568
 4755TIP3    H235681   2.764   5.263  14.469  0.8841 -0.8822  0.3875
 4756TIP3   OH235682   6.564   3.029  16.704 -0.0377  0.0443  0.0307
 4756TIP3    H135683   6.488   3.021  16.646 -0.3907  1.6367  0.2337
 4756TIP3    H235684   6.559   2.953  16.762 -1.5620  0.1967  0.1274
 4757TIP3   OH235685   1.120   3.107   1.886 -0.2509 -0.1113  0.0781
 4757TIP3    H135686   1.092   3.178   1.944 -0.1890 -0.2732  0.3079
 4757TIP3    H235687   1.215   3.108   1.890 -0.2653 -0.9382  0.9835
 4758TIP3   OH235688   5.888   2.399   4.652  0.5547  0.3942 -0.0387
 4758TIP3    H135689   5.856   2.309   4.646  1.7785  0.0438 -1.5652
 4758TIP3    H235690   5.847   2.445   4.579  1.5265  0.5620 -0.4908
 4759TIP3   OH235691   0.434   2.864   4.200  0.1620  0.6678 -0.0886
 4759TIP3    H135692   0.451   2.794   4.263 -0.2643 -0.1163 -0.8285
 4759TIP3    H235693   0.373   2.923   4.244 -0.9162 -0.4042 -0.1389
 4760TIP3   OH235694   4.938   5.441   4.213 -0.0254  0.0526 -0.2012
 4760TIP3    H135695   4.965   5.349   4.211  1.7020  0.5459 -0.5602
 4760TIP3    H235696   5.020   5.490   4.210 -0.9297  1.6129  0.0484
 4761TIP3   OH235697   2.218   6.384   4.095 -0.2252 -0.1223 -0.4541
 4761TIP3    H135698   2.200   6.455   4.034 -0.1097 -0.1147 -0.4783
 4761TIP3    H235699   2.132   6.347   4.115 -0.2880  0.0346 -0.4281
 4762TIP3   OH235700   4.493   4.710   1.317 -0.4197  0.1816  0.1240
 4762TIP3    H135701   4.563   4.740   1.260 -1.1202 -0.5235 -1.1224
 4762TIP3    H235702   4.421   4.771   1.302 -0.9982 -0.6728 -0.5976
 4763TIP3   OH235703   1.101   6.228   2.769 -0.1845 -0.0607 -0.2470
 4763TIP3    H135704   1.089   6.311   2.816 -0.0780  0.2746 -0.8104
 4763TIP3    H235705   1.192   6.205   2.784  0.1621  0.6402 -1.2514
 4764TIP3   OH235706   1.466   1.620  14.489  0.3850 -0.0708 -0.5843
 4764TIP3    H135707   1.505   1.691  14.438  1.1967  0.4288  0.7048
 4764TIP3    H235708   1.503   1.540  14.450  1.1859  0.3164 -0.6380
 4765TIP3   OH235709   5.820   1.444   6.365  0.1813 -0.0956 -0.1510
 4765TIP3    H135710   5.730   1.440   6.333  0.4664 -1.1865 -0.8677
 4765TIP3    H235711   5.853   1.528   6.334 -0.4803  0.1538 -0.1856
 4766TIP3   OH235712   3.214   3.782   6.625 -0.2696  0.0103 -0.1830
 4766TIP3    H135713   3.223   3.772   6.720 -0.7729  0.3373 -0.1001
 4766TIP3    H235714   3.302   3.762   6.591  0.1650  0.8487  0.4284
 4767TIP3   OH235715   2.520   2.888   3.467 -0.1934  0.4789  0.0734
 4767TIP3    H135716   2.582   2.887   3.540  1.7792 -0.1984 -1.5794
 4767TIP3    H235717   2.520   2.979   3.437  2.2154 -0.0497 -1.7136
 4768TIP3   OH235718   1.109   1.636  12.895 -0.4981  0.6905  0.1009
 4768TIP3    H135719   1.073   1.700  12.956  0.9969  1.2698  0.4014
 4768TIP3    H235720   1.188   1.678  12.860  0.1258 -0.7145 -0.2031
 4769TIP3   OH235721   4.966   5.100   1.085  0.0546 -0.4073  0.9753
 4769TIP3    H135722   4.954   5.008   1.111 -0.3008  0.1666  2.9276
 4769TIP3    H235723   5.061   5.112   1.086  0.0623 -0.5049  1.6340
 4770TIP3   OH235724   4.762   4.521  14.013 -0.3114 -0.5695 -0.7951
 4770TIP3    H135725   4.683   4.566  14.044  0.7098  0.8137 -0.1518
 4770TIP3    H235726   4.823   4.591  13.993  1.1301 -1.6622 -0.2758
 4771TIP3   OH235727   3.402   1.045  14.942 -0.4977  0.3114  0.5679
 4771TIP3    H135728   3.403   0.957  14.980  1.1470 -0.3804 -0.9862
 4771TIP3    H235729   3.309   1.063  14.926 -0.8487 -1.1727  0.8138
 4772TIP3   OH235730   0.322   4.858  11.533 -0.8398  0.4420 -0.1789
 4772TIP3    H135731   0.311   4.821  11.620 -2.7474  0.5330 -0.3590
 4772TIP3    H235732   0.234   4.858  11.495 -0.1488  1.0170 -1.8543
 4773TIP3   OH235733   6.065   1.256   1.509 -0.2428 -0.1027 -0.1736
 4773TIP3    H135734   5.989   1.304   1.474  1.0061  1.7787 -0.3629
 4773TIP3    H235735   6.095   1.309   1.582  2.0100  0.1319 -1.2393
 4774TIP3   OH235736   0.904   5.004  13.950 -0.1036 -0.4198 -0.5110
 4774TIP3    H135737   0.946   4.918  13.959  0.7821  0.1125  0.5814
 4774TIP3    H235738   0.816   4.992  13.987 -0.5412 -1.2522 -1.7965
 4775TIP3   OH235739   1.818   3.012   5.048  0.0834 -0.5530 -0.5145
 4775TIP3    H135740   1.850   3.102   5.060  0.3419 -0.7062 -0.0658
 4775TIP3    H235741   1.840   2.992   4.957 -1.1964  0.3239 -1.0298
 4776TIP3   OH235742   1.531   2.336  15.694 -0.2755 -0.0490 -0.9673
 4776TIP3    H135743   1.490   2.283  15.625  0.1444 -1.4069 -0.1852
 4776TIP3    H235744   1.461   2.350  15.758 -0.5846  0.9672 -1.5113
 4777TIP3   OH235745   5.226   6.335   2.188 -0.2661 -0.4250  0.2182
 4777TIP3    H135746   5.229   6.430   2.179  1.9123 -0.4049  0.8950
 4777TIP3    H235747   5.194   6.320   2.277  0.3737 -0.3008  0.4727
 4778TIP3   OH235748   2.262   3.184  14.255 -0.1936  0.1756 -0.1275
 4778TIP3    H135749   2.240   3.277  14.250  3.0826  1.1594  2.2569
 4778TIP3    H235750   2.260   3.164  14.348 -0.4837 -2.1053 -0.5871
 4779TIP3   OH235751   4.904   5.285  15.307  0.5423 -0.3204 -0.2628
 4779TIP3    H135752   4.840   5.294  15.378  0.0875 -1.6944 -0.4775
 4779TIP3    H235753   4.976   5.344  15.331  1.3581 -2.3099  2.4430
 4780TIP3   OH235754   2.975   4.365  12.064 -0.0154  0.0070 -0.1678
 4780TIP3    H135755   2.986   4.274  12.037  0.8095  0.2095 -0.5194
 4780TIP3    H235756   3.064   4.396  12.082 -0.0556  1.4091 -2.2210
 4781TIP3   OH235757   4.591   5.650   3.994 -0.1301  0.1155 -0.1584
 4781TIP3    H135758   4.540   5.589   4.046 -0.4436  2.1354  1.9668
 4781TIP3    H235759   4.682   5.623   4.007 -0.2076  0.6309  1.4579
 4782TIP3   OH235760   4.465   4.908  12.345  0.1575 -0.5136  0.6310
 4782TIP3    H135761   4.510   4.988  12.373 -1.5401  0.2577  1.1997
 4782TIP3    H235762   4.435   4.928  12.256 -0.4756 -0.4369  0.8637
 4783TIP3   OH235763   5.479   5.135   3.758 -0.5249 -0.0454 -0.5160
 4783TIP3    H135764   5.390   5.167   3.774 -0.1009  0.9127 -0.0363
 4783TIP3    H235765   5.518   5.201   3.701  0.0613 -0.1739 -0.2689
 4784TIP3   OH235766   6.546   0.629   3.918  0.6251 -0.2127  0.3699
 4784TIP3    H135767   6.459   0.620   3.957  0.3415 -0.6897 -0.3658
 4784TIP3    H235768   6.605   0.584   3.979  0.1657 -1.0873  0.1629
 4785TIP3   OH235769   1.520   3.798   3.784  0.1940  0.6884  0.0480
 4785TIP3    H135770   1.599   3.746   3.799  0.4793  1.1676  0.2133
 4785TIP3    H235771   1.456   3.763   3.846  0.7462  1.3179  0.9758
 4786TIP3   OH235772   3.635   2.511  11.949  0.3865  0.3810 -0.4352
 4786TIP3    H135773   3.569   2.507  11.879  1.1500 -1.9332 -1.0891
 4786TIP3    H235774   3.584   2.520  12.029 -0.8441 -2.5457 -0.8239
 4787TIP3   OH235775   5.196   1.122   0.174  0.1905  0.2897  0.0902
 4787TIP3    H135776   5.288   1.146   0.186  0.5160 -1.0236  0.3605
 4787TIP3    H235777   5.181   1.131   0.080  0.2184  1.7868  0.2224
 4788TIP3   OH235778   3.116   5.976  10.831  0.6251 -0.4292  0.6021
 4788TIP3    H135779   3.090   6.007  10.918 -0.1715 -0.9837  0.5652
 4788TIP3    H235780   3.073   6.035  10.770  1.5347  0.2270  0.5834
 4789TIP3   OH235781   0.343   4.243   1.226  0.2749  0.6545  0.6155
 4789TIP3    H135782   0.423   4.273   1.268 -0.3245  1.8773  0.9215
 4789TIP3    H235783   0.372   4.180   1.160  1.3145 -0.4483  2.0923
 4790TIP3   OH235784   5.728   4.433  14.112 -0.4733 -0.2538 -0.1462
 4790TIP3    H135785   5.723   4.342  14.085  0.7780 -0.2196 -0.5067
 4790TIP3    H235786   5.750   4.481  14.033  0.7905  0.1311  0.4279
 4791TIP3   OH235787   3.077   0.794  14.086  0.3034  0.0202  0.1762
 4791TIP3    H135788   2.991   0.788  14.128 -1.2878 -4.3410 -3.3310
 4791TIP3    H235789   3.131   0.730  14.134  0.6669  0.3778  0.2502
 4792TIP3   OH235790   3.175   3.923   1.438 -0.2358 -0.1032  1.0677
 4792TIP3    H135791   3.143   3.840   1.404  2.9655 -0.8624 -0.1976
 4792TIP3    H235792   3.096   3.977   1.447 -1.9598 -2.1951 -1.0599
 4793TIP3   OH235793   6.672   2.836  11.811 -0.2578 -0.1705 -0.4682
 4793TIP3    H135794   6.594   2.892  11.814  0.3276  0.6115  0.3590
 4793TIP3    H235795   6.644   2.755  11.853 -0.0415  0.8567  1.6995
 4794TIP3   OH235796   6.195   0.323  11.579  0.1313 -0.0537  0.0925
 4794TIP3    H135797   6.137   0.272  11.523 -1.2949  0.4300  1.0896
 4794TIP3    H235798   6.166   0.414  11.566  2.1467  0.4419 -1.0974
 4795TIP3   OH235799   0.658   1.208  15.380  0.5002 -0.2995  0.5063
 4795TIP3    H135800   0.718   1.137  15.400  0.6194 -0.5421 -0.6981
 4795TIP3    H235801   0.677   1.275  15.446  2.3213 -0.2386 -0.0735
 4796TIP3   OH235802   6.374   6.553   4.616 -0.5154  0.5338  0.5244
 4796TIP3    H135803   6.353   6.645   4.631  1.5317  0.9403  1.0511
 4796TIP3    H235804   6.468   6.546   4.634 -0.4955 -1.5167 -0.1802
 4797TIP3   OH235805   2.734   0.172   5.904 -0.1797 -0.3166 -0.0638
 4797TIP3    H135806   2.815   0.223   5.906  0.1491 -0.7721 -1.2094
 4797TIP3    H235807   2.687   0.198   5.983  2.1965 -1.9068  1.9281
 4798TIP3   OH235808   0.343   5.872  11.231  0.0396  0.2108  0.0763
 4798TIP3    H135809   0.435   5.896  11.239  0.0960  0.4750 -1.2538
 4798TIP3    H235810   0.322   5.829  11.314  2.5159 -3.6208 -1.1201
 4799TIP3   OH235811   5.740   4.193  15.654  0.7443  0.2086 -0.2744
 4799TIP3    H135812   5.665   4.239  15.690  0.5284  1.6831 -2.5038
 4799TIP3    H235813   5.816   4.239  15.691  0.5826 -1.0265  1.6558
 4800TIP3   OH235814   6.278   3.073   2.353 -0.7172 -0.2195  0.2439
 4800TIP3    H135815   6.280   2.977   2.353  1.4680 -0.2021  0.0272
 4800TIP3    H235816   6.273   3.097   2.261 -2.2325 -0.1110  0.3387
 4801TIP3   OH235817   3.042   5.475  13.267  0.0753 -0.1635  0.2335
 4801TIP3    H135818   3.085   5.450  13.185  1.0714 -1.1415  1.0426
 4801TIP3    H235819   3.057   5.401  13.326 -0.0194  0.8300  1.5284
 4802TIP3   OH235820   5.560   5.171  17.111  0.1114  0.8827  0.3704
 4802TIP3    H135821   5.602   5.094  17.149 -0.1983  0.7780  0.5018
 4802TIP3    H235822   5.471   5.169  17.145 -0.2550  0.6309 -0.5742
 4803TIP3   OH235823   3.262   1.377   4.759 -0.2236  0.2473  0.6961
 4803TIP3    H135824   3.323   1.401   4.828  1.4663  0.4258 -0.8278
 4803TIP3    H235825   3.285   1.286   4.736 -0.4256  0.3571  0.0310
 4804TIP3   OH235826   5.996   0.576   2.506 -0.7063  0.5376  0.2241
 4804TIP3    H135827   5.905   0.546   2.505 -0.1195 -1.3523  0.8568
 4804TIP3    H235828   6.033   0.541   2.425 -1.1444  3.3547 -1.2379
 4805TIP3   OH235829   5.178   5.859  14.730 -0.0858  0.3748 -0.1279
 4805TIP3    H135830   5.118   5.892  14.796  0.4932  0.5618  0.3054
 4805TIP3    H235831   5.186   5.765  14.749 -0.1531  0.3708 -0.1196
 4806TIP3   OH235832   4.399   2.011  14.276 -0.1479 -0.8607 -0.0213
 4806TIP3    H135833   4.444   1.928  14.263 -1.7214 -1.6478 -0.5459
 4806TIP3    H235834   4.330   2.012  14.209  0.3011  1.1798 -0.4814
 4807TIP3   OH235835   2.676   3.800  16.343 -0.1756 -0.2739  0.2488
 4807TIP3    H135836   2.656   3.852  16.421 -0.3193  0.5776 -0.3413
 4807TIP3    H235837   2.772   3.800  16.338 -0.1901  2.3423 -1.2892
 4808TIP3   OH235838   6.326   2.398   6.317  0.1506 -0.6807  0.1557
 4808TIP3    H135839   6.242   2.362   6.288  0.6242 -1.7244  0.0556
 4808TIP3    H235840   6.303   2.466   6.380 -0.8246  0.2669 -1.2088
 4809TIP3   OH235841   5.998   5.292  16.810  0.0770 -0.3609  0.4903
 4809TIP3    H135842   5.905   5.306  16.793  0.4781  1.6346 -0.1649
 4809TIP3    H235843   6.024   5.225  16.746 -0.2816  1.1520 -1.2634
 4810TIP3   OH235844   0.389   3.961   3.553  0.0430  0.0244 -0.2949
 4810TIP3    H135845   0.470   3.974   3.504 -0.0523  1.1566 -0.1592
 4810TIP3    H235846   0.321   3.999   3.497 -0.3703 -0.7059 -0.3011
 4811TIP3   OH235847   0.448   1.815  12.200  0.1991 -0.1372  0.7515
 4811TIP3    H135848   0.520   1.757  12.177  0.4848  0.9750 -1.2213
 4811TIP3    H235849   0.489   1.901  12.211 -0.7691  0.4367 -0.0323
 4812TIP3   OH235850   6.306   6.089   4.839 -0.2238  0.0134 -0.1939
 4812TIP3    H135851   6.267   6.150   4.775  0.6727  1.1229  0.2965
 4812TIP3    H235852   6.256   6.105   4.919  0.4772  0.6323  0.1292
 4813TIP3   OH235853   4.897   5.398  16.572 -0.1349 -0.3216 -0.6793
 4813TIP3    H135854   4.948   5.360  16.644 -0.8917  0.1688  0.1314
 4813TIP3    H235855   4.809   5.361  16.582 -0.8611  1.4956  0.0601
 4814TIP3   OH235856   3.108   4.346   5.418  0.9232  0.1466  0.1919
 4814TIP3    H135857   3.086   4.439   5.427 -0.5281 -0.2500  0.8371
 4814TIP3    H235858   3.119   4.333   5.324 -0.4593  0.6196 -0.0426
 4815TIP3   OH235859   6.073   4.578   0.012  0.3499  0.5573  0.1159
 4815TIP3    H135860   6.002   4.524  -0.024  0.9587 -0.4245  0.3770
 4815TIP3    H235861   6.056   4.579   0.106 -1.0108  2.7890 -0.1345
 4816TIP3   OH235862   4.840   0.497  10.884  0.0391  0.8311 -0.3639
 4816TIP3    H135863   4.857   0.580  10.838 -0.7801  0.7795 -0.7653
 4816TIP3    H235864   4.882   0.431  10.830  0.8598  1.0019  0.0588
 4817TIP3   OH235865   2.302   4.704  17.027  0.1439  0.4927  0.5022
 4817TIP3    H135866   2.312   4.799  17.025  0.1316  0.5028  0.8322
 4817TIP3    H235867   2.388   4.671  17.052  0.4256  0.3603 -0.6511
 4818TIP3   OH235868   3.550   6.300  16.996 -0.1699 -0.1264 -0.4556
 4818TIP3    H135869   3.523   6.231  17.057  1.5737  1.1892  1.9407
 4818TIP3    H235870   3.507   6.379  17.029  1.2329  0.7034 -0.5636
 4819TIP3   OH235871   4.422   5.231   5.016 -0.5852  0.4038  0.1745
 4819TIP3    H135872   4.447   5.319   4.988  0.2185 -0.8043 -3.1513
 4819TIP3    H235873   4.504   5.183   5.021 -1.0871 -0.3638  1.3290
 4820TIP3   OH235874   5.003   4.306   3.052 -0.1709  0.3022  0.3262
 4820TIP3    H135875   5.057   4.378   3.083 -0.1199  1.1223 -1.6024
 4820TIP3    H235876   4.950   4.344   2.982  0.3837 -1.6772 -1.2170
 4821TIP3   OH235877   1.992   0.978  11.486 -0.4053  0.3095  0.2787
 4821TIP3    H135878   2.046   0.938  11.418  0.4179  0.4896  0.8191
 4821TIP3    H235879   1.947   0.905  11.528  0.5638  0.0235  0.8075
 4822TIP3   OH235880   0.733   1.654   2.642  0.1095  0.0574 -0.3180
 4822TIP3    H135881   0.807   1.711   2.664 -0.4388  1.0354 -0.9954
 4822TIP3    H235882   0.666   1.677   2.706  0.3083 -0.6752  0.1569
 4823TIP3   OH235883   1.785   0.567   5.445 -0.4243  0.3339 -0.2214
 4823TIP3    H135884   1.777   0.484   5.493 -1.5053  0.8244  0.4784
 4823TIP3    H235885   1.769   0.544   5.354 -0.6702 -0.2424 -0.0365
 4824TIP3   OH235886   0.522   4.035  15.087  0.0322 -0.0632  0.6319
 4824TIP3    H135887   0.512   3.987  15.004  0.2978  2.6731 -1.0585
 4824TIP3    H235888   0.433   4.046  15.119 -0.2613  0.6355 -0.3796
 4825TIP3   OH235889   4.330   5.019  14.418 -0.8415  0.4224 -0.4160
 4825TIP3    H135890   4.355   5.108  14.445 -0.1186  0.1195 -0.0884
 4825TIP3    H235891   4.382   4.962  14.474 -2.8549 -0.2219  0.8383
 4826TIP3   OH235892   2.991   0.754  11.254  0.1421 -0.1223  0.1935
 4826TIP3    H135893   2.999   0.828  11.193  0.5191  1.8893  2.6268
 4826TIP3    H235894   2.897   0.734  11.254 -0.0555  0.7473 -0.0567
 4827TIP3   OH235895   4.026   3.441   0.324 -0.1286  0.1591  0.4442
 4827TIP3    H135896   4.070   3.414   0.405 -0.7022 -3.3767 -0.3495
 4827TIP3    H235897   4.068   3.388   0.256  0.5235  3.2646 -1.6583
 4828TIP3   OH235898   1.832   4.245  13.522 -0.3413 -0.4941  0.0825
 4828TIP3    H135899   1.753   4.196  13.547 -0.5667  0.2154  0.7766
 4828TIP3    H235900   1.829   4.324  13.576  0.0421  0.2665 -1.0002
 4829TIP3   OH235901   3.802   0.913  14.598 -0.1861 -0.5315  0.5356
 4829TIP3    H135902   3.825   1.005  14.587 -0.6835 -0.4284  0.3524
 4829TIP3    H235903   3.844   0.887  14.680 -2.5300  0.6837  2.1885
 4830TIP3   OH235904   2.614   4.019   4.483 -0.3592  0.0198  0.1327
 4830TIP3    H135905   2.567   4.077   4.543 -1.1339 -0.1851 -0.2747
 4830TIP3    H235906   2.550   3.998   4.415 -0.1871 -1.6064  0.4752
 4831TIP3   OH235907   4.730   2.417   5.253  1.1283 -0.4367  0.3251
 4831TIP3    H135908   4.752   2.510   5.264 -0.6280 -0.0271  0.6127
 4831TIP3    H235909   4.659   2.402   5.316  0.4817 -1.6138 -0.6597
 4832TIP3   OH235910   3.252   1.882  15.265 -0.3001  0.0449  0.3070
 4832TIP3    H135911   3.318   1.837  15.318  0.7574  0.9933 -0.1970
 4832TIP3    H235912   3.175   1.825  15.271  0.9442 -1.7364 -0.1411
 4833TIP3   OH235913   3.169   2.196  12.445 -0.0231 -0.0584 -0.7187
 4833TIP3    H135914   3.139   2.274  12.400  0.4257  1.1609  1.0350
 4833TIP3    H235915   3.107   2.184  12.517  0.7558 -0.4363 -0.0889
 4834TIP3   OH235916   2.839   0.492  11.195 -0.2191  0.1423  0.3614
 4834TIP3    H135917   2.848   0.410  11.147  0.6431 -0.0816  0.9094
 4834TIP3    H235918   2.922   0.503  11.241  0.8196  2.8124 -2.0084
 4835TIP3   OH235919   0.796   5.496   4.054  0.0311  0.0192  0.1871
 4835TIP3    H135920   0.826   5.501   3.963  1.1422 -1.4422  0.4489
 4835TIP3    H235921   0.799   5.403   4.075  0.2248  0.3867  1.8620
 4836TIP3   OH235922   2.832   3.952   0.632  0.4686 -0.0578 -0.7677
 4836TIP3    H135923   2.760   3.994   0.585  0.5729  1.0829  0.0730
 4836TIP3    H235924   2.859   3.879   0.575  0.1585  0.8961 -2.1491
 4837TIP3   OH235925   4.915   0.395  16.509  0.3643  0.3240  0.0903
 4837TIP3    H135926   4.897   0.489  16.505  0.1852  0.2678 -0.4673
 4837TIP3    H235927   4.834   0.357  16.541  0.7414  0.4527  1.1984
 4838TIP3   OH235928   1.614   4.092  15.549 -0.3610 -0.0135 -0.5460
 4838TIP3    H135929   1.671   4.029  15.505  0.1549 -0.5007  0.7945
 4838TIP3    H235930   1.558   4.039  15.605  0.4229  0.7361  0.9819
 4839TIP3   OH235931   5.545   3.246  15.062 -0.2975  0.8917 -0.8583
 4839TIP3    H135932   5.456   3.209  15.064 -0.9561  2.4166 -1.3770
 4839TIP3    H235933   5.570   3.255  15.154 -0.8222  0.7935 -0.7052
 4840TIP3   OH235934   1.008   1.121  14.774 -0.1863 -0.7681 -0.6844
 4840TIP3    H135935   0.998   1.207  14.815 -1.9663 -0.9630 -0.6503
 4840TIP3    H235936   0.955   1.127  14.695 -0.3877 -1.8529 -0.6308
 4841TIP3   OH235937   2.031   2.785   4.155  0.3025  0.0889  0.5770
 4841TIP3    H135938   1.990   2.851   4.211 -0.2873  0.3645 -0.1678
 4841TIP3    H235939   2.023   2.821   4.067 -2.7941 -2.3212 -0.2244
 4842TIP3   OH235940   2.917   3.954  15.974  0.1803  0.2453 -0.0179
 4842TIP3    H135941   2.997   3.946  15.922 -0.4772  1.3601 -1.2308
 4842TIP3    H235942   2.945   3.999  16.054  0.5566  1.6939 -0.9545
 4843TIP3   OH235943   6.689   2.522  16.352  0.4680  0.0286  0.4669
 4843TIP3    H135944   6.692   2.573  16.272  1.7977  0.2147  0.6242
 4843TIP3    H235945   6.634   2.573  16.411 -1.8959 -0.9315 -0.8703
 4844TIP3   OH235946   3.171   2.141   2.940  0.6896 -0.2483  0.3929
 4844TIP3    H135947   3.104   2.206   2.917 -0.1923 -0.1530  3.0128
 4844TIP3    H235948   3.123   2.058   2.942  1.3152 -0.6477 -0.6328
 4845TIP3   OH235949   3.755   3.711  16.964  0.0098  0.1834  0.4992
 4845TIP3    H135950   3.744   3.801  16.934  0.2872  1.2100  3.3704
 4845TIP3    H235951   3.700   3.659  16.905  1.8376  1.8707 -2.8271
 4846TIP3   OH235952   2.865   3.134  15.335 -0.2984  0.9074 -0.0757
 4846TIP3    H135953   2.815   3.079  15.275  1.4040 -1.6336  0.7150
 4846TIP3    H235954   2.800   3.167  15.397 -1.3565 -0.4781 -0.4065
 4847TIP3   OH235955   5.917   3.164   4.237  0.1781 -0.3487  0.2590
 4847TIP3    H135956   6.000   3.189   4.279 -0.4036  0.5515  0.8951
 4847TIP3    H235957   5.927   3.071   4.219  0.5455 -0.7174  2.2077
 4848TIP3   OH235958   4.734   2.979   0.272 -0.2438 -0.3461 -0.3109
 4848TIP3    H135959   4.766   2.908   0.327  2.1577  2.2629  1.8423
 4848TIP3    H235960   4.761   2.955   0.183  0.6395 -2.0230  0.3891
 4849TIP3   OH235961   5.015   3.605  15.271  0.2208 -0.9470 -0.2183
 4849TIP3    H135962   5.031   3.680  15.214  0.8278  0.6507  1.9761
 4849TIP3    H235963   5.088   3.545  15.253  1.1744  0.1664 -0.1278
 4850TIP3   OH235964   2.229   4.184  15.004 -0.3807  0.3909 -0.3254
 4850TIP3    H135965   2.266   4.224  15.083 -1.4608 -0.4522  0.6240
 4850TIP3    H235966   2.149   4.235  14.987 -1.0017 -0.4369  0.0688
 4851TIP3   OH235967   6.297   4.334  14.271  0.1626  0.0284 -0.0156
 4851TIP3    H135968   6.317   4.285  14.350 -0.6120 -0.6370 -0.2243
 4851TIP3    H235969   6.201   4.344  14.272 -0.0755 -1.7367 -1.8783
 4852TIP3   OH235970   2.337   2.516  14.676 -0.6114  0.2750  0.2465
 4852TIP3    H135971   2.427   2.509  14.707 -0.4262  1.3131 -0.0321
 4852TIP3    H235972   2.320   2.432  14.633  1.1854  1.0930 -2.1859
 4853TIP3   OH235973   5.478   4.168   6.343 -0.4080 -0.3310  0.3646
 4853TIP3    H135974   5.497   4.247   6.394 -1.1846  0.1533 -0.0909
 4853TIP3    H235975   5.550   4.163   6.280 -0.5191  0.1969  0.1865
 4854TIP3   OH235976   6.319   2.331   4.373  0.0608  0.2304 -0.1131
 4854TIP3    H135977   6.303   2.364   4.284  0.0556 -0.2556 -0.2908
 4854TIP3    H235978   6.248   2.368   4.425 -0.5487 -0.3592 -0.5238
 4855TIP3   OH235979   1.626   2.985   0.341  0.0251 -0.0255 -0.4593
 4855TIP3    H135980   1.545   2.937   0.322  0.5306 -1.0290 -0.1378
 4855TIP3    H235981   1.655   2.950   0.425 -0.2361  1.7511  0.3961
 4856TIP3   OH235982   2.739   0.323   0.656 -0.2024  0.5696  0.4112
 4856TIP3    H135983   2.696   0.340   0.573  0.4347 -0.4334 -0.1360
 4856TIP3    H235984   2.802   0.395   0.666 -0.4251  0.8026  0.1275
 4857TIP3   OH235985   5.740   6.024   5.681 -0.3220 -0.2292 -0.7395
 4857TIP3    H135986   5.826   6.003   5.718 -0.1062  0.0182 -1.0885
 4857TIP3    H235987   5.687   6.052   5.755 -0.2799 -0.9675 -0.4361
 4858TIP3   OH235988   5.452   3.342   0.596  0.1688 -0.4088 -0.5157
 4858TIP3    H135989   5.543   3.311   0.587  0.5326  0.5070 -0.0278
 4858TIP3    H235990   5.457   3.436   0.581 -0.8517 -0.4868 -1.3979
 4859TIP3   OH235991   1.577   0.651   4.955 -0.1471  0.1918 -0.0803
 4859TIP3    H135992   1.606   0.677   5.042 -1.8743  3.9906 -0.5573
 4859TIP3    H235993   1.631   0.702   4.895 -1.1814  0.0429 -1.1637
 4860TIP3   OH235994   6.517   2.821   0.760 -0.4332 -0.0948 -0.1608
 4860TIP3    H135995   6.485   2.789   0.844  1.9738  0.1351  0.9006
 4860TIP3    H235996   6.490   2.754   0.697  1.4172 -2.4725  1.4683
 4861TIP3   OH235997   1.527   4.281  15.341 -0.0950 -0.0183  0.7260
 4861TIP3    H135998   1.608   4.249  15.380 -0.2777 -0.8966  0.3934
 4861TIP3    H235999   1.460   4.261  15.407 -0.1796 -0.1506  0.6006
 4862TIP3   OH236000   5.176   4.899   2.511  0.1689  0.2914  0.2710
 4862TIP3    H136001   5.100   4.908   2.569  0.2243  0.1630  0.3650
 4862TIP3    H236002   5.237   4.967   2.540  0.9064 -0.8576  1.4718
 4863TIP3   OH236003   6.559   4.528   5.044 -0.1316  0.2090 -0.3554
 4863TIP3    H136004   6.603   4.591   4.988 -0.9187  1.4884  0.4428
 4863TIP3    H236005   6.553   4.448   4.991 -0.1523  1.1560 -1.7935
 4864TIP3   OH236006   0.255   2.268   3.686  0.1213  0.2229 -0.4667
 4864TIP3    H136007   0.336   2.293   3.730 -1.6223  2.8283  1.4323
 4864TIP3    H236008   0.200   2.230   3.756 -0.7338 -0.4426 -1.4819
 4865TIP3   OH236009   3.635   5.037  11.782 -0.0737  0.5319 -0.4694
 4865TIP3    H136010   3.660   5.115  11.732  0.4996  0.5964 -0.0846
 4865TIP3    H236011   3.715   5.011  11.828 -0.3734 -0.0332 -0.2578
 4866TIP3   OH236012   4.686   1.572  16.694 -0.0570 -0.4999  0.0661
 4866TIP3    H136013   4.667   1.599  16.604 -2.6483 -1.6172  0.2314
 4866TIP3    H236014   4.627   1.498  16.710  3.4648 -3.1945  1.2397
 4867TIP3   OH236015   1.456   0.185  12.658 -0.0057  0.1710 -1.0488
 4867TIP3    H136016   1.465   0.104  12.608 -0.1288 -0.1838 -0.4964
 4867TIP3    H236017   1.363   0.188  12.683  0.1050  0.2312 -0.6432
 4868TIP3   OH236018   4.861   6.264  15.867  0.0649  0.3382 -0.5219
 4868TIP3    H136019   4.908   6.321  15.806  0.2817 -1.7669 -2.3982
 4868TIP3    H236020   4.923   6.193  15.886 -0.4865  0.2608  1.1325
 4869TIP3   OH236021   3.219   4.727   1.456 -0.2399 -0.3928  0.3732
 4869TIP3    H136022   3.281   4.662   1.489  0.1094  0.2254  0.9269
 4869TIP3    H236023   3.160   4.676   1.400 -0.4496 -1.3277  1.4185
 4870TIP3   OH236024   2.438   2.320  13.826  0.3307  0.1532 -0.0552
 4870TIP3    H136025   2.453   2.399  13.773  1.4606  0.6317  0.9388
 4870TIP3    H236026   2.369   2.345  13.887 -0.0130  0.0483 -0.4027
 4871TIP3   OH236027   1.455   2.636  14.536  0.0310 -0.2353 -0.2464
 4871TIP3    H136028   1.525   2.582  14.499  4.1346  4.0963  0.5767
 4871TIP3    H236029   1.435   2.594  14.620 -0.1755 -2.9621 -1.6231
 4872TIP3   OH236030   1.704   0.060   1.939 -0.2043  0.4210 -0.0881
 4872TIP3    H136031   1.786   0.014   1.924 -0.5725 -0.2836  0.0381
 4872TIP3    H236032   1.695   0.064   2.034  0.4844  1.9472 -0.0663
 4873TIP3   OH236033   0.177   5.218  13.043  0.2858  0.0670 -0.2497
 4873TIP3    H136034   0.262   5.262  13.040  0.9660 -1.2740 -1.7596
 4873TIP3    H236035   0.130   5.251  12.966  0.4112 -0.9991 -0.8112
 4874TIP3   OH236036   3.489   0.773  15.663  0.2269  0.6239 -0.2706
 4874TIP3    H136037   3.479   0.682  15.635 -0.5161  0.4724  0.4722
 4874TIP3    H236038   3.402   0.811  15.655  0.9101  1.8348 -2.4682
 4875TIP3   OH236039   5.046   1.993  11.583  0.0414 -0.6723  0.2236
 4875TIP3    H136040   5.085   2.040  11.509 -1.0087  0.0737  0.1278
 4875TIP3    H236041   5.047   1.901  11.557 -1.0600 -0.3328 -1.0632
 4876TIP3   OH236042   0.152   4.294  12.188 -0.0171  0.0676 -0.1042
 4876TIP3    H136043   0.240   4.302  12.153 -0.5289  0.8879 -1.2483
 4876TIP3    H236044   0.151   4.208  12.231  0.3980 -1.4082 -2.9006
 4877TIP3   OH236045   3.058   2.136  12.711  0.2982  0.4091  0.0088
 4877TIP3    H136046   3.021   2.210  12.759  0.0889 -0.3845  1.0941
 4877TIP3    H236047   2.984   2.078  12.696  0.7315 -0.2763  0.4801
 4878TIP3   OH236048   2.479   2.386  10.905  0.6195 -0.4870 -0.0409
 4878TIP3    H136049   2.448   2.466  10.864 -0.2623 -0.6559  0.2750
 4878TIP3    H236050   2.427   2.379  10.985  2.2847 -0.1703  1.0996
 4879TIP3   OH236051   3.835   3.736  13.619  0.5226  0.1183 -0.2009
 4879TIP3    H136052   3.872   3.664  13.568 -1.2356  1.3545 -3.3213
 4879TIP3    H236053   3.794   3.693  13.694  2.5064 -1.7920 -0.1599
 4880TIP3   OH236054   2.932   3.659  14.023 -0.2434 -0.2012 -0.4523
 4880TIP3    H136055   3.018   3.696  13.999 -1.1286  2.5350  0.3551
 4880TIP3    H236056   2.953   3.580  14.073  1.8267  0.6082  0.0085
 4881TIP3   OH236057   2.752   3.820  12.325 -0.7436  0.2936  0.2511
 4881TIP3    H136058   2.787   3.735  12.353  2.4546  1.1865 -0.8035
 4881TIP3    H236059   2.765   3.822  12.231 -2.0671  1.4192  0.0674
 4882TIP3   OH236060   3.939   3.804  17.142  0.1529 -0.2981  0.4671
 4882TIP3    H136061   3.889   3.825  17.220 -0.2937  1.3578 -0.2260
 4882TIP3    H236062   3.874   3.771  17.080  0.4065 -1.0340  0.5936
 4883TIP3   OH236063   5.160   6.604   2.336 -0.5129 -0.2355 -0.2304
 4883TIP3    H136064   5.179   6.528   2.391 -1.0297  1.2865  2.0838
 4883TIP3    H236065   5.179   6.680   2.391  0.4043  1.3453 -2.6496
 4884TIP3   OH236066   4.591   4.951   3.636  0.3127  0.4687 -0.0192
 4884TIP3    H136067   4.609   5.024   3.577  1.2595  0.2396 -0.0167
 4884TIP3    H236068   4.511   4.978   3.682  0.0269  1.0070 -0.8073
 4885TIP3   OH236069   2.409   2.232  14.567  0.5178  0.1673  0.1854
 4885TIP3    H136070   2.466   2.198  14.636 -0.1619 -0.9730  0.2090
 4885TIP3    H236071   2.469   2.249  14.494  1.3681  2.2074  1.3109
 4886TIP3   OH236072   3.269   5.121  14.898  0.3613  0.4603  0.7130
 4886TIP3    H136073   3.363   5.135  14.886  0.2169 -0.9334 -2.7974
 4886TIP3    H236074   3.262   5.030  14.927  0.0696  0.3471  0.2984
 4887TIP3   OH236075   2.196   3.921   3.797 -0.5055  0.1191 -0.3792
 4887TIP3    H136076   2.236   3.835   3.789  0.2307  0.6580 -3.0527
 4887TIP3    H236077   2.143   3.930   3.718 -0.5011  2.1325 -0.1746
 4888TIP3   OH236078   6.769   4.635  11.323  0.2614 -0.5939  0.0152
 4888TIP3    H136079   6.752   4.653  11.415 -0.1958  0.3842 -0.2490
 4888TIP3    H236080   6.698   4.576  11.297  0.0234 -0.3633  0.1344
 4889TIP3   OH236081   0.755   0.303  13.141 -0.1042  0.2918  0.6287
 4889TIP3    H136082   0.721   0.219  13.172 -1.0733  1.0135  1.5406
 4889TIP3    H236083   0.736   0.303  13.047 -0.0801 -0.5257  0.6223
 4890TIP3   OH236084   1.886   6.318  14.379  0.0480  0.4728 -0.0594
 4890TIP3    H136085   1.933   6.292  14.300 -1.3531  1.3474 -1.2030
 4890TIP3    H236086   1.810   6.366  14.347 -0.4475  0.9875  1.8341
 4891TIP3   OH236087   1.177   3.116   5.775  0.3440 -0.4090 -0.1252
 4891TIP3    H136088   1.219   3.052   5.832 -0.4697 -1.4610 -0.7110
 4891TIP3    H236089   1.172   3.196   5.829  0.8241 -0.9907  0.7939
 4892TIP3   OH236090   1.595   6.222   6.327 -0.9172  0.0206  0.1437
 4892TIP3    H136091   1.686   6.212   6.296 -0.9677 -0.6934  0.2203
 4892TIP3    H236092   1.542   6.185   6.256 -1.1072 -0.3125  0.4607
 4893TIP3   OH236093   0.194   4.825   0.920 -0.1141 -0.1952 -0.0262
 4893TIP3    H136094   0.099   4.820   0.935  0.0547 -1.2429  0.8081
 4893TIP3    H236095   0.225   4.887   0.986 -0.2251  0.1349 -0.2880
 4894TIP3   OH236096   0.603   1.112  14.694  0.3803 -0.4628  0.1223
 4894TIP3    H136097   0.625   1.041  14.634 -0.9380 -0.6185 -0.2133
 4894TIP3    H236098   0.529   1.079  14.745 -0.6636  0.8687 -0.4724
 4895TIP3   OH236099   3.296   4.571  12.415  0.3740  0.0013  0.2864
 4895TIP3    H136100   3.293   4.564  12.319  1.0518  0.0177  0.2561
 4895TIP3    H236101   3.241   4.647  12.435 -1.0083 -0.9185  0.0300
 4896TIP3   OH236102   5.856   4.586   2.950  0.0680  0.6520 -0.4415
 4896TIP3    H136103   5.778   4.641   2.943  0.6032  1.1917 -2.3870
 4896TIP3    H236104   5.823   4.496   2.945 -0.2637  0.9061 -3.3158
 4897TIP3   OH236105   6.400   6.064   3.537 -0.2194 -0.4220  0.5709
 4897TIP3    H136106   6.334   5.999   3.559 -0.5584 -0.0410  0.6729
 4897TIP3    H236107   6.371   6.144   3.580  0.2295 -0.2148  0.4951
 4898TIP3   OH236108   6.429   3.929   0.468  0.4962  0.2714 -0.5953
 4898TIP3    H136109   6.352   3.960   0.419  1.7948  1.3247 -2.0145
 4898TIP3    H236110   6.447   3.843   0.430 -0.2773 -0.2081  0.0997
 4899TIP3   OH236111   5.733   2.690   5.513 -0.1530  0.6468  0.0835
 4899TIP3    H136112   5.714   2.744   5.436  2.7631 -0.3510 -1.4225
 4899TIP3    H236113   5.656   2.634   5.523 -0.6841  0.9756 -1.9636
 4900TIP3   OH236114   4.568   0.064   1.234  0.2935 -0.2350  0.0792
 4900TIP3    H136115   4.614   0.023   1.161  0.3429 -1.5074  0.8035
 4900TIP3    H236116   4.634   0.072   1.303  0.0865  0.3559  0.2140
 4901TIP3   OH236117   6.178   3.608  14.620  0.4611  0.3593 -0.6725
 4901TIP3    H136118   6.217   3.521  14.629 -0.2816 -0.0899 -1.6649
 4901TIP3    H236119   6.149   3.630  14.708 -0.7856 -1.1070 -0.6932
 4902TIP3   OH236120   6.670   0.196  16.310  0.4841  0.0852  0.3037
 4902TIP3    H136121   6.642   0.145  16.234  0.8313  1.6664 -0.8926
 4902TIP3    H236122   6.761   0.217  16.293  0.8537 -0.3693  1.6259
 4903TIP3   OH236123   6.075   1.864  12.255  0.3341 -0.0778  0.0648
 4903TIP3    H136124   6.066   1.862  12.160  1.3545 -2.4855  0.0024
 4903TIP3    H236125   5.987   1.843  12.288  0.3794 -0.9099 -0.3514
 4904TIP3   OH236126   2.962   1.083  12.117  0.0619  0.0192  0.4228
 4904TIP3    H136127   2.980   1.103  12.209 -0.0932  1.1450  0.2087
 4904TIP3    H236128   3.048   1.086  12.075  0.2945 -1.6385  0.7328
 4905TIP3   OH236129   3.929   4.036  12.041 -0.3811 -0.0316 -0.3605
 4905TIP3    H136130   3.870   3.989  12.100 -0.0780  0.8742  0.6772
 4905TIP3    H236131   3.908   4.002  11.954  0.5905 -2.8409  0.4691
 4906TIP3   OH236132   6.136   3.238   3.653  0.3801  0.2221  0.5238
 4906TIP3    H136133   6.065   3.295   3.684 -1.2880 -2.2048  1.3452
 4906TIP3    H236134   6.106   3.208   3.567 -0.5163 -2.2019  1.6141
 4907TIP3   OH236135   2.645   5.498   3.045  0.1811 -0.8431 -0.3577
 4907TIP3    H136136   2.661   5.499   3.139  2.6225 -1.4429 -0.7265
 4907TIP3    H236137   2.554   5.472   3.036 -0.1947 -0.3747  1.8492
 4908TIP3   OH236138   5.839   2.163  17.178  0.3919  0.4704 -0.6270
 4908TIP3    H136139   5.920   2.175  17.227  0.3055  0.5804 -0.5111
 4908TIP3    H236140   5.851   2.215  17.098  0.4513  0.4533 -0.6299
 4909TIP3   OH236141   0.186   0.046  10.310  0.7657  0.1596 -0.3369
 4909TIP3    H136142   0.222   0.133  10.326  0.9377  0.0243  0.0046
 4909TIP3    H236143   0.204   0.030  10.217 -0.3950  1.0091 -0.7244
 4910TIP3   OH236144   5.066   1.035  12.700  0.2646  0.0279  0.1243
 4910TIP3    H136145   5.078   1.130  12.694 -0.0450 -0.0814 -3.1170
 4910TIP3    H236146   5.021   1.012  12.619  1.3070 -3.0312  0.3684
 4911TIP3   OH236147   5.301   2.323  13.421 -0.2925  0.8117  0.1695
 4911TIP3    H136148   5.332   2.327  13.512 -0.0242 -0.0269  0.1239
 4911TIP3    H236149   5.356   2.386  13.374  1.0620 -0.3185  0.1828
 4912TIP3   OH236150   0.739   1.077  16.292 -0.3628 -0.1786  0.2600
 4912TIP3    H136151   0.725   1.132  16.216  2.4313  0.5544  0.2248
 4912TIP3    H236152   0.704   1.128  16.365  0.3307  0.7470 -0.0455
 4913TIP3   OH236153   2.097   4.203   4.855  0.1868  0.2596  0.0861
 4913TIP3    H136154   2.033   4.274   4.855 -0.8824 -0.6943 -0.1321
 4913TIP3    H236155   2.154   4.221   4.780 -0.8939  0.1682 -0.7633
 4914TIP3   OH236156   4.957   0.364  15.260  0.3208  0.4350  0.1418
 4914TIP3    H136157   4.963   0.326  15.172  3.4131  0.2397  0.4075
 4914TIP3    H236158   4.943   0.458  15.244 -0.5207  0.2089 -0.5226
 4915TIP3   OH236159   5.203   3.376  15.172 -0.2639 -0.3937  0.4060
 4915TIP3    H136160   5.161   3.313  15.114  1.0022 -0.8477 -0.0414
 4915TIP3    H236161   5.272   3.416  15.119 -0.0294  0.2288  1.1649
 4916TIP3   OH236162   5.683   6.652   1.447 -0.2977  0.2534  1.0283
 4916TIP3    H136163   5.676   6.717   1.377 -1.1374  0.7496  1.5751
 4916TIP3    H236164   5.656   6.570   1.405  0.3294  0.3215  0.4653
 4917TIP3   OH236165   4.795   0.446   3.829 -0.4947 -0.1180  0.0244
 4917TIP3    H136166   4.763   0.369   3.783 -0.3312 -0.0225 -0.2493
 4917TIP3    H236167   4.873   0.416   3.875 -0.1908 -0.0137 -0.4212
 4918TIP3   OH236168   0.370   0.874   5.138  0.4344  0.3118  0.5660
 4918TIP3    H136169   0.458   0.839   5.135  0.2340 -0.0046 -3.3911
 4918TIP3    H236170   0.381   0.968   5.125  0.1370  0.1349 -1.0299
 4919TIP3   OH236171   4.102   3.177   1.778 -0.1643  0.1327 -0.1809
 4919TIP3    H136172   4.148   3.241   1.832 -0.0570 -1.3742  1.5584
 4919TIP3    H236173   4.172   3.123   1.740 -0.2638  0.8951 -1.4961
 4920TIP3   OH236174   5.856   3.231  14.158  0.2855 -0.6615  0.1500
 4920TIP3    H136175   5.936   3.243  14.209  0.4609 -2.2822  0.2848
 4920TIP3    H236176   5.826   3.144  14.182 -1.1819 -0.3138 -0.3863
 4921TIP3   OH236177   5.849   2.568  16.195 -0.2011  1.0781  0.0170
 4921TIP3    H136178   5.757   2.593  16.190 -0.9309 -1.2787  0.9151
 4921TIP3    H236179   5.871   2.539  16.107 -1.3553 -1.6245  0.5562
 4922TIP3   OH236180   0.878   2.815  12.939 -0.3017 -0.3081  0.2431
 4922TIP3    H136181   0.897   2.831  13.032 -1.5740 -0.0685  0.4799
 4922TIP3    H236182   0.944   2.751  12.912  1.5031  1.2984  0.7045
 4923TIP3   OH236183   5.396   0.222  12.065  0.1078  0.2558  0.2680
 4923TIP3    H136184   5.481   0.211  12.109 -0.0538 -0.7331  0.3381
 4923TIP3    H236185   5.376   0.135  12.030 -0.0804  0.8795 -1.2100
 4924TIP3   OH236186   1.957   6.469   3.196 -0.0765  0.1896 -0.0122
 4924TIP3    H136187   1.993   6.543   3.244 -1.5657  0.3841  0.8286
 4924TIP3    H236188   1.898   6.508   3.131 -1.7052 -0.2872  1.1519
 4925TIP3   OH236189   1.647   2.044   5.037 -0.5028  0.3408 -0.0769
 4925TIP3    H136190   1.737   2.075   5.043 -0.4225 -0.0313  0.7500
 4925TIP3    H236191   1.594   2.123   5.032 -0.1403  0.5650 -0.3195
 4926TIP3   OH236192   3.202   1.366   3.197  0.2863 -0.4721 -0.8251
 4926TIP3    H136193   3.150   1.443   3.223  0.2302 -0.3457 -1.3100
 4926TIP3    H236194   3.165   1.340   3.113 -1.0234 -2.2474  0.2620
 4927TIP3   OH236195   0.585   2.572   1.394 -0.2621 -0.8623 -0.1780
 4927TIP3    H136196   0.668   2.524   1.400  1.3496  1.6107 -1.7863
 4927TIP3    H236197   0.553   2.575   1.484  0.3535 -3.5361  0.2020
 4928TIP3   OH236198   1.408   4.279  16.119  0.4588  0.4809 -0.2073
 4928TIP3    H136199   1.352   4.208  16.086  2.3917 -1.2404  0.0918
 4928TIP3    H236200   1.406   4.345  16.050  0.0007 -0.6486 -1.3038
 4929TIP3   OH236201   0.882   2.304   6.167  0.3168  0.2749 -0.0465
 4929TIP3    H136202   0.918   2.392   6.157  1.8352 -0.5069 -1.8103
 4929TIP3    H236203   0.845   2.303   6.256 -1.9238  3.4226 -0.8875
 4930TIP3   OH236204   1.211   1.189   4.539 -0.1450  0.8524 -0.3161
 4930TIP3    H136205   1.133   1.232   4.575 -0.9876  0.0381 -1.1772
 4930TIP3    H236206   1.245   1.252   4.475 -0.6021  0.8284 -0.5860
 4931TIP3   OH236207   5.592   5.121  12.627  0.1851 -0.2926  0.6102
 4931TIP3    H136208   5.664   5.184  12.636 -0.7334  0.7901  0.6231
 4931TIP3    H236209   5.593   5.096  12.535 -1.7688  2.6588 -0.2906
 4932TIP3   OH236210   0.186   3.043   1.186  0.4265 -0.4223 -0.2060
 4932TIP3    H136211   0.189   3.020   1.093  0.3278 -0.5209 -0.1843
 4932TIP3    H236212   0.138   2.971   1.228  3.2297 -1.9892  0.4172
 4933TIP3   OH236213   5.499   4.090   2.054 -0.2319  0.5728  0.1654
 4933TIP3    H136214   5.545   4.128   1.979 -2.9492  2.2319 -0.7120
 4933TIP3    H236215   5.564   4.032   2.094  1.0935 -0.9109 -3.8303
 4934TIP3   OH236216   0.100   0.316   4.512 -0.0456  0.1755 -0.0102
 4934TIP3    H136217   0.157   0.334   4.587 -3.1192  1.3154  2.1139
 4934TIP3    H236218   0.111   0.393   4.455  2.1865 -0.6324 -0.7454
 4935TIP3   OH236219   4.686   4.703   0.932 -0.4602 -0.1455  0.5112
 4935TIP3    H136220   4.725   4.623   0.896 -1.1966  0.3586 -1.5108
 4935TIP3    H236221   4.750   4.735   0.995  0.1482 -1.9592  0.8522
 4936TIP3   OH236222   2.273   1.542  14.339 -0.6017 -0.5597 -0.8115
 4936TIP3    H136223   2.273   1.607  14.409 -2.6060 -0.7585 -0.6066
 4936TIP3    H236224   2.307   1.463  14.379  1.1821  0.1445 -0.8804
 4937TIP3   OH236225   1.779   1.325  16.895 -0.8287 -0.2314  0.9675
 4937TIP3    H136226   1.766   1.417  16.919  1.8477  0.3055  0.5489
 4937TIP3    H236227   1.738   1.316  16.809 -0.2190  0.8491  0.5524
 4938TIP3   OH236228   1.867   2.950   0.211  0.4627 -0.3156  0.1436
 4938TIP3    H136229   1.892   2.880   0.270  2.2803  1.0275  0.9881
 4938TIP3    H236230   1.794   2.994   0.255 -0.7620 -1.7197 -0.4461
 4939TIP3   OH236231   5.307   0.701  12.796 -0.1570  0.3091 -0.4427
 4939TIP3    H136232   5.277   0.681  12.707 -0.2902 -0.1291 -0.2998
 4939TIP3    H236233   5.259   0.640  12.852 -0.4791  0.9502 -0.0149
 4940TIP3   OH236234   1.468   5.139  13.959 -0.0256 -0.1616 -0.0674
 4940TIP3    H136235   1.405   5.081  14.001 -1.3097 -0.2421 -2.0137
 4940TIP3    H236236   1.516   5.179  14.031 -0.4780 -2.1129  1.3734
 4941TIP3   OH236237   0.381   2.809  16.060 -0.4685  0.7050 -0.3346
 4941TIP3    H136238   0.437   2.885  16.046  0.6216 -0.0289 -0.0539
 4941TIP3    H236239   0.355   2.781  15.972 -1.0354  1.5131 -0.4277
 4942TIP3   OH236240   3.491   5.286   3.513  0.0481 -0.5798 -0.4352
 4942TIP3    H136241   3.400   5.301   3.488 -1.0715 -3.0073  1.8778
 4942TIP3    H236242   3.506   5.344   3.588  0.6461  0.3128 -1.2318
 4943TIP3   OH236243   3.110   4.409   0.025 -0.1844 -0.2994  0.5390
 4943TIP3    H136244   3.112   4.404   0.120  1.9693  1.9058  0.6543
 4943TIP3    H236245   3.133   4.500   0.005  1.1950 -1.1667 -2.1391
 4944TIP3   OH236246   5.837   6.360  16.879 -0.0367  0.4758 -0.1859
 4944TIP3    H136247   5.822   6.402  16.964  3.8340  1.5644  0.0309
 4944TIP3    H236248   5.914   6.305  16.892 -0.3065 -0.5351 -2.6003
 4945TIP3   OH236249   5.798   1.759   0.677 -0.1178  0.1572  0.2865
 4945TIP3    H136250   5.821   1.737   0.586  0.2770  2.2186 -0.1350
 4945TIP3    H236251   5.764   1.677   0.713 -2.3058 -0.1934 -2.3645
 4946TIP3   OH236252   6.057   2.721   3.668  0.3124 -0.6130 -0.4145
 4946TIP3    H136253   6.108   2.764   3.737  0.6993  0.3908 -1.3016
 4946TIP3    H236254   6.064   2.781   3.593 -2.7006 -0.1428 -0.3827
 4947TIP3   OH236255   0.931   3.976  13.739 -0.6021  0.1844  0.5792
 4947TIP3    H136256   0.985   4.038  13.691  1.0908 -2.5280 -1.1425
 4947TIP3    H236257   0.861   4.029  13.777  1.0485  3.1805 -0.4307
 4948TIP3   OH236258   6.462   0.345   4.820  0.1385 -0.3999  0.2523
 4948TIP3    H136259   6.373   0.341   4.855 -0.1168  0.8668 -0.2292
 4948TIP3    H236260   6.502   0.262   4.846 -1.2102 -1.0139  0.3801
 4949TIP3   OH236261   6.700   6.296  12.856 -0.1458 -0.5004 -0.0111
 4949TIP3    H136262   6.774   6.239  12.879  0.5592  0.6438  0.6294
 4949TIP3    H236263   6.625   6.259  12.902  0.8405  0.6080  2.5665
 4950TIP3   OH236264   3.884   6.528   1.897  0.4847  0.1510 -0.2769
 4950TIP3    H136265   3.959   6.469   1.910 -0.0697 -0.1918  1.3907
 4950TIP3    H236266   3.845   6.498   1.814 -0.5646 -2.7295  1.1719
 4951TIP3   OH236267   5.104   3.628  14.947 -0.4233  0.2025  0.6976
 4951TIP3    H136268   5.054   3.637  14.866 -1.0752  0.9081  1.1758
 4951TIP3    H236269   5.193   3.656  14.924 -0.0896 -1.5680 -0.2876
 4952TIP3   OH236270   4.869   5.949   3.316 -0.0007 -0.2266 -0.2998
 4952TIP3    H136271   4.812   5.930   3.391 -0.1179 -0.5103 -0.4611
 4952TIP3    H236272   4.832   5.898   3.244  0.5546 -0.5559 -0.3577
 4953TIP3   OH236273   1.781   3.413  16.513 -0.3153  0.0136 -0.2768
 4953TIP3    H136274   1.845   3.433  16.581  0.5153  0.4640 -1.1825
 4953TIP3    H236275   1.733   3.495  16.500  1.8885  0.9663 -2.7163
 4954TIP3   OH236276   3.572   5.505   4.507 -0.5804 -0.0536  0.0857
 4954TIP3    H136277   3.559   5.599   4.519  1.9538  0.4537 -0.8368
 4954TIP3    H236278   3.541   5.488   4.418 -1.8471 -0.2800  0.5564
 4955TIP3   OH236279   0.473   5.208   4.779  0.3101 -0.0806  0.3131
 4955TIP3    H136280   0.539   5.140   4.791  1.2708  0.9077  0.7119
 4955TIP3    H236281   0.520   5.280   4.738 -0.5646  0.5709  0.4338
 4956TIP3   OH236282   0.583   3.234   3.190 -0.3394 -0.1107 -0.5875
 4956TIP3    H136283   0.649   3.218   3.122  2.2136  0.3990  1.7128
 4956TIP3    H236284   0.557   3.146   3.218 -0.9634 -0.3179 -1.7668
 4957TIP3   OH236285   2.405   0.492   0.167  0.1051  0.1575 -1.0550
 4957TIP3    H136286   2.459   0.553   0.116 -1.8780  0.6889 -2.5787
 4957TIP3    H236287   2.330   0.544   0.195  0.1140 -0.7027  0.6387
 4958TIP3   OH236288   6.361   3.089   2.618  0.0430 -0.0126 -0.0286
 4958TIP3    H136289   6.355   3.084   2.523  0.6431  0.5107 -0.0927
 4958TIP3    H236290   6.409   3.010   2.643 -0.1524 -0.1718 -0.1558
 4959TIP3   OH236291   6.513   2.741  15.098 -0.0408  0.1534  0.8669
 4959TIP3    H136292   6.475   2.681  15.035  0.1844 -2.2498  2.9728
 4959TIP3    H236293   6.512   2.694  15.182 -0.2438  3.2157  2.6725
 4960TIP3   OH236294   1.467   2.188  16.588 -0.4207  0.1087 -0.2832
 4960TIP3    H136295   1.563   2.180  16.593 -0.0709  1.9019 -3.0566
 4960TIP3    H236296   1.443   2.238  16.666  1.0797  0.9398 -0.3362
 4961TIP3   OH236297   0.504   1.489   3.073  0.0121 -0.2419 -0.0842
 4961TIP3    H136298   0.447   1.542   3.128 -0.5761 -1.4401  0.4849
 4961TIP3    H236299   0.512   1.406   3.120  2.1960 -0.1155 -0.1597
 4962TIP3   OH236300   3.545   5.587  12.722 -0.1802 -0.4594 -0.9826
 4962TIP3    H136301   3.572   5.496  12.712 -1.9509 -1.3741  1.9940
 4962TIP3    H236302   3.478   5.585  12.790  1.3751  3.3884  0.8033
 4963TIP3   OH236303   0.015   0.873  10.960  0.4705 -1.0252  0.2661
 4963TIP3    H136304   0.104   0.848  10.983  0.3990 -0.2298  1.4600
 4963TIP3    H236305  -0.032   0.789  10.950  1.3502 -1.4419 -0.4145
 4964TIP3   OH236306   3.799   5.708  12.001 -0.9145  0.0654  0.6681
 4964TIP3    H136307   3.846   5.779  12.045 -0.0401  0.0770 -0.2665
 4964TIP3    H236308   3.860   5.676  11.935 -1.5908 -1.0616  0.5762
 4965TIP3   OH236309   2.375   5.682   2.480  0.3175 -0.0820  0.0057
 4965TIP3    H136310   2.452   5.659   2.533  2.7288 -1.1563 -3.7355
 4965TIP3    H236311   2.411   5.730   2.405 -2.9057  1.0849 -0.8696
 4966TIP3   OH236312   1.829   6.775  14.724  0.6042 -0.3018  0.6882
 4966TIP3    H136313   1.812   6.868  14.738  0.4788 -0.4164  1.3236
 4966TIP3    H236314   1.879   6.748  14.801 -0.4722 -1.0518  1.1406
 4967TIP3   OH236315   3.904   3.640   4.157 -0.0425 -0.0030  0.0640
 4967TIP3    H136316   3.853   3.584   4.098 -0.5265 -0.1945  0.6665
 4967TIP3    H236317   3.893   3.601   4.243  1.5034 -0.3129  0.1313
 4968TIP3   OH236318   3.527   2.841  11.537 -0.2606 -0.4641 -0.3261
 4968TIP3    H136319   3.486   2.789  11.468 -3.7389 -1.5336  2.3497
 4968TIP3    H236320   3.484   2.927  11.530 -0.1446 -0.3715  0.1031
 4969TIP3   OH236321   1.989   6.024   0.510 -0.2591  0.3390  0.0013
 4969TIP3    H136322   1.909   6.040   0.460  1.0559  0.1980 -2.2170
 4969TIP3    H236323   1.999   5.928   0.509 -0.1426  0.3465  0.3984
 4970TIP3   OH236324   4.555   4.882  12.730  0.0339  0.1129  0.6706
 4970TIP3    H136325   4.593   4.852  12.812  1.0539 -1.0391 -0.2008
 4970TIP3    H236326   4.491   4.815  12.707 -0.1059  0.3252  0.4288
 4971TIP3   OH236327   0.258   3.518  11.993  0.4695  0.2770  1.1866
 4971TIP3    H136328   0.305   3.464  12.057 -1.4925 -2.3466  0.4953
 4971TIP3    H236329   0.170   3.528  12.029  0.6232  2.5625  1.0081
 4972TIP3   OH236330   0.662   3.184  15.221 -0.1446 -0.3244  0.0157
 4972TIP3    H136331   0.742   3.132  15.231  0.7835  1.1051  0.2350
 4972TIP3    H236332   0.634   3.202  15.310 -0.9200 -1.1095 -0.0609
 4973TIP3   OH236333   6.081   0.689  15.528 -0.1398 -0.9440 -0.2748
 4973TIP3    H136334   6.160   0.696  15.581  0.1025 -0.6272 -0.6726
 4973TIP3    H236335   6.107   0.722  15.442 -0.3124 -2.1928 -0.8133
 4974TIP3   OH236336   4.106   4.164  14.201 -0.3379 -0.0223  0.2005
 4974TIP3    H136337   4.019   4.183  14.165 -0.6392 -0.7497  0.5318
 4974TIP3    H236338   4.103   4.197  14.290  0.0580  0.8310 -0.0975
 4975TIP3   OH236339   3.866   3.888   4.327  0.0164  0.4785  0.2902
 4975TIP3    H136340   3.855   3.869   4.420  1.6920  1.2846  0.6827
 4975TIP3    H236341   3.832   3.976   4.316  2.0934  1.3657  0.6766
 4976TIP3   OH236342   3.487   0.837   2.549 -0.2387  0.6229  0.3087
 4976TIP3    H136343   3.414   0.793   2.507  0.7245  0.7314 -1.5372
 4976TIP3    H236344   3.541   0.767   2.586  1.0486  0.2260 -2.2179
 4977TIP3   OH236345   5.197   3.538  11.586 -0.3397 -0.2335  0.6874
 4977TIP3    H136346   5.228   3.496  11.667  0.3924  0.3476  0.7152
 4977TIP3    H236347   5.257   3.507  11.518 -1.4843 -1.4161  0.1867
 4978TIP3   OH236348   2.856   1.051   4.635 -0.4032  0.1153  0.5171
 4978TIP3    H136349   2.895   1.060   4.548  1.0015 -2.5406  0.8270
 4978TIP3    H236350   2.812   0.966   4.634  2.3097 -1.4265  3.3548
 4979TIP3   OH236351   1.221   5.097  14.764  0.0141  0.1949 -0.1691
 4979TIP3    H136352   1.256   5.050  14.839 -2.0044 -0.7012  0.2439
 4979TIP3    H236353   1.206   5.029  14.698  2.3458  1.0478 -1.6572
 4980TIP3   OH236354   4.655   4.704  14.354  0.5119  0.1033 -0.0310
 4980TIP3    H136355   4.653   4.609  14.367  0.3906  0.0843 -0.1750
 4980TIP3    H236356   4.623   4.741  14.436  1.9712  0.0808  0.5605
 4981TIP3   OH236357   0.466   2.869   0.332  0.7119 -0.0520  0.0870
 4981TIP3    H136358   0.449   2.783   0.293  0.2693  0.2373 -0.3672
 4981TIP3    H236359   0.494   2.923   0.258 -0.5183  0.6029  0.0948
 4982TIP3   OH236360   2.191   5.417  11.023 -0.1346  0.3905 -0.0326
 4982TIP3    H136361   2.103   5.452  11.021 -0.0581  0.5653 -0.3589
 4982TIP3    H236362   2.191   5.348  10.957 -0.9073 -1.7177  2.0826
 4983TIP3   OH236363   1.765   5.324   4.173 -0.4864  0.3005  0.0828
 4983TIP3    H136364   1.747   5.282   4.257 -0.8564 -1.8306 -1.0194
 4983TIP3    H236365   1.860   5.337   4.173 -0.2416 -1.3117  0.1363
 4984TIP3   OH236366   3.103   5.159   2.074 -0.2636 -0.4215 -0.4674
 4984TIP3    H136367   3.039   5.225   2.101 -1.2698 -1.7115  0.3013
 4984TIP3    H236368   3.053   5.094   2.025  1.0397  0.3266 -2.9196
 4985TIP3   OH236369   6.267   2.882   6.395  0.3413 -0.1468  0.5730
 4985TIP3    H136370   6.306   2.811   6.446  1.6760 -1.2158 -1.8380
 4985TIP3    H236371   6.313   2.961   6.425  0.5606 -0.6432  1.5630
 4986TIP3   OH236372   5.304   0.334   5.339 -0.3701 -0.6391 -0.2301
 4986TIP3    H136373   5.373   0.271   5.318 -0.6363 -1.1967  0.5518
 4986TIP3    H236374   5.314   0.403   5.273 -0.9880 -2.1811 -1.9845
 4987TIP3   OH236375   1.085   0.048  15.798  0.0109  0.4024 -0.0339
 4987TIP3    H136376   1.082   0.011  15.710 -0.8851  0.1091  0.1125
 4987TIP3    H236377   1.178   0.047  15.821  0.3099  0.9604 -1.1720
 4988TIP3   OH236378   2.270   3.863  15.545 -0.6408  0.2213 -0.0220
 4988TIP3    H136379   2.235   3.774  15.547 -1.3808  0.5245  2.6768
 4988TIP3    H236380   2.192   3.919  15.550 -0.0171  0.9784  1.2156
 4989TIP3   OH236381   3.639   4.586  16.953  0.1923 -0.2995  0.3628
 4989TIP3    H136382   3.636   4.676  16.920 -1.7257  0.1155  1.6494
 4989TIP3    H236383   3.564   4.543  16.911 -1.1099 -0.2868  2.6165
 4990TIP3   OH236384   6.518   4.409  16.051  0.2614  0.1685  0.0162
 4990TIP3    H136385   6.466   4.467  16.107  0.2322  0.0913  0.0701
 4990TIP3    H236386   6.551   4.466  15.981 -1.3992 -0.1462 -1.0464
 4991TIP3   OH236387   6.222   3.542  16.448 -0.0260 -0.2706 -0.3402
 4991TIP3    H136388   6.205   3.482  16.375  2.7432 -0.4251 -0.9237
 4991TIP3    H236389   6.188   3.496  16.525 -1.1162 -1.0032 -1.2364
 4992TIP3   OH236390   2.694   4.323   0.570  0.0252 -0.0036 -0.1620
 4992TIP3    H136391   2.628   4.254   0.572  1.8512 -1.8156  0.1003
 4992TIP3    H236392   2.722   4.332   0.661 -0.8458  1.7631 -0.0528
 4993TIP3   OH236393   3.241   2.676  12.424  0.4755 -0.5229  0.5356
 4993TIP3    H136394   3.245   2.761  12.381 -0.2678  0.1344  1.7298
 4993TIP3    H236395   3.163   2.634  12.385  0.4563 -0.3897  0.4301
 4994TIP3   OH236396   3.564   3.946   3.260  0.0391  0.6403 -0.4662
 4994TIP3    H136397   3.629   3.928   3.329 -1.6641  1.8354  1.5209
 4994TIP3    H236398   3.497   3.879   3.274 -0.1764  0.7175 -1.1515
 4995TIP3   OH236399   1.013   4.727   4.226 -0.3042 -0.4230 -0.0460
 4995TIP3    H136400   1.037   4.797   4.165 -0.4239  0.2336  0.6465
 4995TIP3    H236401   0.992   4.652   4.170  0.7519 -0.1974 -0.7602
 4996TIP3   OH236402   1.238   2.420   2.461  0.3899  1.0252  0.0675
 4996TIP3    H136403   1.320   2.379   2.488  0.7578  1.8134  0.1742
 4996TIP3    H236404   1.216   2.377   2.378  0.9197  0.8254  0.0274
 4997TIP3   OH236405   3.940   5.705  14.460 -0.1480 -0.4525 -0.0608
 4997TIP3    H136406   3.908   5.711  14.370 -2.2622 -2.6227  0.4832
 4997TIP3    H236407   4.002   5.632  14.458  1.2813  0.7332 -0.1236
 4998TIP3   OH236408   5.457   4.826   2.396 -0.1197  0.6888 -0.0805
 4998TIP3    H136409   5.383   4.847   2.339 -0.5704  0.5191  0.4414
 4998TIP3    H236410   5.456   4.731   2.402 -1.7283  0.8270  2.3914
 4999TIP3   OH236411   4.140   0.532   4.448  0.6175 -0.2847 -0.2281
 4999TIP3    H136412   4.216   0.485   4.414  0.7568 -0.0553 -0.2283
 4999TIP3    H236413   4.065   0.477   4.423  0.7397 -0.2277 -0.7149
 5000TIP3   OH236414   0.181   1.581  15.565 -0.1440 -0.2722 -0.1341
 5000TIP3    H136415   0.116   1.513  15.585  0.5343 -1.2800 -1.2686
 5000TIP3    H236416   0.195   1.573  15.470  0.2123  1.2274 -0.2162
 5001TIP3   OH236417   0.975   2.481   0.901 -0.1489 -0.8913  0.7504
 5001TIP3    H136418   0.952   2.456   0.990  0.0518 -2.1782  0.4437
 5001TIP3    H236419   1.032   2.411   0.870  1.4824  0.5939  0.3308
 5002TIP3   OH236420   5.254   6.473   4.574 -0.1626  0.3886  0.3657
 5002TIP3    H136421   5.164   6.491   4.548  0.4434  0.0969 -2.0539
 5002TIP3    H236422   5.303   6.552   4.550  0.6687 -0.4495 -0.7605
 5003TIP3   OH236423   5.679   3.120   1.287 -0.0719  0.3561  1.0161
 5003TIP3    H136424   5.588   3.090   1.293  0.2333 -0.7981 -0.2360
 5003TIP3    H236425   5.729   3.053   1.332  0.3817 -0.0059 -0.0264
 5004TIP3   OH236426   0.649   1.191   6.012 -0.3028 -0.0722  0.0590
 5004TIP3    H136427   0.680   1.101   6.026 -1.9269 -0.4755  1.2576
 5004TIP3    H236428   0.642   1.228   6.100  0.0242  1.1145 -0.4037
 5005TIP3   OH236429   3.748   1.266  15.853  0.1845 -0.8503  0.3198
 5005TIP3    H136430   3.706   1.342  15.893  3.1513  0.0379  1.8344
 5005TIP3    H236431   3.791   1.221  15.925 -1.3552 -3.9347 -0.5784
 5006TIP3   OH236432   6.070   5.338   3.798 -0.1452  0.1449  0.4791
 5006TIP3    H136433   5.977   5.313   3.800  0.1164 -1.0033 -0.8800
 5006TIP3    H236434   6.108   5.282   3.730  0.9317  2.7123 -1.1203
 5007TIP3   OH236435   3.511   1.700   1.998  0.2470 -0.3993 -0.5287
 5007TIP3    H136436   3.479   1.786   1.973 -0.6349 -0.9084 -1.1897
 5007TIP3    H236437   3.432   1.645   2.002  0.8151 -1.2117 -0.3051
 5008TIP3   OH236438   1.990   6.711   5.037 -0.1192 -0.6911  0.2231
 5008TIP3    H136439   2.009   6.750   4.952 -0.8315  1.1598  0.8936
 5008TIP3    H236440   1.894   6.711   5.044 -0.0504  0.0647  1.4136
 5009TIP3   OH236441   4.132   3.149  17.081  0.2155  0.4721  0.0820
 5009TIP3    H136442   4.044   3.152  17.121  0.5627 -0.0045  0.8941
 5009TIP3    H236443   4.133   3.223  17.020 -0.6774  0.6119  0.2302
 5010TIP3   OH236444   5.736   6.194   2.301  0.3737 -0.1573  0.1894
 5010TIP3    H136445   5.831   6.197   2.308  0.6256  1.9073 -2.7188
 5010TIP3    H236446   5.706   6.274   2.346  0.2765  0.6725 -1.2994
 5011TIP3   OH236447   1.967   3.327  15.247  0.1479 -0.1779  0.3803
 5011TIP3    H136448   2.013   3.267  15.188 -1.5491 -0.0309 -1.1638
 5011TIP3    H236449   1.879   3.291  15.253 -0.6250  1.6260  0.1997
 5012TIP3   OH236450   3.603   4.829   1.966  0.0901  0.1433  0.2585
 5012TIP3    H136451   3.696   4.851   1.959  0.2095 -0.4082  0.0843
 5012TIP3    H236452   3.569   4.847   1.878  0.1578 -0.2290  0.1559
 5013TIP3   OH236453   0.449   6.409  12.434 -0.1955 -0.4575  0.8969
 5013TIP3    H136454   0.381   6.448  12.378 -0.3284 -0.8478  0.7880
 5013TIP3    H236455   0.529   6.456  12.409 -0.4406  0.0654  1.0902
 5014TIP3   OH236456   5.045   5.612   1.108  0.2316 -0.2352  0.8095
 5014TIP3    H136457   5.054   5.521   1.078  2.5495  0.7615 -1.6898
 5014TIP3    H236458   5.115   5.624   1.172 -0.5436 -0.3951  1.7028
 5015TIP3   OH236459   1.937   5.528  12.841 -0.0073  0.5042  0.3655
 5015TIP3    H136460   1.987   5.460  12.796 -0.6236  0.0616  0.3433
 5015TIP3    H236461   1.869   5.552  12.779 -0.8575 -0.1061  1.0520
 5016TIP3   OH236462   6.472   4.670  12.358 -0.4917 -0.2127 -0.1018
 5016TIP3    H136463   6.458   4.660  12.264  0.3939  2.3669 -0.5475
 5016TIP3    H236464   6.543   4.610  12.378  0.5638  0.5635 -1.4472
 5017TIP3   OH236465   6.074   0.839   5.698 -0.3987  0.1281  0.2957
 5017TIP3    H136466   5.996   0.802   5.656  0.1484 -0.5035 -0.1867
 5017TIP3    H236467   6.140   0.841   5.628  0.1797  0.1312  0.8408
 5018TIP3   OH236468   5.622   6.380   5.243 -0.5712  0.0875 -0.5536
 5018TIP3    H136469   5.660   6.342   5.163  0.0115  0.5912 -0.5222
 5018TIP3    H236470   5.674   6.342   5.314  0.1383  1.0871 -0.5352
 5019TIP3   OH236471   0.734   2.350  11.148 -0.4559  0.2104 -0.3360
 5019TIP3    H136472   0.828   2.362  11.146 -0.3027 -0.7227  0.8986
 5019TIP3    H236473   0.698   2.438  11.161  0.2563  0.4805 -0.1872
 5020TIP3   OH236474   6.538   5.386  15.976  0.6527  0.0639  0.5173
 5020TIP3    H136475   6.562   5.298  16.005  1.2729 -0.4950 -1.6172
 5020TIP3    H236476   6.475   5.416  16.041 -1.0737 -2.7379  0.2357
 5021TIP3   OH236477   4.533   4.892  14.849  0.2707 -0.4580  0.1956
 5021TIP3    H136478   4.551   4.985  14.861  0.1478 -0.6254  1.7764
 5021TIP3    H236479   4.515   4.859  14.937 -0.3025 -1.8494 -0.4220
 5022TIP3   OH236480   2.990   4.861  14.940 -0.3419 -0.1211 -0.4994
 5022TIP3    H136481   2.974   4.947  14.978 -2.4615 -0.1913 -1.1525
 5022TIP3    H236482   2.970   4.872  14.847  0.4879 -1.0371 -0.7906
 5023TIP3   OH236483   6.783   0.549  11.181  0.2989 -0.0152  0.4164
 5023TIP3    H136484   6.833   0.468  11.189 -0.7911 -0.7403 -0.0834
 5023TIP3    H236485   6.775   0.564  11.087 -1.2711 -0.4443  0.4709
 5024TIP3   OH236486   1.902   4.019   4.004 -0.3631  0.2513 -0.1422
 5024TIP3    H136487   1.809   4.030   4.023 -0.5136 -0.0697 -0.6915
 5024TIP3    H236488   1.945   4.029   4.089 -1.0484 -1.3375  0.4183
 5025TIP3   OH236489   3.916   0.264   3.103 -0.0519  0.7032  0.4350
 5025TIP3    H136490   3.876   0.228   3.023 -0.5489  0.8994  0.5933
 5025TIP3    H236491   3.860   0.338   3.126  0.2356  0.7975  0.8279
 5026TIP3   OH236492   0.029   0.575   0.505 -0.6237 -0.3652 -0.0892
 5026TIP3    H136493   0.047   0.667   0.525 -0.9615  0.2007 -2.2198
 5026TIP3    H236494  -0.029   0.546   0.575 -1.1445  1.2799  0.1860
 5027TIP3   OH236495   0.292   1.971   2.658  0.5943  0.3393 -0.2337
 5027TIP3    H136496   0.257   1.960   2.570  0.7178 -1.1609 -0.1163
 5027TIP3    H236497   0.387   1.977   2.646  0.4810  1.8692 -0.3463
 5028TIP3   OH236498   5.715   1.743   0.219  0.3240  0.5638  0.6232
 5028TIP3    H136499   5.778   1.742   0.147  0.6760  1.7588  0.9046
 5028TIP3    H236500   5.682   1.833   0.221 -0.7017  0.1927  1.0860
 5029TIP3   OH236501   6.475   3.367   4.543 -0.8451 -0.3818 -0.0328
 5029TIP3    H136502   6.503   3.326   4.625 -1.7419  0.5014  0.7295
 5029TIP3    H236503   6.422   3.442   4.570 -0.5086  0.3800 -1.4190
 5030TIP3   OH236504   0.152   4.288  11.647 -0.2680 -0.3425  0.0776
 5030TIP3    H136505   0.082   4.333  11.600 -2.2071 -0.9928  2.2496
 5030TIP3    H236506   0.169   4.345  11.723  0.8922 -0.6879  0.0884
 5031TIP3   OH236507   0.699   2.348   4.084  0.3797  0.5211  0.0539
 5031TIP3    H136508   0.616   2.334   4.039  0.1160  0.9096  0.4176
 5031TIP3    H236509   0.752   2.398   4.022 -0.1705  1.5108  0.3869
 5032TIP3   OH236510   6.763   5.765  17.175  0.1094 -0.2939 -0.1771
 5032TIP3    H136511   6.728   5.824  17.109  2.0399  0.1787 -0.7988
 5032TIP3    H236512   6.740   5.677  17.145 -0.4170  0.0062 -0.6358
 5033TIP3   OH236513   2.761   3.846   0.903  0.3692  0.1166  0.2715
 5033TIP3    H136514   2.819   3.901   0.851 -0.0316 -0.5277 -0.8739
 5033TIP3    H236515   2.819   3.803   0.966  0.8073  1.1674  0.5969
 5034TIP3   OH236516   1.375   1.315   3.641  0.4710 -0.0917  0.1990
 5034TIP3    H136517   1.392   1.307   3.547  3.1853 -1.7914  0.7811
 5034TIP3    H236518   1.282   1.338   3.646  0.2199 -0.0989 -2.8782
 5035TIP3   OH236519   0.248   3.230  16.572  0.3799  0.5823  0.5537
 5035TIP3    H136520   0.168   3.239  16.624  0.7857 -0.1911  1.3324
 5035TIP3    H236521   0.305   3.301  16.602 -0.4472  1.8421 -0.8181
 5036TIP3   OH236522   2.586   2.491  11.741  0.1433  0.0724 -0.4290
 5036TIP3    H136523   2.585   2.411  11.794 -0.6544  1.2329  1.3435
 5036TIP3    H236524   2.667   2.535  11.766 -0.2643  0.6542 -0.1365
 5037TIP3   OH236525   5.286   2.206   0.873  0.2175  0.1579  0.3980
 5037TIP3    H136526   5.318   2.257   0.799  0.7334  2.2575  2.0359
 5037TIP3    H236527   5.264   2.270   0.940 -2.0790 -1.5938  1.3947
 5038TIP3   OH236528   5.848   6.766  15.561 -0.2273 -0.5737 -0.1896
 5038TIP3    H136529   5.806   6.808  15.486 -0.3234 -0.4249 -0.0530
 5038TIP3    H236530   5.796   6.688  15.578 -1.2717  0.3174  0.8237
 5039TIP3   OH236531   4.879   4.282   1.286  0.6809 -0.4691  0.3482
 5039TIP3    H136532   4.923   4.368   1.286 -2.3940  1.1728 -0.9777
 5039TIP3    H236533   4.868   4.260   1.378 -0.4020  1.6146  0.7395
 5040TIP3   OH236534   4.649   4.487   1.196 -0.1532  0.0727 -0.1789
 5040TIP3    H136535   4.614   4.398   1.207  1.0061 -0.3209  0.4307
 5040TIP3    H236536   4.576   4.537   1.161 -1.1229 -0.8932  0.4190
 5041TIP3   OH236537   5.197   1.826  11.783  0.6932 -0.3633 -0.3107
 5041TIP3    H136538   5.233   1.806  11.696  0.9578 -0.2868 -0.2199
 5041TIP3    H236539   5.129   1.890  11.767  2.0741  1.1448 -0.2533
 5042TIP3   OH236540   0.606   2.493   5.271 -0.0381 -0.5684  0.4173
 5042TIP3    H136541   0.527   2.461   5.227  0.3793 -1.2574  0.1526
 5042TIP3    H236542   0.574   2.537   5.349 -0.7763  0.4315 -0.4389
 5043TIP3   OH236543   2.380   5.226  15.156  0.4823  0.5925 -0.9165
 5043TIP3    H136544   2.338   5.140  15.158  0.3725  0.6682  0.5771
 5043TIP3    H236545   2.441   5.225  15.229  1.5708  1.2519 -1.8004
 5044TIP3   OH236546   3.549   2.087  10.374  0.4090 -0.1018 -0.3211
 5044TIP3    H136547   3.472   2.068  10.429  0.5211  0.2569 -0.0373
 5044TIP3    H236548   3.575   2.001  10.340 -0.1203 -0.2260 -0.4224
 5045TIP3   OH236549   0.250   5.699  13.996  0.3032  0.2521  0.2441
 5045TIP3    H136550   0.223   5.688  14.087  0.9598 -0.0702  0.4078
 5045TIP3    H236551   0.330   5.753  14.002  1.2420 -1.0876 -0.0116
 5046TIP3   OH236552   1.957   1.953  16.477 -0.5703  0.4688  0.6927
 5046TIP3    H136553   1.980   1.892  16.408 -1.7413  1.6866 -0.8077
 5046TIP3    H236554   2.020   1.936  16.547  0.9894 -0.3834 -0.9044
 5047TIP3   OH236555   5.121   4.308   2.447 -0.0724  0.2047  0.7035
 5047TIP3    H136556   5.210   4.301   2.413 -0.7517 -0.0610 -1.0569
 5047TIP3    H236557   5.074   4.234   2.408 -0.8909 -0.0790  2.1919
 5048TIP3   OH236558   2.203   1.142  15.624 -0.3420  0.1068 -0.4617
 5048TIP3    H136559   2.217   1.174  15.713 -1.0226  1.3677 -0.7954
 5048TIP3    H236560   2.290   1.138  15.585 -0.0417 -0.4633  0.2635
 5049TIP3   OH236561   6.329   3.028   0.667  0.2914 -0.0043  0.1639
 5049TIP3    H136562   6.414   3.007   0.708 -0.9485 -1.6502  1.9925
 5049TIP3    H236563   6.319   2.963   0.598  1.5002  1.5612 -1.5097
 5050TIP3   OH236564   6.315   5.703  12.383 -0.0823 -0.1889  0.1345
 5050TIP3    H136565   6.374   5.769  12.418  3.2426 -1.6654 -2.3689
 5050TIP3    H236566   6.316   5.717  12.289 -0.9819 -2.4153 -0.2475
 5051TIP3   OH236567   1.597   0.927  12.975 -0.0985 -0.9183  0.2776
 5051TIP3    H136568   1.644   0.974  13.043  0.4288 -0.3761 -0.4552
 5051TIP3    H236569   1.578   0.841  13.013 -0.5478 -0.3286  1.4091
 5052TIP3   OH236570   0.417   0.976  14.860  0.0243  0.4270 -0.1131
 5052TIP3    H136571   0.458   0.900  14.819 -0.3806  0.8400 -1.2927
 5052TIP3    H236572   0.358   0.940  14.926  0.3632 -0.2506 -0.1792
 5053TIP3   OH236573   4.947   5.282   3.702 -0.3743 -0.0244  0.4001
 5053TIP3    H136574   4.872   5.253   3.754 -0.6007 -2.0943 -0.9814
 5053TIP3    H236575   4.935   5.238   3.617  2.2164 -0.1332  0.0463
 5054TIP3   OH236576   4.116   3.613  15.151 -0.0757 -0.8693  0.0081
 5054TIP3    H136577   4.142   3.606  15.059  0.7782  1.7067  0.0000
 5054TIP3    H236578   4.197   3.599  15.200 -0.6060 -2.6375  0.3980
 5055TIP3   OH236579   6.372   1.872   6.050  0.0909  0.0877 -0.9297
 5055TIP3    H136580   6.283   1.892   6.078  0.1829  0.8965 -1.2064
 5055TIP3    H236581   6.368   1.872   5.955 -0.0903 -2.0752 -0.9359
 5056TIP3   OH236582   2.896   6.772  11.368 -1.1725  0.0330 -0.8935
 5056TIP3    H136583   2.948   6.720  11.306 -1.7794  0.7351 -2.0166
 5056TIP3    H236584   2.805   6.753  11.343 -1.4013  1.5654 -1.2509
 5057TIP3   OH236585   1.183   5.314  14.340 -0.1218  0.3937  0.7769
 5057TIP3    H136586   1.188   5.409  14.328  0.1333  0.2561 -0.2541
 5057TIP3    H236587   1.092   5.297  14.361 -0.3378  0.7839  0.1740
 5058TIP3   OH236588   0.111   1.553   4.889 -0.0749  0.7791  0.3228
 5058TIP3    H136589   0.180   1.595   4.837 -0.2250 -0.0021 -0.5146
 5058TIP3    H236590   0.158   1.492   4.946 -0.2856 -1.7936 -2.2081
 5059TIP3   OH236591   3.275   6.687   1.878  0.2295  0.0426  0.0036
 5059TIP3    H136592   3.192   6.726   1.905  0.1820 -0.6623  0.9403
 5059TIP3    H236593   3.335   6.760   1.868 -0.5572  0.5724 -0.8589
 5060TIP3   OH236594   3.961   6.595   4.226 -0.4329 -0.4828 -0.3859
 5060TIP3    H136595   3.866   6.585   4.219 -0.3460 -2.5740  0.9291
 5060TIP3    H236596   3.974   6.635   4.312 -0.1124 -0.4069 -0.4708
 5061TIP3   OH236597   3.015   2.763  16.175 -0.1045  0.7479 -0.3681
 5061TIP3    H136598   2.926   2.797  16.186 -0.4174  0.3668 -1.6454
 5061TIP3    H236599   3.017   2.684  16.229 -0.9660  0.0223 -1.3755
 5062TIP3   OH236600   2.556   6.114   3.444  0.4251 -0.4492  1.0549
 5062TIP3    H136601   2.537   6.121   3.537 -2.0378 -0.0031  0.5406
 5062TIP3    H236602   2.532   6.199   3.407 -1.5840 -1.6316 -0.4619
 5063TIP3   OH236603   2.532   1.995   5.411 -0.5127  0.0416  0.4174
 5063TIP3    H136604   2.456   1.979   5.466 -0.3876  1.5362  1.0628
 5063TIP3    H236605   2.517   1.941   5.333 -2.0153 -0.0159  0.7258
 5064TIP3   OH236606   4.405   5.147   1.602 -0.3699  0.0310 -0.4287
 5064TIP3    H136607   4.379   5.086   1.670  1.1547 -2.4219 -1.9708
 5064TIP3    H236608   4.472   5.202   1.642 -1.1489  0.1519  0.7177
 5065TIP3   OH236609   6.786   1.892  12.581  0.0063 -0.4387  0.1833
 5065TIP3    H136610   6.774   1.866  12.489  2.7013 -0.0659 -0.3038
 5065TIP3    H236611   6.878   1.874  12.599 -0.4185 -0.2076  2.7459
 5066TIP3   OH236612   3.208   3.664   3.178 -0.5922 -0.6218  0.1160
 5066TIP3    H136613   3.277   3.631   3.121 -0.5615 -0.0235 -0.2008
 5066TIP3    H236614   3.127   3.625   3.145 -0.6741  0.3167 -0.8169
 5067TIP3   OH236615   6.784   5.867   2.717  0.0158  0.1810  0.1639
 5067TIP3    H136616   6.847   5.860   2.646  0.5944 -0.9170  0.7654
 5067TIP3    H236617   6.839   5.877   2.796 -0.6070  1.2184  0.4729
 5068TIP3   OH236618   1.105   0.077   0.970  0.0432 -0.0615  0.1598
 5068TIP3    H136619   1.086   0.083   0.877 -0.1674  2.0648  0.3021
 5068TIP3    H236620   1.022   0.096   1.013  0.3175 -0.2286  0.7746
 5069TIP3   OH236621   0.082   3.515   5.136  0.4325  0.5441 -0.2699
 5069TIP3    H136622   0.060   3.585   5.198  1.4544  0.7739 -0.1688
 5069TIP3    H236623   0.117   3.561   5.060  0.5147  0.1745 -0.4536
 5070TIP3   OH236624   3.045   0.664  16.041  0.2029  0.2019 -0.0737
 5070TIP3    H136625   3.120   0.618  16.079  0.2727  1.4771  1.3602
 5070TIP3    H236626   2.970   0.637  16.094 -0.1754 -0.1757 -0.7874
 5071TIP3   OH236627   5.746   2.386   5.321 -0.3198 -0.5308 -0.5071
 5071TIP3    H136628   5.751   2.445   5.246  0.9847  0.4666  0.3232
 5071TIP3    H236629   5.654   2.361   5.327 -0.7008  0.5893 -1.5128
 5072TIP3   OH236630   3.494   5.187  13.614  0.2040 -0.2366 -0.0825
 5072TIP3    H136631   3.444   5.231  13.545  2.4299  1.2332 -0.8130
 5072TIP3    H236632   3.546   5.256  13.654  0.6342 -1.4867  1.5895
 5073TIP3   OH236633   2.810   1.122  13.683 -1.1941 -0.6816  0.0714
 5073TIP3    H136634   2.716   1.118  13.698 -0.9609  3.0634  3.2973
 5073TIP3    H236635   2.849   1.125  13.770  1.6286  1.5134 -1.1658
 5074TIP3   OH236636   2.319   1.560   0.184  0.3638  0.0480  0.1952
 5074TIP3    H136637   2.413   1.545   0.182  0.3459  0.0874 -0.8156
 5074TIP3    H236638   2.308   1.631   0.248  1.1054  0.6340 -0.3113
 5075TIP3   OH236639   4.154   2.454   2.752  0.4410  0.6813  0.0032
 5075TIP3    H136640   4.102   2.390   2.802  2.8882 -0.7596  0.8013
 5075TIP3    H236641   4.186   2.405   2.676  0.3268  1.6650 -0.6872
 5076TIP3   OH236642   4.256   4.776   1.022 -0.4435 -0.5272 -0.3540
 5076TIP3    H136643   4.225   4.767   0.932  0.5816  2.0421 -0.9852
 5076TIP3    H236644   4.312   4.699   1.036 -1.0126 -1.1968 -1.7289
 5077TIP3   OH236645   5.980   2.748  17.117  0.4179 -0.5226 -0.6226
 5077TIP3    H136646   6.003   2.817  17.180 -1.3443 -0.2451 -0.2465
 5077TIP3    H236647   6.042   2.759  17.046  1.5200  0.0984  0.4176
 5078TIP3   OH236648   3.330   3.752  14.106  0.3892  0.6844  0.4672
 5078TIP3    H136649   3.380   3.727  14.184  1.0373  1.4481  0.3039
 5078TIP3    H236650   3.313   3.846  14.118 -0.7550  0.4916  0.3791
 5079TIP3   OH236651   6.554   5.581  13.832  0.1374  0.3260 -0.2369
 5079TIP3    H136652   6.575   5.650  13.769  0.3692  0.0333 -0.4846
 5079TIP3    H236653   6.566   5.622  13.917  1.4473  0.2531 -0.3733
 5080TIP3   OH236654   2.401   5.739  12.146  0.2180  0.3160 -0.0109
 5080TIP3    H136655   2.455   5.702  12.217  0.1597 -0.3371 -0.2986
 5080TIP3    H236656   2.331   5.675  12.135 -0.7345  1.2694  0.4992
 5081TIP3   OH236657   4.617   0.880  11.122  0.3168 -0.0742  0.0362
 5081TIP3    H136658   4.569   0.876  11.205 -0.0029  0.3093 -0.1311
 5081TIP3    H236659   4.660   0.795  11.116 -0.2641 -0.3879  0.2329
 5082TIP3   OH236660   5.574   3.818   1.845 -0.1718 -0.2732 -0.9048
 5082TIP3    H136661   5.644   3.877   1.870  0.0068 -1.0096  0.3801
 5082TIP3    H236662   5.555   3.840   1.753  0.5373  1.0975 -0.7300
 5083TIP3   OH236663   4.859   5.627  13.999 -1.1621 -0.8874 -0.1667
 5083TIP3    H136664   4.800   5.701  13.992 -1.0178 -0.6342  1.1246
 5083TIP3    H236665   4.857   5.603  14.092  2.0011  0.1876  0.2469
 5084TIP3   OH236666   5.201   1.311  15.375  0.5350 -0.1918  0.0231
 5084TIP3    H136667   5.154   1.314  15.292  1.0907  4.0013 -0.2643
 5084TIP3    H236668   5.292   1.296  15.351  0.4548 -0.7009  0.0283
 5085TIP3   OH236669   4.965   1.078   3.415  0.2652 -0.1146  0.4314
 5085TIP3    H136670   4.939   1.086   3.507 -2.6939 -1.5339 -0.2240
 5085TIP3    H236671   4.933   1.158   3.374 -1.0080 -0.7899  0.0878
 5086TIP3   OH236672   6.684   1.763  16.501 -0.2685  0.4902  0.2180
 5086TIP3    H136673   6.765   1.748  16.550  0.5159 -0.7085 -1.4243
 5086TIP3    H236674   6.687   1.856  16.479 -0.0574  0.7771  1.3993
 5087TIP3   OH236675   2.257   2.881   0.936  0.2409  0.3438  0.1085
 5087TIP3    H136676   2.210   2.904   1.016 -0.0205  3.1385 -0.8010
 5087TIP3    H236677   2.189   2.877   0.869  0.8550  1.1881 -0.5772
 5088TIP3   OH236678   6.375   4.897  12.475 -0.3656  0.4051 -0.1789
 5088TIP3    H136679   6.416   4.841  12.408 -0.0292  1.7894 -1.1705
 5088TIP3    H236680   6.330   4.964  12.424 -0.9883  0.8680  0.9878
 5089TIP3   OH236681   3.253   5.725   4.250 -0.3976 -0.6409 -0.1656
 5089TIP3    H136682   3.202   5.645   4.241 -1.9042  0.4013 -1.1605
 5089TIP3    H236683   3.192   5.790   4.284  0.0223  0.8155 -2.0563
 5090TIP3   OH236684   4.053   1.248  14.413  0.3518 -0.5606  0.2303
 5090TIP3    H136685   4.004   1.329  14.394  1.4581 -0.0231 -0.3791
 5090TIP3    H236686   4.138   1.278  14.443  0.8276 -1.5108 -0.1640
 5091TIP3   OH236687   2.070   5.723  14.580 -0.0918 -0.7752 -0.4783
 5091TIP3    H136688   2.142   5.752  14.635 -0.0020 -0.2437 -0.8777
 5091TIP3    H236689   2.002   5.695  14.642 -0.7277  1.5965 -0.0540
 5092TIP3   OH236690   5.355   0.181   4.046 -0.9571 -0.1413 -0.2141
 5092TIP3    H136691   5.445   0.169   4.075 -0.9409 -1.2912 -0.7061
 5092TIP3    H236692   5.307   0.107   4.083 -1.2163 -0.8325 -1.8433
 5093TIP3   OH236693   3.497   6.241   2.430 -0.0642  0.6307 -0.0078
 5093TIP3    H136694   3.495   6.166   2.489  1.0610  1.0611  0.6026
 5093TIP3    H236695   3.548   6.307   2.477  1.6257  0.6688 -1.7834
 5094TIP3   OH236696   5.113   1.385  16.392 -0.2815 -0.2250 -0.4946
 5094TIP3    H136697   5.135   1.431  16.311 -1.6036  0.1371 -0.6550
 5094TIP3    H236698   5.180   1.412  16.454  0.0210  0.4642 -1.1224
 5095TIP3   OH236699   4.094   4.952   1.725  0.6926  0.2499 -0.0356
 5095TIP3    H136700   4.137   4.979   1.645 -0.1346  4.2470  0.7825
 5095TIP3    H236701   4.001   4.964   1.708  0.2717 -1.9244  0.5018
 5096TIP3   OH236702   6.609   4.744  12.914 -0.4673  0.0581 -0.4004
 5096TIP3    H136703   6.627   4.709  13.001 -3.0728  2.2928  1.1118
 5096TIP3    H236704   6.527   4.702  12.887 -0.3644  0.3595 -1.1987
 5097TIP3   OH236705   0.290   3.869   2.122  0.2001  0.2918  0.4357
 5097TIP3    H136706   0.329   3.935   2.065  0.8803 -0.6757 -0.2330
 5097TIP3    H236707   0.310   3.785   2.079 -1.3452 -0.3047  0.8460
 5098TIP3   OH236708   2.245   6.369  16.853  0.4021 -0.3114 -0.2768
 5098TIP3    H136709   2.201   6.426  16.789  0.5403  0.4634  0.3140
 5098TIP3    H236710   2.201   6.285  16.845  1.4792 -0.6961 -2.5567
 5099TIP3   OH236711   5.551   2.270  12.500  0.2127 -0.5922 -0.1341
 5099TIP3    H136712   5.502   2.265  12.418 -0.8497 -0.4822  0.4881
 5099TIP3    H236713   5.643   2.274  12.473 -0.1996  0.8349 -1.3545
 5100TIP3   OH236714   4.854   3.968  16.823 -0.1324 -0.5258  1.2509
 5100TIP3    H136715   4.885   3.899  16.765 -0.4223 -0.1721  0.6752
 5100TIP3    H236716   4.765   3.941  16.847 -0.6703  0.1902  0.1367
 5101TIP3   OH236717   6.279   0.137   3.377  0.7381 -0.0827  0.0842
 5101TIP3    H136718   6.217   0.154   3.449  0.8056  1.6732 -0.2596
 5101TIP3    H236719   6.231   0.160   3.298  0.4644 -2.5709 -0.5135
 5102TIP3   OH236720   2.572   2.742  14.520 -0.4221 -0.1274 -0.3046
 5102TIP3    H136721   2.571   2.740  14.615 -1.5087 -1.9162 -0.3359
 5102TIP3    H236722   2.557   2.834  14.498 -0.0849  0.3057  1.2518
 5103TIP3   OH236723   5.380   2.863   1.752  0.2053 -0.1096 -0.0528
 5103TIP3    H136724   5.377   2.781   1.802  0.9864  0.5970  1.1881
 5103TIP3    H236725   5.361   2.931   1.817  3.1265  0.9870 -0.2866
 5104TIP3   OH236726   4.475   3.214   5.593  0.3768  0.2479  0.0496
 5104TIP3    H136727   4.445   3.148   5.531  0.1536  0.6890 -0.3182
 5104TIP3    H236728   4.470   3.172   5.679 -2.2063  0.6380  0.1141
 5105TIP3   OH236729   1.521   0.711   6.073 -0.3585 -0.5162  0.0907
 5105TIP3    H136730   1.467   0.767   6.129  1.3343  0.4546  0.7730
 5105TIP3    H236731   1.492   0.622   6.094 -1.6855 -0.0172  0.4387
 5106TIP3   OH236732   3.797   0.190  13.621  0.3150 -0.0243  0.5169
 5106TIP3    H136733   3.741   0.113  13.631  1.2083 -0.9262 -1.1263
 5106TIP3    H236734   3.763   0.234  13.543 -0.7558  1.7745  1.9579
 5107TIP3   OH236735   5.898   3.194  16.565 -0.5687 -0.3352 -0.4428
 5107TIP3    H136736   5.938   3.176  16.650 -1.8462 -0.0047  0.2346
 5107TIP3    H236737   5.823   3.248  16.585 -0.8115 -0.1584 -1.8077
 5108TIP3   OH236738   2.945   0.986  12.725 -0.0939  0.4986  0.1493
 5108TIP3    H136739   2.879   0.983  12.656  1.1277  0.2142 -1.0316
 5108TIP3    H236740   2.965   1.079  12.736 -2.6225  0.8302  2.4259
 5109TIP3   OH236741   3.935   1.532  11.409 -0.0795 -0.3584  0.6775
 5109TIP3    H136742   4.013   1.494  11.368  0.3160  0.3478  0.7570
 5109TIP3    H236743   3.962   1.621  11.434 -0.0092 -1.0823  3.3322
 5110TIP3   OH236744   0.859   1.873  15.491 -0.1557 -0.9544 -0.1794
 5110TIP3    H136745   0.901   1.959  15.488 -2.1068  0.0502  0.2236
 5110TIP3    H236746   0.854   1.845  15.400 -1.2876  0.2731 -0.5086
 5111TIP3   OH236747   6.076   5.750   5.013  0.0278  0.2449 -0.7451
 5111TIP3    H136748   6.076   5.654   5.014 -0.7677  0.2442 -0.8368
 5111TIP3    H236749   6.108   5.773   4.926 -1.5516  0.0557 -1.3812
 5112TIP3   OH236750   4.994   4.012   1.612  0.3606  0.2113 -0.2041
 5112TIP3    H136751   4.904   4.006   1.644  0.5958  0.1324  0.4564
 5112TIP3    H236752   5.022   3.921   1.602  1.4147  0.1586  2.6283
 5113TIP3   OH236753   5.216   0.456  16.903  0.1450 -0.0695 -0.0585
 5113TIP3    H136754   5.266   0.516  16.848  0.1355 -0.6928 -0.7661
 5113TIP3    H236755   5.130   0.497  16.913 -0.9431 -1.4232 -3.1919
 5114TIP3   OH236756   6.412   5.408  11.692  0.2490  0.2270  0.1235
 5114TIP3    H136757   6.444   5.417  11.782  1.8656  0.4937 -0.4581
 5114TIP3    H236758   6.489   5.426  11.638 -0.5644 -0.5261 -1.3045
 5115TIP3   OH236759   5.672   5.634  14.156 -0.4124 -0.0379 -0.2781
 5115TIP3    H136760   5.628   5.623  14.071 -1.1039  0.2737  0.0340
 5115TIP3    H236761   5.607   5.678  14.211  1.0641  2.4937 -0.4713
 5116TIP3   OH236762   3.698   2.762  13.392  0.2461 -0.3551 -0.4750
 5116TIP3    H136763   3.627   2.810  13.348  0.5077  1.3979  0.9648
 5116TIP3    H236764   3.773   2.772  13.333  0.1661  0.6470 -0.4313
 5117TIP3   OH236765   0.641   2.468   4.852 -0.5808  0.0297  0.1620
 5117TIP3    H136766   0.611   2.460   4.762  0.0209  1.6877 -0.2024
 5117TIP3    H236767   0.715   2.407   4.858 -0.3650  0.2127 -0.5856
 5118TIP3   OH236768   6.413   0.983  13.854 -0.1782  0.1485  0.3950
 5118TIP3    H136769   6.495   0.934  13.849 -0.1552  0.2674 -0.5725
 5118TIP3    H236770   6.431   1.065  13.807 -1.2385 -0.3883 -1.0138
 5119TIP3   OH236771   1.139   2.849  15.217  0.2394  0.1378  0.2871
 5119TIP3    H136772   1.147   2.779  15.152  2.0586  1.7430 -1.2579
 5119TIP3    H236773   1.212   2.834  15.277  0.5847  0.6788 -0.0019
 5120TIP3   OH236774   5.305   0.484  12.087 -0.0245 -0.4713 -0.3441
 5120TIP3    H136775   5.327   0.398  12.050 -2.0423 -0.6727 -1.1636
 5120TIP3    H236776   5.286   0.466  12.179 -1.8604 -1.1781 -0.8353
 5121TIP3   OH236777   3.776   2.242   5.567  0.2887  0.1270 -0.0244
 5121TIP3    H136778   3.691   2.279   5.592  0.2869 -0.3745  0.7112
 5121TIP3    H236779   3.820   2.224   5.650  1.1409  0.4385 -0.4083
 5122TIP3   OH236780   1.838   0.980   6.234  0.2417 -0.1425 -0.6420
 5122TIP3    H136781   1.743   0.972   6.234 -0.0403  2.3975  1.6469
 5122TIP3    H236782   1.862   0.981   6.327  2.4985 -0.5942 -1.1863
 5123TIP3   OH236783   2.925   6.327   3.237  0.7019  0.3232  1.1274
 5123TIP3    H136784   2.832   6.316   3.218  0.2164  2.2031  2.2510
 5123TIP3    H236785   2.946   6.256   3.298  0.0015 -0.0925  0.8806
 5124TIP3   OH236786   6.591   3.187  12.469 -0.3678  0.6488  0.6065
 5124TIP3    H136787   6.621   3.251  12.534 -0.7948 -0.2698  1.7163
 5124TIP3    H236788   6.558   3.240  12.397  0.5972  1.6830  0.9142
 5125TIP3   OH236789   6.409   0.818   4.582  0.2158 -0.2087  0.0583
 5125TIP3    H136790   6.478   0.884   4.584  1.0689 -1.0611 -0.3738
 5125TIP3    H236791   6.451   0.741   4.542  0.1658 -2.0239  3.2847
 5126TIP3   OH236792   0.909   3.634   6.529 -0.5813  0.4186  0.1836
 5126TIP3    H136793   0.897   3.559   6.587 -3.2979  1.0540  0.4895
 5126TIP3    H236794   0.849   3.618   6.456 -1.5473  2.5238  0.4911
 5127TIP3   OH236795   0.665   5.831  12.170  0.2799  0.1182  0.4093
 5127TIP3    H136796   0.734   5.892  12.144  0.8151 -1.5231 -2.1481
 5127TIP3    H236797   0.710   5.761  12.217  0.0052  0.2566  0.8938
 5128TIP3   OH236798   5.951   4.387   2.177  0.6269  0.3491  0.0433
 5128TIP3    H136799   6.032   4.385   2.227  0.5551 -0.3843  0.1381
 5128TIP3    H236800   5.977   4.363   2.088  0.5166  0.1307  0.0694
 5129TIP3   OH236801   0.298   2.510  12.886 -0.4753  0.0912  0.0274
 5129TIP3    H136802   0.319   2.599  12.912 -1.7227  0.3483  0.1630
 5129TIP3    H236803   0.358   2.455  12.938 -0.7969  0.7627  1.1129
 5130TIP3   OH236804   0.191   6.029  16.591  0.2811  0.4419 -0.1278
 5130TIP3    H136805   0.272   6.027  16.642  0.3515  3.1936 -0.0076
 5130TIP3    H236806   0.124   5.998  16.651  0.7526  1.3143  0.8687
 5131TIP3   OH236807   4.484   6.378   4.911 -0.2159  0.4648 -0.5296
 5131TIP3    H136808   4.459   6.334   4.829 -0.2890 -2.1696  0.8436
 5131TIP3    H236809   4.407   6.368   4.967  0.1572  1.4909  0.1773
 5132TIP3   OH236810   3.569   1.881  15.769  0.0291 -0.0916 -0.1114
 5132TIP3    H136811   3.528   1.909  15.851  1.6608  1.1658  0.2963
 5132TIP3    H236812   3.556   1.786  15.768  0.5566 -0.2201  1.9372
 5133TIP3   OH236813   3.912   1.818   3.094 -0.4602 -0.2109 -0.0749
 5133TIP3    H136814   3.946   1.739   3.052 -1.5597 -1.1786  0.8029
 5133TIP3    H236815   3.921   1.886   3.028  2.6082 -0.5329 -0.0790
 5134TIP3   OH236816   1.094   5.937   3.219  0.4311 -0.0870  0.1535
 5134TIP3    H136817   1.188   5.924   3.210  0.2654 -0.7643 -0.7331
 5134TIP3    H236818   1.055   5.858   3.181 -0.5263  0.8659 -0.8960
 5135TIP3   OH236819   3.497   3.725  13.684 -0.6471  0.0880 -0.1746
 5135TIP3    H136820   3.552   3.738  13.761 -0.1143  0.1207 -0.5611
 5135TIP3    H236821   3.438   3.800  13.683  0.1702  0.7320 -0.4956
 5136TIP3   OH236822   3.980   6.458   3.741 -0.4165  0.3294 -0.0271
 5136TIP3    H136823   4.062   6.504   3.720 -0.7174  1.5028  1.3338
 5136TIP3    H236824   3.958   6.411   3.660  2.4611 -1.3565  0.0875
 5137TIP3   OH236825   5.092   0.317  14.878 -0.3006  0.0822  0.3248
 5137TIP3    H136826   5.038   0.390  14.910  0.2971  0.4785  0.4451
 5137TIP3    H236827   5.111   0.265  14.956  1.1144  1.0206  0.6169
 5138TIP3   OH236828   3.070   1.466  14.192  0.2296 -0.2998  0.7098
 5138TIP3    H136829   2.997   1.445  14.133  0.2073 -1.5534  1.1782
 5138TIP3    H236830   3.148   1.453  14.138  0.1810 -0.6990  0.7363
 5139TIP3   OH236831   1.162   4.084  15.822  0.2331 -0.0475  0.0278
 5139TIP3    H136832   1.211   4.012  15.860  2.0030  1.0763 -0.0621
 5139TIP3    H236833   1.082   4.089  15.874  0.3141 -1.7387  0.3365
 5140TIP3   OH236834   6.115   4.503  12.268 -0.0279  0.0546 -1.0263
 5140TIP3    H136835   6.037   4.501  12.212 -0.0272 -2.5051 -0.9722
 5140TIP3    H236836   6.166   4.428  12.240  0.9271 -0.1036  1.1019
 5141TIP3   OH236837   0.936   4.888   3.970 -0.1589  0.3518 -0.4101
 5141TIP3    H136838   0.969   4.856   3.886  0.3892 -0.4565  0.1114
 5141TIP3    H236839   0.841   4.893   3.958 -0.2948 -1.7894 -0.4012
 5142TIP3   OH236840   4.462   4.457  10.781  0.6198 -0.2077  0.3368
 5142TIP3    H136841   4.383   4.477  10.831  0.6277 -1.0325  0.6918
 5142TIP3    H236842   4.498   4.542  10.757 -1.3926  0.1664 -1.4443
 5143TIP3   OH236843   1.842   1.902   3.169  0.3637 -0.1246 -0.2389
 5143TIP3    H136844   1.787   1.885   3.246  2.6531 -1.8988  1.0732
 5143TIP3    H236845   1.783   1.943   3.106 -2.3999 -1.6953  1.2305
 5144TIP3   OH236846   1.931   5.384  11.863 -0.9443  0.8390 -0.0673
 5144TIP3    H136847   1.903   5.469  11.897 -1.9657  0.4344  0.1197
 5144TIP3    H236848   2.000   5.404  11.800 -0.3087  1.7185  0.9058
 5145TIP3   OH236849   6.640   3.009   0.164 -0.4250 -0.3201 -0.0598
 5145TIP3    H136850   6.689   3.064   0.224 -1.0351 -0.4214  0.5404
 5145TIP3    H236851   6.565   2.979   0.215  0.1449 -2.0788 -0.2278
 5146TIP3   OH236852   4.471   2.523  12.457  0.1206  0.2828 -0.5217
 5146TIP3    H136853   4.397   2.569  12.417 -0.0141  0.4216 -0.1177
 5146TIP3    H236854   4.492   2.453  12.395  0.1521  0.7159 -1.0110
 5147TIP3   OH236855   3.682   3.799   3.815 -0.1041  0.1658 -0.2090
 5147TIP3    H136856   3.643   3.818   3.901  1.1150  1.7559  0.0245
 5147TIP3    H236857   3.608   3.799   3.755 -0.7549  0.8501  0.5725
 5148TIP3   OH236858   0.972   2.423  12.003 -0.1422  0.1596 -0.6694
 5148TIP3    H136859   1.044   2.482  11.981  0.7326 -1.0291 -1.0800
 5148TIP3    H236860   0.956   2.374  11.922 -0.6964 -0.3308 -0.2694
 5149TIP3   OH236861   4.284   2.129  14.001  0.7517  0.0997  0.2953
 5149TIP3    H136862   4.252   2.074  13.929 -0.6159  1.1476  0.0542
 5149TIP3    H236863   4.356   2.179  13.963 -1.0579  1.9086 -0.9315
 5150TIP3   OH236864   5.220   1.805  12.645 -0.6824  0.4071  0.0586
 5150TIP3    H136865   5.245   1.895  12.665  0.9730  0.2714 -1.2276
 5150TIP3    H236866   5.236   1.757  12.727  0.9100  0.8141 -0.0016
 5151TIP3   OH236867   6.598   6.183   2.302  0.4798  0.2180 -0.5090
 5151TIP3    H136868   6.615   6.168   2.209  1.4541  0.0356 -0.3075
 5151TIP3    H236869   6.505   6.206   2.306  0.6639  1.2193 -1.6416
 5152TIP3   OH236870   0.558   0.249   4.696 -0.2334 -0.3910  0.0940
 5152TIP3    H136871   0.493   0.279   4.759 -0.1527 -2.2994  1.1554
 5152TIP3    H236872   0.637   0.299   4.718 -0.5841 -0.0636  0.6198
 5153TIP3   OH236873   0.478   6.313  12.978 -0.3780 -0.5833 -0.3053
 5153TIP3    H136874   0.435   6.320  12.893  1.6826  2.3965 -1.1845
 5153TIP3    H236875   0.571   6.326  12.959  0.3007 -1.3650  2.2405
 5154TIP3   OH236876   2.149   0.936  12.999  0.1864  0.5346 -0.3061
 5154TIP3    H136877   2.141   0.993  12.923  0.1020  0.6054 -0.2426
 5154TIP3    H236878   2.241   0.907  12.998 -0.3606 -1.2694 -1.7373
 5155TIP3   OH236879   2.383   2.470   2.389  0.0615  0.5650 -0.3657
 5155TIP3    H136880   2.362   2.503   2.476  0.8896 -0.4395  0.2157
 5155TIP3    H236881   2.378   2.547   2.333 -0.6868  1.1771  0.5247
 5156TIP3   OH236882   5.190   0.881   0.321  0.0715  0.3499  0.3283
 5156TIP3    H136883   5.197   0.972   0.289 -0.0294  0.2359 -0.0253
 5156TIP3    H236884   5.245   0.879   0.399  0.3659  0.6251  0.1314
 5157TIP3   OH236885   1.712   6.315   4.653 -0.4483  0.4582  0.2727
 5157TIP3    H136886   1.629   6.307   4.607 -0.0718 -0.1173 -0.3186
 5157TIP3    H236887   1.712   6.404   4.689  0.4594  1.9122 -3.1608
 5158TIP3   OH236888   1.933   1.499  13.674  0.1025 -0.6331  0.0125
 5158TIP3    H136889   1.901   1.489  13.764 -1.9721  1.6390 -0.4155
 5158TIP3    H236890   1.894   1.426  13.626 -1.0340 -0.2893  0.4024
 5159TIP3   OH236891   2.072   0.298  14.075  0.6091  0.3855 -0.1392
 5159TIP3    H136892   1.985   0.324  14.106  0.9077  1.2511 -0.0198
 5159TIP3    H236893   2.124   0.378  14.080  1.4127 -0.1282 -0.2261
 5160TIP3   OH236894   5.747   6.068   0.938  0.5969  0.3526  0.7821
 5160TIP3    H136895   5.835   6.078   0.902  1.1109  1.1302  2.2182
 5160TIP3    H236896   5.756   6.092   1.031 -0.9198 -0.5294  1.1751
 5161TIP3   OH236897   5.866   0.724   5.543 -0.1334  0.3587 -0.4783
 5161TIP3    H136898   5.840   0.632   5.542 -2.5041  1.0003  0.4043
 5161TIP3    H236899   5.833   0.760   5.461  1.9140  0.1646 -1.4290
 5162TIP3   OH236900   3.547   0.183   5.472  0.3313 -0.1610 -0.0549
 5162TIP3    H136901   3.607   0.241   5.424 -0.5991  1.0880  0.2645
 5162TIP3    H236902   3.495   0.141   5.403 -2.0186  2.7426 -0.1529
 5163TIP3   OH236903   1.202   6.265   5.110 -0.0126 -0.5412  0.5185
 5163TIP3    H136904   1.217   6.214   5.189 -1.3298 -0.9146  0.5436
 5163TIP3    H236905   1.171   6.202   5.045  2.5431 -0.5104 -0.8015
 5164TIP3   OH236906   2.851   1.729   1.096  0.2533 -0.3142 -0.1420
 5164TIP3    H136907   2.932   1.720   1.146  1.1245  0.5895 -1.3628
 5164TIP3    H236908   2.799   1.793   1.145 -1.0817 -3.1598  2.3214
 5165TIP3   OH236909   4.637   3.633  14.391 -0.5304  0.0050 -0.3040
 5165TIP3    H136910   4.627   3.689  14.469  0.6531 -0.4997  0.2144
 5165TIP3    H236911   4.590   3.680  14.322  0.1313  1.4584  0.2226
 5166TIP3   OH236912   1.237   4.186   3.071 -0.2147 -0.6267 -0.1473
 5166TIP3    H136913   1.150   4.163   3.103 -0.2547 -0.0003  0.1806
 5166TIP3    H236914   1.283   4.221   3.147 -0.0494  0.1243 -0.5913
 5167TIP3   OH236915   5.610   5.187   5.658 -0.1801 -0.1396 -0.0944
 5167TIP3    H136916   5.545   5.117   5.662 -2.3024  1.7958  0.1119
 5167TIP3    H236917   5.639   5.198   5.749 -1.4165  0.6699  0.2142
 5168TIP3   OH236918   1.057   3.944   6.270  0.4539  0.3076  0.0323
 5168TIP3    H136919   1.073   3.853   6.293  0.4193  0.3631  0.2773
 5168TIP3    H236920   0.962   3.953   6.272  0.4714  0.4257  0.3000
 5169TIP3   OH236921   3.407   1.477  16.470 -0.2764 -0.5658 -0.5010
 5169TIP3    H136922   3.466   1.513  16.404 -2.2204  1.1085 -1.3472
 5169TIP3    H236923   3.445   1.505  16.554  0.9857 -0.8506 -0.9690
 5170TIP3   OH236924   5.575   0.856   4.149  0.0543  0.3218  0.4531
 5170TIP3    H136925   5.598   0.873   4.241  0.7737 -1.6103  0.6513
 5170TIP3    H236926   5.659   0.856   4.103  0.2157 -3.4614  0.6217
 5171TIP3   OH236927   2.926   6.360   2.938 -0.2043 -0.5458  0.6354
 5171TIP3    H136928   2.959   6.348   3.027 -0.1781 -0.9714  0.5689
 5171TIP3    H236929   2.928   6.273   2.900  0.1342 -0.3037  0.0934
 5172TIP3   OH236930   5.998   6.146  11.615  0.3301 -0.5109 -0.1450
 5172TIP3    H136931   6.053   6.088  11.668  1.1612  1.3620  1.0670
 5172TIP3    H236932   6.055   6.176  11.545  0.9650  1.6629  1.2798
 5173TIP3   OH236933   0.009   3.621   1.724 -0.4201  0.3547  0.4768
 5173TIP3    H136934  -0.028   3.609   1.636  0.0095  1.9778  0.0652
 5173TIP3    H236935   0.098   3.587   1.717  0.7394  3.4575 -0.6461
 5174TIP3   OH236936   2.664   6.010   1.235 -0.3344  0.1059 -0.4801
 5174TIP3    H136937   2.622   6.097   1.238  1.4551  1.0615 -2.2343
 5174TIP3    H236938   2.692   5.994   1.325  0.0715  1.7286 -0.3053
 5175TIP3   OH236939   4.492   4.438   5.379 -0.3119 -0.5467 -0.8156
 5175TIP3    H136940   4.459   4.352   5.402 -1.3594 -0.0627 -0.4782
 5175TIP3    H236941   4.429   4.499   5.418  1.0616  0.3916 -0.0168
 5176TIP3   OH236942   2.190   2.775   2.493  0.3645 -0.4138 -0.7243
 5176TIP3    H136943   2.097   2.775   2.470  0.0890 -0.2209  0.3501
 5176TIP3    H236944   2.204   2.692   2.537 -0.1255  1.0503  2.2844
 5177TIP3   OH236945   6.440   1.972   5.236 -0.5844 -0.1252 -0.2764
 5177TIP3    H136946   6.409   1.932   5.317  0.4164  1.2110  0.7950
 5177TIP3    H236947   6.383   2.048   5.224  0.5603  0.8202  0.2631
 5178TIP3   OH236948   5.580   4.532   5.924  0.1330 -0.7213  0.5120
 5178TIP3    H136949   5.542   4.475   5.991 -0.9629 -0.3247  0.2410
 5178TIP3    H236950   5.661   4.490   5.899  0.0954 -1.3497  1.4466
 5179TIP3   OH236951   3.082   3.693  17.072  0.0810  0.3645  0.1349
 5179TIP3    H136952   3.056   3.692  16.980 -0.8857  1.2454  0.3896
 5179TIP3    H236953   3.141   3.618  17.081 -0.7114 -0.4069 -0.9483
 5180TIP3   OH236954   6.095   2.031   3.971 -0.1162 -0.5643 -0.5047
 5180TIP3    H136955   6.045   1.990   3.901 -0.2249  1.4059 -1.6131
 5180TIP3    H236956   6.030   2.078   4.023  0.3200  0.5685 -0.9459
 5181TIP3   OH236957   6.141   4.643  14.024 -0.0521  0.3339 -0.2294
 5181TIP3    H136958   6.109   4.702  14.093  1.2423  1.6602 -0.7407
 5181TIP3    H236959   6.234   4.663  14.017  0.1796 -1.0524 -1.1455
 5182TIP3   OH236960   3.880   0.884  11.169  0.3513 -0.5696  0.4047
 5182TIP3    H136961   3.793   0.907  11.136  1.0457  1.0695 -0.3442
 5182TIP3    H236962   3.925   0.968  11.177  1.7484 -1.3819  1.1127
 5183TIP3   OH236963   1.604   2.341   6.527  0.0701 -0.2255  0.1785
 5183TIP3    H136964   1.648   2.269   6.482  1.7046  0.3720  0.7740
 5183TIP3    H236965   1.565   2.300   6.605 -1.0295 -0.8827 -0.7061
 5184TIP3   OH236966   3.188   5.055   1.145 -0.4989  0.4775 -0.1504
 5184TIP3    H136967   3.218   5.058   1.236 -0.4330  1.0475 -0.1942
 5184TIP3    H236968   3.267   5.063   1.093 -0.2144 -2.5722 -0.2725
 5185TIP3   OH236969   6.560   4.419   0.437  0.5357 -0.1199 -0.0970
 5185TIP3    H136970   6.542   4.504   0.396 -0.2813  0.4584  1.4371
 5185TIP3    H236971   6.650   4.426   0.470  0.8325 -0.2334 -0.8507
 5186TIP3   OH236972   4.455   5.610   1.466  0.1807 -0.1849 -0.3684
 5186TIP3    H136973   4.394   5.651   1.404 -0.0267 -0.3107 -0.2460
 5186TIP3    H236974   4.519   5.566   1.410 -0.4979 -1.0279 -0.4851
 5187TIP3   OH236975   0.980   1.288  15.743  0.0003  0.2797 -0.4468
 5187TIP3    H136976   1.013   1.351  15.807  0.1320 -0.0274 -0.2158
 5187TIP3    H236977   1.008   1.203  15.776 -1.8259 -0.0683  0.2642
 5188TIP3   OH236978   4.127   0.257   3.762 -0.4482  0.4013  0.0755
 5188TIP3    H136979   4.050   0.294   3.804  0.2146  3.3697 -1.2032
 5188TIP3    H236980   4.107   0.259   3.668  0.5344 -0.3043 -0.1575
 5189TIP3   OH236981   2.453   5.702   3.001  0.0582 -0.6348  0.7626
 5189TIP3    H136982   2.538   5.722   2.961 -0.6296  0.2853 -0.2633
 5189TIP3    H236983   2.408   5.648   2.937 -0.8506  0.4158  0.5067
 5190TIP3   OH236984   5.899   2.623  15.426 -0.2260 -0.0114  0.3918
 5190TIP3    H136985   5.940   2.668  15.500  2.2944 -1.3762 -0.1273
 5190TIP3    H236986   5.896   2.689  15.356 -1.4429  0.8899  1.2625
 5191TIP3   OH236987   3.067   0.702  13.112 -0.0740  0.1654 -0.6267
 5191TIP3    H136988   3.155   0.669  13.128 -0.7900 -1.2155  0.6053
 5191TIP3    H236989   3.066   0.790  13.151  0.6253  0.0083 -0.2558
 5192TIP3   OH236990   3.251   3.776   2.270  0.4374 -0.2512  0.3606
 5192TIP3    H136991   3.169   3.764   2.318  0.4400 -2.5871 -0.1593
 5192TIP3    H236992   3.232   3.843   2.205 -0.7145  0.0407  0.9832
 5193TIP3   OH236993   3.185   0.293  12.799  0.3413  0.1337 -0.2658
 5193TIP3    H136994   3.179   0.207  12.840  1.0807  0.2799  0.1650
 5193TIP3    H236995   3.169   0.277  12.706 -1.5229 -0.1750  0.0982
 5194TIP3   OH236996   4.405   2.019   6.028  0.4818 -0.7328  0.2123
 5194TIP3    H136997   4.459   2.092   5.998 -0.8124 -0.1567 -0.7706
 5194TIP3    H236998   4.399   2.031   6.123  0.1844  0.5103  0.0436
 5195TIP3   OH236999   4.608   6.172   3.669 -0.0259  0.2986 -0.3285
 5195TIP3    H137000   4.596   6.220   3.587 -1.5268  1.0664  0.3321
 5195TIP3    H237001   4.682   6.216   3.711  0.7986 -0.1392 -1.2822
 5196TIP3   OH237002   4.521   0.422  15.795  0.1472  0.6536  0.0028
 5196TIP3    H137003   4.437   0.463  15.815  0.9606  2.4035 -0.0093
 5196TIP3    H237004   4.574   0.436  15.874  0.9428  1.0046 -0.5835
 5197TIP3   OH237005   2.929   5.408  16.879 -0.1170 -0.4490  0.0944
 5197TIP3    H137006   2.897   5.461  16.952 -0.2496  0.3375 -0.5165
 5197TIP3    H237007   2.920   5.466  16.802  1.4384 -0.7042 -0.3093
 5198TIP3   OH237008   2.206   2.388   5.911 -0.0402  0.2437 -0.0566
 5198TIP3    H137009   2.158   2.448   5.854  0.0607  0.3241 -0.0584
 5198TIP3    H237010   2.187   2.418   5.999 -0.4937 -0.1094 -0.0330
 5199TIP3   OH237011   3.361   6.781  11.351 -0.0128  0.2900 -0.2949
 5199TIP3    H137012   3.413   6.847  11.306 -0.3984  0.7633 -0.0575
 5199TIP3    H237013   3.294   6.832  11.397 -0.3788 -0.2752 -0.2033
 5200TIP3   OH237014   4.384   6.527   0.286  0.6278  0.6247  0.6107
 5200TIP3    H137015   4.431   6.516   0.369 -2.0848 -1.2407  1.9633
 5200TIP3    H237016   4.338   6.610   0.296  1.4544  1.1292  0.3432
 5201TIP3   OH237017   1.484   4.690   2.734 -0.2620 -0.3401  0.2681
 5201TIP3    H137018   1.399   4.704   2.694  0.4242  1.5350 -0.5762
 5201TIP3    H237019   1.533   4.641   2.668  0.3292  1.3301 -0.5686
 5202TIP3   OH237020   2.919   1.067  13.913 -0.8037 -0.3430 -1.0240
 5202TIP3    H137021   3.007   1.090  13.886 -1.4014  1.8102 -1.2095
 5202TIP3    H237022   2.924   0.974  13.935  1.1679 -0.5648 -2.3482
 5203TIP3   OH237023   6.286   4.217  15.514 -0.0189 -0.4112  0.1328
 5203TIP3    H137024   6.298   4.221  15.609 -1.1662 -0.6278  0.2940
 5203TIP3    H237025   6.206   4.266  15.497  0.1847 -0.3617 -0.7293
 5204TIP3   OH237026   3.897   3.161   3.552  0.5132 -0.3700 -0.9181
 5204TIP3    H137027   3.843   3.238   3.530  0.0274 -0.4061  0.1501
 5204TIP3    H237028   3.834   3.093   3.572  0.9550 -0.3832  0.4617
 5205TIP3   OH237029   1.083   1.102  11.723  0.1883  0.1739 -0.1694
 5205TIP3    H137030   1.113   1.073  11.809 -1.2472  0.8840  0.5935
 5205TIP3    H237031   1.077   1.197  11.730 -0.6078  0.1828 -0.8083
 5206TIP3   OH237032   1.151   0.781   0.185 -0.1047 -0.0904  0.3419
 5206TIP3    H137033   1.118   0.820   0.266 -0.5867 -0.5927  0.3939
 5206TIP3    H237034   1.123   0.690   0.189 -0.2890 -0.0783 -0.4746
 5207TIP3   OH237035   4.300   4.143  15.620  0.1300 -0.1073 -0.1917
 5207TIP3    H137036   4.377   4.087  15.621 -0.6942 -1.2540 -0.3759
 5207TIP3    H237037   4.275   4.148  15.528  0.2796  0.6771 -0.1919
 5208TIP3   OH237038   4.443   2.974   2.474 -0.2114 -0.3004  0.3690
 5208TIP3    H137039   4.427   3.048   2.415 -0.9642 -0.8241 -0.0959
 5208TIP3    H237040   4.404   2.899   2.429  3.1959 -1.5651 -0.6240
 5209TIP3   OH237041   3.144   4.617   2.892 -0.7423  0.6345 -0.3094
 5209TIP3    H137042   3.056   4.581   2.883 -1.3665  0.9296  3.9406
 5209TIP3    H237043   3.134   4.691   2.951  1.8607  2.8373 -2.4644
 5210TIP3   OH237044   2.669   0.586   5.805  0.2625  0.2945  1.2589
 5210TIP3    H137045   2.593   0.631   5.768  1.2911  1.8371  0.9811
 5210TIP3    H237046   2.635   0.500   5.831 -1.3327  0.5521  0.1557
 5211TIP3   OH237047   6.002   3.441  12.972 -0.5894 -0.2603 -0.2092
 5211TIP3    H137048   6.066   3.431  13.042  2.1722  1.2365 -2.4268
 5211TIP3    H237049   6.021   3.527  12.934 -2.1707 -0.9377 -2.6253
 5212TIP3   OH237050   3.489   5.457   4.251 -0.4793 -0.3012 -0.4162
 5212TIP3    H137051   3.496   5.543   4.210  0.6282  0.7181  1.8200
 5212TIP3    H237052   3.416   5.415   4.205 -2.2804  2.5386 -0.2981
 5213TIP3   OH237053   4.708   0.130   2.253 -0.1283  0.1955 -0.6434
 5213TIP3    H137054   4.654   0.066   2.300  0.9127 -1.0123 -1.0468
 5213TIP3    H237055   4.798   0.107   2.277  0.2531  1.5402 -0.7715
 5214TIP3   OH237056   0.866   3.624   6.179 -0.6289 -0.2233 -0.1440
 5214TIP3    H137057   0.802   3.594   6.244  0.5003 -2.1443  0.1282
 5214TIP3    H237058   0.945   3.642   6.229 -0.5829  1.0234 -0.6352
 5215TIP3   OH237059   1.462   1.414   4.751  0.2126  0.1061 -0.1191
 5215TIP3    H137060   1.367   1.403   4.761  0.1516 -0.0728 -0.8679
 5215TIP3    H237061   1.484   1.364   4.673  1.1974 -1.2663  1.0058
 5216TIP3   OH237062   1.041   3.007   6.056 -0.4306 -0.0884  0.9667
 5216TIP3    H137063   0.990   2.962   6.123 -1.3462  2.3538  1.9590
 5216TIP3    H237064   1.014   2.965   5.974 -2.8704  0.0840  1.6345
 5217TIP3   OH237065   1.394   2.481  14.039 -0.0315 -0.2520  0.7086
 5217TIP3    H137066   1.323   2.539  14.012  0.1035 -0.0324  0.8256
 5217TIP3    H237067   1.471   2.516  13.993  0.3389  0.5420  1.9204
 5218TIP3   OH237068   0.106   2.412   1.956 -0.3066 -0.1936 -0.1883
 5218TIP3    H137069   0.122   2.370   2.040 -1.4211 -0.3328 -0.0320
 5218TIP3    H237070   0.102   2.505   1.975 -0.8437 -0.2456 -0.0326
 5219TIP3   OH237071   6.550   3.597  14.209 -0.4995  0.5064 -0.1482
 5219TIP3    H137072   6.643   3.577  14.215 -1.2511 -3.0216  0.6556
 5219TIP3    H237073   6.526   3.574  14.120 -0.9165  0.0050  0.0950
 5220TIP3   OH237074   1.372   6.277   2.190  0.1184  0.0282 -0.0292
 5220TIP3    H137075   1.303   6.282   2.124 -0.0251 -1.7564 -0.0241
 5220TIP3    H237076   1.325   6.261   2.272  0.4364  0.4258  0.2339
 5221TIP3   OH237077   2.797   3.325  12.978  0.4802  0.4197  0.5307
 5221TIP3    H137078   2.774   3.304  13.069  2.0681 -1.5728  0.5077
 5221TIP3    H237079   2.878   3.374  12.984  0.5960  0.2707  0.1802
 5222TIP3   OH237080   4.934   5.067  16.483 -0.3951  0.1830  0.1673
 5222TIP3    H137081   4.927   5.157  16.514  1.9993 -0.3619  2.4309
 5222TIP3    H237082   4.944   5.014  16.563  2.1431 -1.6668 -1.3041
 5223TIP3   OH237083   5.641   3.157   5.034  0.1871 -0.0410  0.5569
 5223TIP3    H137084   5.644   3.098   5.109  1.6782 -1.7078 -0.7867
 5223TIP3    H237085   5.697   3.230   5.059  0.1792 -0.2838  1.3005
 5224TIP3   OH237086   0.633   0.134  12.895  0.2672  0.8417  0.2275
 5224TIP3    H137087   0.679   0.187  12.830 -0.2856  2.3720  1.0622
 5224TIP3    H237088   0.665   0.045  12.880  0.4457  1.2212 -1.8807
 5225TIP3   OH237089   4.879   3.277  15.131 -0.6048 -0.3449  0.5878
 5225TIP3    H137090   4.792   3.314  15.148 -0.9212 -1.0948  0.6281
 5225TIP3    H237091   4.926   3.285  15.214  0.4248  2.8525 -0.2476
 5226TIP3   OH237092   4.566   3.628   1.827 -0.7036  0.3218  0.2633
 5226TIP3    H137093   4.544   3.578   1.906 -2.0158 -0.2008 -0.4162
 5226TIP3    H237094   4.551   3.719   1.852 -0.0114  0.2506  0.9647
 5227TIP3   OH237095   3.461   1.813  13.285 -0.2516  0.2197  0.1048
 5227TIP3    H137096   3.504   1.898  13.298 -1.8411  1.0845 -0.2769
 5227TIP3    H237097   3.527   1.760  13.240  0.6416  1.3420  0.0634
 5228TIP3   OH237098   4.129   1.836   3.538  0.1053 -0.2612  0.0416
 5228TIP3    H137099   4.203   1.880   3.580  0.5909 -0.4092 -0.6543
 5228TIP3    H237100   4.163   1.807   3.454 -0.3003 -1.6841  0.3436
 5229TIP3   OH237101   1.112   5.360   1.114  0.1570  0.1638  0.0381
 5229TIP3    H137102   1.081   5.419   1.046 -2.8909  0.6587  1.7323
 5229TIP3    H237103   1.069   5.390   1.194  3.4731 -0.5153  2.1924
 5230TIP3   OH237104   5.604   5.688  11.936 -0.3297 -0.4295  0.5578
 5230TIP3    H137105   5.664   5.719  12.005  0.2814  1.0950 -0.6376
 5230TIP3    H237106   5.523   5.667  11.983 -0.4341  2.0587  1.5573
 5231TIP3   OH237107   3.228   5.213   4.459 -0.0239 -0.5473  0.3860
 5231TIP3    H137108   3.260   5.195   4.371  1.1870 -2.2564  1.1528
 5231TIP3    H237109   3.134   5.230   4.447  0.2212 -0.2619 -1.2771
 5232TIP3   OH237110   3.329   1.404  15.288  0.1656  0.2228 -0.1157
 5232TIP3    H137111   3.391   1.334  15.306  0.4588  0.5763  0.2711
 5232TIP3    H237112   3.248   1.359  15.265  0.5246 -0.2382 -0.4822
 5233TIP3   OH237113   1.050   6.041   3.495 -0.0621 -0.0180  0.0256
 5233TIP3    H137114   0.974   6.099   3.498  0.3693  0.5593 -0.0732
 5233TIP3    H237115   1.056   6.014   3.403  0.7565  1.1661 -0.2865
 5234TIP3   OH237116   5.529   0.158  17.109 -0.0552  0.0670  0.6299
 5234TIP3    H137117   5.486   0.165  17.023  0.0134  0.2575  0.6099
 5234TIP3    H237118   5.535   0.064  17.126  0.0949  0.0234  0.3409
 5235TIP3   OH237119   1.438   1.734  11.503  0.1120  0.0993  0.4545
 5235TIP3    H137120   1.449   1.679  11.426 -1.2155 -2.0813  1.7634
 5235TIP3    H237121   1.376   1.801  11.476 -1.1230 -1.2423 -0.1052
 5236TIP3   OH237122   5.341   4.360   1.710  0.4626  0.1271 -0.5810
 5236TIP3    H137123   5.258   4.340   1.666  0.9981 -0.1816 -1.4603
 5236TIP3    H237124   5.344   4.299   1.783 -0.1198  0.1842 -0.5039
 5237TIP3   OH237125   5.483   1.834   1.934  0.4932  1.0740 -0.0205
 5237TIP3    H137126   5.398   1.812   1.971  0.0628  1.0128 -1.0350
 5237TIP3    H237127   5.504   1.760   1.876  0.8293  1.5024 -0.4502
 5238TIP3   OH237128   2.048   3.223   0.757 -0.4945 -0.1919 -0.3899
 5238TIP3    H137129   2.035   3.147   0.701 -0.4304 -1.1604  0.8843
 5238TIP3    H237130   2.119   3.197   0.816 -0.4908  0.8511  0.0699
 5239TIP3   OH237131   5.680   0.617  13.118 -0.4862  0.8440  0.1500
 5239TIP3    H137132   5.636   0.660  13.045  0.6843 -1.5599 -2.0085
 5239TIP3    H237133   5.725   0.542  13.080  2.3144  0.9913  2.9110
 5240TIP3   OH237134   4.721   1.069   4.965 -0.0202 -0.5380 -0.0979
 5240TIP3    H137135   4.645   1.073   5.023  0.2740 -1.2108  0.3372
 5240TIP3    H237136   4.711   0.986   4.918  0.9013 -1.0380  0.5889
 5241TIP3   OH237137   4.120   4.994  16.050 -0.1779  0.1414  0.3170
 5241TIP3    H137138   4.161   4.916  16.014 -0.2150  0.7796 -1.1234
 5241TIP3    H237139   4.192   5.043  16.090  0.1123  0.1775 -0.2449
 5242TIP3   OH237140   4.266   1.492  16.339  0.2462 -0.5566  0.6088
 5242TIP3    H137141   4.303   1.572  16.301 -1.1441 -0.0493  0.3120
 5242TIP3    H237142   4.337   1.428  16.334  0.1108 -0.4983 -2.7841
 5243TIP3   OH237143   0.363   0.311   1.851 -0.0110  0.8259 -0.2245
 5243TIP3    H137144   0.328   0.253   1.782 -1.6570  1.9815 -0.3946
 5243TIP3    H237145   0.290   0.322   1.911  0.6955  1.7254  0.4701
 5244TIP3   OH237146   3.616   4.175   4.573 -0.0985 -0.1431 -0.3594
 5244TIP3    H137147   3.619   4.169   4.668  1.1594  1.2613 -0.2976
 5244TIP3    H237148   3.618   4.084   4.543  1.5321 -0.5389  0.9012
 5245TIP3   OH237149   3.645   0.403   0.700 -0.2510 -0.1133  1.1197
 5245TIP3    H137150   3.687   0.373   0.619  0.7172 -1.7497  2.1796
 5245TIP3    H237151   3.701   0.368   0.770 -2.1284 -0.3915  2.5262
 5246TIP3   OH237152   0.846   2.480   0.214  0.2622 -0.0898  0.4342
 5246TIP3    H137153   0.769   2.504   0.163 -1.3907 -1.5837  2.1873
 5246TIP3    H237154   0.877   2.563   0.250 -0.3455  0.5545 -0.4783
 5247TIP3   OH237155   3.428   2.550  14.857 -0.0814 -0.1548  0.3997
 5247TIP3    H137156   3.519   2.529  14.877 -0.0579  0.2816  0.7658
 5247TIP3    H237157   3.378   2.505  14.925 -0.0298  0.9747  1.2042
 5248TIP3   OH237158   3.749   4.826  15.279  0.6061 -0.5152  0.3008
 5248TIP3    H137159   3.805   4.884  15.331 -0.7193 -1.5438  2.9826
 5248TIP3    H237160   3.798   4.744  15.272  0.3439 -0.7168  0.8214
 5249TIP3   OH237161   3.618   3.320  15.625  0.6096 -1.2924 -0.2314
 5249TIP3    H137162   3.642   3.311  15.718  1.3910  1.2676 -0.1384
 5249TIP3    H237163   3.523   3.325  15.626  0.7196  1.6271  0.7856
 5250TIP3   OH237164   6.114   5.925   2.851 -0.6654  0.5164  0.5581
 5250TIP3    H137165   6.183   5.881   2.801 -0.1323  1.5954  0.3392
 5250TIP3    H237166   6.047   5.857   2.864  0.3792 -0.5017  0.6820
 5251TIP3   OH237167   2.591   4.414   3.291 -0.3909  0.1039  0.4491
 5251TIP3    H137168   2.687   4.409   3.288 -0.4708 -1.0744 -0.8891
 5251TIP3    H237169   2.572   4.487   3.351  1.2955 -1.4077  2.8877
 5252TIP3   OH237170   6.360   1.667   0.288 -0.2380  0.5669 -0.1390
 5252TIP3    H137171   6.369   1.628   0.375 -1.8004  0.2857 -0.0815
 5252TIP3    H237172   6.274   1.638   0.258  0.2931  0.6661 -1.7869
 5253TIP3   OH237173   6.278   5.719  14.498  0.0566  0.5793  0.4290
 5253TIP3    H137174   6.354   5.776  14.487 -0.6973  1.2209 -1.8158
 5253TIP3    H237175   6.313   5.641  14.540  1.7685  1.2672  0.3409
 5254TIP3   OH237176   6.040   6.182   1.698 -0.1588  0.1316 -0.1096
 5254TIP3    H137177   6.121   6.187   1.749 -0.1668 -0.9158  0.0174
 5254TIP3    H237178   6.070   6.168   1.608 -0.1572  1.5074 -0.3338
 5255TIP3   OH237179   3.500   2.140   5.695  0.4323 -0.0235  0.0877
 5255TIP3    H137180   3.459   2.090   5.624  1.4506  2.7569 -2.5988
 5255TIP3    H237181   3.471   2.230   5.681  0.9377  0.6591  3.0735
 5256TIP3   OH237182   5.433   6.596  14.654  0.0618  0.0545 -0.1672
 5256TIP3    H137183   5.466   6.657  14.721 -1.4874 -0.2084  0.8650
 5256TIP3    H237184   5.414   6.516  14.702  0.4630 -0.6828 -1.2262
 5257TIP3   OH237185   4.075   1.445  14.767  0.1699  0.0088  0.0835
 5257TIP3    H137186   4.049   1.484  14.850 -1.0584 -0.1139 -0.2356
 5257TIP3    H237187   4.148   1.499  14.736 -0.3073  0.9131  0.5405
 5258TIP3   OH237188   3.217   2.018  14.471 -0.0953 -0.0996  0.0731
 5258TIP3    H137189   3.278   2.084  14.439 -1.0146 -0.6781 -3.0437
 5258TIP3    H237190   3.130   2.058  14.461 -0.3897 -0.0203  2.6188
 5259TIP3   OH237191   2.526   6.511   5.199  0.3222 -0.8445  0.4330
 5259TIP3    H137192   2.514   6.466   5.283 -1.2067  0.8727  1.1640
 5259TIP3    H237193   2.500   6.601   5.216 -1.4089 -0.7790 -2.2559
 5260TIP3   OH237194   0.308   3.684   3.256  0.3522  0.1316  0.0470
 5260TIP3    H137195   0.225   3.654   3.217  0.6282  0.0160 -0.4515
 5260TIP3    H237196   0.282   3.721   3.340  0.0244 -1.7767  0.8223
 5261TIP3   OH237197   3.238   4.131   1.858  0.0914  0.4086 -0.2732
 5261TIP3    H137198   3.303   4.174   1.913  1.1539  0.6607 -1.7000
 5261TIP3    H237199   3.283   4.117   1.774 -1.9721  1.4512 -1.5943
 5262TIP3   OH237200   3.085   2.606  12.650 -0.3491  0.0853 -0.6235
 5262TIP3    H137201   3.106   2.543  12.719  0.2611  1.6199  0.6295
 5262TIP3    H237202   3.170   2.623  12.608 -0.5503 -0.0706 -1.0970
 5263TIP3   OH237203   2.010   4.388   0.303  0.7771  0.7162 -0.1715
 5263TIP3    H137204   1.968   4.302   0.295 -4.2462  2.9548  0.5340
 5263TIP3    H237205   2.075   4.390   0.232  1.1361 -3.6422 -0.1122
 5264TIP3   OH237206   2.982   4.140   0.256  0.1628 -0.0262 -0.1280
 5264TIP3    H137207   2.933   4.206   0.206 -0.6198 -0.0880  0.5389
 5264TIP3    H237208   3.069   4.177   0.266 -0.2315  0.8470  0.1271
 5265TIP3   OH237209   3.622   4.481  13.436 -0.1379  0.5202  0.4571
 5265TIP3    H137210   3.671   4.468  13.355  0.3583 -0.8489  0.9582
 5265TIP3    H237211   3.681   4.452  13.505 -0.8013  1.0527  1.2627
 5266TIP3   OH237212   4.401   6.389   5.700 -0.3229 -0.2789  0.2319
 5266TIP3    H137213   4.337   6.360   5.636  1.6509 -1.1055 -1.4317
 5266TIP3    H237214   4.379   6.340   5.780 -1.1995 -1.2352 -0.5790
 5267TIP3   OH237215   0.311   0.455   2.384  0.2462  0.0759  0.1807
 5267TIP3    H137216   0.283   0.381   2.331  0.1061 -0.2872  0.7569
 5267TIP3    H237217   0.233   0.481   2.433 -0.0497  1.4384 -0.9801
 5268TIP3   OH237218   0.191   1.919  15.134 -0.5929  0.1163  0.2148
 5268TIP3    H137219   0.179   1.907  15.228 -1.6488 -2.9121 -0.2449
 5268TIP3    H237220   0.136   1.993  15.111 -0.4525  0.7686  1.9488
 5269TIP3   OH237221   4.712   4.499   2.357  0.1811  0.8347 -0.7368
 5269TIP3    H137222   4.732   4.587   2.323  2.1124  0.2899 -1.0848
 5269TIP3    H237223   4.793   4.450   2.345 -0.4797 -0.6392  0.6342
 5270TIP3   OH237224   6.037   3.808  15.994  0.1755 -0.4863  0.5191
 5270TIP3    H137225   6.129   3.793  15.971 -0.1023  1.5970 -2.1125
 5270TIP3    H237226   6.037   3.809  16.090  2.6981 -1.5497  0.5980
 5271TIP3   OH237227   1.508   3.379  16.686  0.0630  0.3321  0.0319
 5271TIP3    H137228   1.547   3.390  16.772  0.2473  0.9144 -0.1189
 5271TIP3    H237229   1.518   3.465  16.644 -0.6406  0.2484 -0.3120
 5272TIP3   OH237230   4.788   2.006   0.103 -0.2856 -0.6691 -0.0894
 5272TIP3    H137231   4.850   1.966   0.042 -0.3311 -1.5958  0.4648
 5272TIP3    H237232   4.719   2.042   0.047  1.0885  0.9777 -0.7596
 5273TIP3   OH237233   5.591   6.479  15.404 -0.2656 -0.2830 -0.4575
 5273TIP3    H137234   5.653   6.493  15.332  1.5312  1.1765  1.2971
 5273TIP3    H237235   5.620   6.397  15.445 -1.1493 -0.9942 -1.2349
 5274TIP3   OH237236   2.574   1.368  14.919  0.0943 -0.4036  0.1078
 5274TIP3    H137237   2.648   1.358  14.859 -1.2757  1.5249 -1.9859
 5274TIP3    H237238   2.501   1.323  14.875 -0.5880 -0.1230  0.9407
 5275TIP3   OH237239   4.151   3.892   1.883  0.1884  0.5925  0.0095
 5275TIP3    H137240   4.211   3.966   1.892  0.2206  0.4299  1.2123
 5275TIP3    H237241   4.205   3.823   1.845  0.9852  0.2246  1.7276
 5276TIP3   OH237242   2.144   3.352  16.544 -0.4455  0.0869  0.1356
 5276TIP3    H137243   2.234   3.347  16.509 -0.9803 -0.3808 -1.2042
 5276TIP3    H237244   2.141   3.285  16.612  0.1480 -0.0801  0.0009
 5277TIP3   OH237245   2.344   1.122  15.343  0.0751  0.2138  0.0534
 5277TIP3    H137246   2.343   1.030  15.319 -3.0014 -0.2893  1.8941
 5277TIP3    H237247   2.339   1.169  15.259  1.2022 -1.2848 -0.8618
 5278TIP3   OH237248   4.808   2.262   6.735 -0.3163  0.0389  0.1670
 5278TIP3    H137249   4.846   2.206   6.667 -0.4481 -0.0910  0.2003
 5278TIP3    H237250   4.742   2.314   6.690  0.8807  1.2780 -0.1715
 5279TIP3   OH237251   6.564   2.008  16.570  0.2963  0.3209  0.3084
 5279TIP3    H137252   6.560   1.965  16.655 -0.2482  2.3456  1.3239
 5279TIP3    H237253   6.619   2.085  16.584 -0.6962  1.2675 -0.9035
 5280TIP3   OH237254   3.492   3.126   1.362 -0.0631  0.4478 -0.1202
 5280TIP3    H137255   3.516   3.085   1.445  1.4893  3.0005  0.7613
 5280TIP3    H237256   3.566   3.107   1.304 -0.8761 -0.8267 -0.7508
 5281TIP3   OH237257   1.583   2.338   3.301  0.1330  0.1548  0.4148
 5281TIP3    H137258   1.662   2.301   3.340 -1.0877 -2.1478  0.7759
 5281TIP3    H237259   1.565   2.416   3.354 -0.9608 -2.3759  3.9768
 5282TIP3   OH237260   1.884   4.417   5.124  0.9014 -0.0351  0.1721
 5282TIP3    H137261   1.818   4.466   5.173  0.8595  0.6129 -0.5386
 5282TIP3    H237262   1.949   4.394   5.190 -1.1858 -2.7859  1.4094
 5283TIP3   OH237263   3.347   0.635  15.272  1.0825 -0.0125 -0.2075
 5283TIP3    H137264   3.388   0.557  15.234  0.8965  0.3756 -1.2269
 5283TIP3    H237265   3.254   0.623  15.257  1.1311  0.8796 -1.2847
 5284TIP3   OH237266   2.880   1.913  16.967 -0.7409  0.2060  0.1492
 5284TIP3    H137267   2.836   1.940  17.048  0.9410  1.9241  0.5312
 5284TIP3    H237268   2.856   1.981  16.904 -0.8975 -0.3663 -0.4068
 5285TIP3   OH237269   0.142   5.871   0.965 -0.0255  0.1360 -0.4101
 5285TIP3    H137270   0.164   5.963   0.951  0.9482 -0.4486 -2.7816
 5285TIP3    H237271   0.171   5.853   1.054  2.8907  1.2152 -1.1130
 5286TIP3   OH237272   1.037   5.775  13.182 -0.0352  0.7713  0.4540
 5286TIP3    H137273   1.127   5.803  13.200 -0.1210  0.9970  0.5354
 5286TIP3    H237274   0.990   5.791  13.263  0.2864 -1.1878  1.0614
 5287TIP3   OH237275   0.887   6.006  12.073 -0.1612  0.6291  0.4194
 5287TIP3    H137276   0.960   5.988  12.014  0.1166  1.9601  0.3387
 5287TIP3    H237277   0.927   6.009  12.160 -0.1215  1.3306  0.3784
 5288TIP3   OH237278   5.845   6.323  16.037 -0.5352 -0.5378 -0.3662
 5288TIP3    H137279   5.904   6.355  16.105 -0.6915  1.4460 -1.1441
 5288TIP3    H237280   5.774   6.280  16.085  0.2645 -0.7358  0.6472
 5289TIP3   OH237281   1.949   6.192   6.536 -0.0251  0.6960  0.4617
 5289TIP3    H137282   1.902   6.272   6.557  0.7799  0.7841  1.9448
 5289TIP3    H237283   2.033   6.222   6.502 -0.2244  0.4996 -0.2094
 5290TIP3   OH237284   6.236   4.552   2.892 -0.0134 -0.3446  0.6762
 5290TIP3    H137285   6.219   4.611   2.819  0.5778 -1.5902 -0.4874
 5290TIP3    H237286   6.326   4.521   2.878 -1.4734 -4.2419 -0.7186
 5291TIP3   OH237287   5.326   5.062  14.091  0.1986 -0.0417  0.1035
 5291TIP3    H137288   5.382   4.990  14.062 -0.2744 -0.4855  0.2748
 5291TIP3    H237289   5.370   5.096  14.169 -0.6267 -1.4884  1.2424
 5292TIP3   OH237290   4.927   6.044  14.259 -0.1044 -0.2000 -0.2818
 5292TIP3    H137291   5.012   6.011  14.229  1.0117  0.9441  1.4820
 5292TIP3    H237292   4.930   6.138  14.238 -0.3292  0.1229  1.1100
 5293TIP3   OH237293   3.498   4.176  16.883 -0.1764 -0.2730  0.6385
 5293TIP3    H137294   3.429   4.234  16.850  0.7353  0.5596  0.1719
 5293TIP3    H237295   3.563   4.235  16.920  0.1981 -1.0660  1.2584
 5294TIP3   OH237296   5.452   3.817  14.299 -0.1959 -0.1334 -0.3545
 5294TIP3    H137297   5.390   3.752  14.266  2.7341 -1.8773 -2.5967
 5294TIP3    H237298   5.538   3.776  14.289  1.4501  2.6298  1.7159
 5295TIP3   OH237299   6.042   0.384  14.818  0.0685  0.2795 -0.1024
 5295TIP3    H137300   6.084   0.451  14.764 -1.0260  0.4534 -0.7627
 5295TIP3    H237301   5.967   0.356  14.766  1.2904 -2.4917 -0.4562
 5296TIP3   OH237302   1.844   5.628  12.034  0.1224 -0.3246 -0.2492
 5296TIP3    H137303   1.876   5.716  12.057  0.1559 -0.1515 -0.9573
 5296TIP3    H237304   1.823   5.588  12.119 -2.7263  1.4141 -0.0630
 5297TIP3   OH237305   0.882   4.177  14.635  0.1002  0.1682  0.0135
 5297TIP3    H137306   0.911   4.207  14.721 -0.2022  0.5170 -0.0018
 5297TIP3    H237307   0.822   4.246  14.605 -1.0000 -0.6895  0.1856
 5298TIP3   OH237308   1.628   5.306  11.935 -0.5610  0.1707  0.2420
 5298TIP3    H137309   1.657   5.388  11.896 -0.7440 -0.3246 -0.9382
 5298TIP3    H237310   1.677   5.239  11.889 -1.1999 -0.4631  0.4761
 5299TIP3   OH237311   4.483   1.044  10.851 -0.2616  1.0112 -0.3736
 5299TIP3    H137312   4.499   1.008  10.764  1.5453  0.3159  0.2065
 5299TIP3    H237313   4.499   1.138  10.842  0.0515  0.9221 -0.7774
 5300TIP3   OH237314   3.357   5.975   1.142 -0.0493  0.6628 -0.5294
 5300TIP3    H137315   3.334   5.887   1.111  2.7441 -0.0052 -0.8698
 5300TIP3    H237316   3.422   5.959   1.211 -0.1814  2.4424  0.0229
 5301TIP3   OH237317   2.579   1.142  15.491  0.2114 -0.0730 -0.5860
 5301TIP3    H137318   2.502   1.164  15.438 -0.8344 -0.1443  0.8903
 5301TIP3    H237319   2.572   1.047  15.505  1.9674 -0.5516 -2.6082
 5302TIP3   OH237320   3.112   4.040  16.711  0.3631  0.1120  1.0251
 5302TIP3    H137321   3.029   4.046  16.758 -0.7315  0.8465 -0.9274
 5302TIP3    H237322   3.126   3.946  16.697 -1.0453  0.0489 -0.1308
 5303TIP3   OH237323   3.678   2.316   4.244  0.1197 -0.0437 -0.4268
 5303TIP3    H137324   3.623   2.262   4.187 -1.3955 -0.0305  0.9792
 5303TIP3    H237325   3.618   2.381   4.281  1.3565  0.8192  0.0972
 5304TIP3   OH237326   0.216   5.644  16.308  0.4982  0.5488  0.0691
 5304TIP3    H137327   0.239   5.714  16.370 -1.1558 -0.4789  1.9291
 5304TIP3    H237328   0.161   5.686  16.243  2.2263  1.6479 -0.6920
 5305TIP3   OH237329   5.015   4.879   4.234  0.2794 -0.0962 -0.3221
 5305TIP3    H137330   5.084   4.889   4.168  0.1456  1.9816 -0.2061
 5305TIP3    H237331   5.050   4.925   4.311 -1.9122  2.5808 -0.8332
 5306TIP3   OH237332   2.681   0.486  11.853  0.1343  0.1692 -0.2427
 5306TIP3    H137333   2.674   0.506  11.760 -1.5866  0.2093 -0.1120
 5306TIP3    H237334   2.685   0.390  11.857 -0.8808  0.1244 -0.2921
 5307TIP3   OH237335   4.971   2.097   4.177 -0.1179 -0.2630 -0.0156
 5307TIP3    H137336   5.033   2.031   4.146 -0.5449  0.1684 -1.8673
 5307TIP3    H237337   4.906   2.103   4.107 -1.1450  0.7446  0.9991
 5308TIP3   OH237338   6.077   1.623   0.205  0.6534  0.1949  0.1662
 5308TIP3    H137339   6.031   1.566   0.144  1.4813 -1.0772  0.7000
 5308TIP3    H237340   6.044   1.598   0.291 -0.9782  2.4204  0.2292
 5309TIP3   OH237341   2.487   2.695   4.893 -0.0953  0.3789  0.0216
 5309TIP3    H137342   2.399   2.661   4.877 -0.2343  1.9997 -3.3084
 5309TIP3    H237343   2.473   2.774   4.945 -0.6932  0.8638 -0.8480
 5310TIP3   OH237344   1.506   1.504  14.145  0.0859  0.3638 -0.3004
 5310TIP3    H137345   1.562   1.552  14.206  0.2477  0.9035 -0.8686
 5310TIP3    H237346   1.418   1.538  14.162  0.3690  1.7325 -1.5279
 5311TIP3   OH237347   2.097   2.879   0.695  0.2397 -0.6990  0.2219
 5311TIP3    H137348   2.081   2.934   0.619 -0.1001 -1.4067 -0.2291
 5311TIP3    H237349   2.013   2.876   0.741 -0.0182 -1.6206 -0.2853
 5312TIP3   OH237350   3.421   6.409  14.547 -0.1396 -0.4908  0.5390
 5312TIP3    H137351   3.373   6.418  14.465  0.0039 -1.2597  0.3667
 5312TIP3    H237352   3.379   6.472  14.606 -2.1943 -1.9818  0.7609
 5313TIP3   OH237353   3.697   5.313  11.222 -0.3915  0.2100 -0.3663
 5313TIP3    H137354   3.778   5.276  11.258  0.0666  0.4173 -1.1783
 5313TIP3    H237355   3.627   5.267  11.268  0.1877 -0.6381 -0.3284
 5314TIP3   OH237356   5.532   3.175  16.476  0.6070  0.2959  0.2071
 5314TIP3    H137357   5.452   3.162  16.527  0.6201 -0.5782  0.0109
 5314TIP3    H237358   5.537   3.270  16.463 -1.1195  0.2515 -0.9541
 5315TIP3   OH237359   6.463   1.798   5.472 -0.3259 -0.2776 -0.7072
 5315TIP3    H137360   6.417   1.849   5.538  2.1660  2.0773 -0.6785
 5315TIP3    H237361   6.421   1.712   5.474  0.0919 -0.5183  4.4402
 5316TIP3   OH237362   3.620   2.547   5.149  0.4096 -0.3789 -0.2224
 5316TIP3    H137363   3.649   2.467   5.104 -0.2897  0.2509 -1.8393
 5316TIP3    H237364   3.547   2.517   5.204  0.1174 -0.8544 -0.8551
 5317TIP3   OH237365   1.847   6.689  12.010  0.0284 -0.7592  0.1792
 5317TIP3    H137366   1.923   6.683  12.069  0.3731 -0.0563 -0.1985
 5317TIP3    H237367   1.862   6.768  11.958 -1.5739  0.0748  0.9516
 5318TIP3   OH237368   0.210   0.831  13.715 -0.0306  0.5979 -0.1033
 5318TIP3    H137369   0.164   0.909  13.683  0.1274  0.7379  0.0131
 5318TIP3    H237370   0.167   0.759  13.670  0.7367  0.8536 -1.2917
 5319TIP3   OH237371   2.696   3.697  14.864  0.4158  0.0415  0.3420
 5319TIP3    H137372   2.697   3.793  14.863 -0.2280  0.0481 -0.0571
 5319TIP3    H237373   2.765   3.673  14.925  0.6526  0.7622  0.3627
 5320TIP3   OH237374   2.175   3.561   4.089 -0.0419 -0.2079  0.2257
 5320TIP3    H137375   2.193   3.654   4.096  0.7936 -0.2168 -1.5647
 5320TIP3    H237376   2.080   3.554   4.103  0.2462  0.5955  2.8497
 5321TIP3   OH237377   0.099   2.397   2.470 -0.2003 -0.2272  0.0663
 5321TIP3    H137378   0.179   2.350   2.490  0.2692  0.5786  0.1176
 5321TIP3    H237379   0.036   2.366   2.535 -0.2763 -1.7309 -0.7065
 5322TIP3   OH237380   4.169   2.082   4.051 -0.4208  0.1616 -0.0783
 5322TIP3    H137381   4.142   2.001   4.008  0.1090  0.3498 -0.7683
 5322TIP3    H237382   4.197   2.054   4.139 -0.6211 -0.3462 -0.1743
 5323TIP3   OH237383   1.190   6.349   3.675 -0.1462 -0.8372 -0.7743
 5323TIP3    H137384   1.273   6.383   3.710  0.3323 -0.6868 -2.0256
 5323TIP3    H237385   1.183   6.261   3.711 -0.3452 -0.1927  0.7937
 5324TIP3   OH237386   4.083   4.942  15.168  0.5972 -0.3506  0.5115
 5324TIP3    H137387   4.045   4.980  15.088  0.9292  1.4618  1.1957
 5324TIP3    H237388   4.039   4.987  15.240 -0.4198 -2.6835  1.4093
 5325TIP3   OH237389   1.581   4.263  12.916  0.1442  0.2908  0.0385
 5325TIP3    H137390   1.658   4.312  12.887  0.3102  1.0083  1.6161
 5325TIP3    H237391   1.615   4.202  12.981 -0.4139 -0.3399 -0.2628
 5326TIP3   OH237392   4.972   0.084   4.003  0.3807 -0.4496  0.1494
 5326TIP3    H137393   5.010   0.171   3.995 -0.8155 -0.0232 -1.0903
 5326TIP3    H237394   5.037   0.025   3.965  0.5037  0.0846 -0.4713
 5327TIP3   OH237395   5.241   1.418  14.211  0.0354 -0.5727 -0.2432
 5327TIP3    H137396   5.146   1.407  14.202  0.2168 -1.0627 -1.6725
 5327TIP3    H237397   5.272   1.336  14.249 -0.0507 -0.6199 -0.2758
 5328TIP3   OH237398   3.158   6.648   4.908  0.1262 -0.0041  0.2164
 5328TIP3    H137399   3.089   6.644   4.843  1.2514 -1.2800 -0.9506
 5328TIP3    H237400   3.135   6.581   4.972  0.1178 -0.2146 -0.0069
 5329TIP3   OH237401   5.433   5.072   4.029  1.0441 -0.0575 -0.1818
 5329TIP3    H137402   5.482   5.040   3.953 -0.1272 -0.5726 -0.7357
 5329TIP3    H237403   5.352   5.021   4.028 -0.1006  1.7231 -0.0752
 5330TIP3   OH237404   0.343   3.263   5.582 -0.0854  0.4842 -0.1237
 5330TIP3    H137405   0.330   3.354   5.606 -1.3498  0.2708  0.0334
 5330TIP3    H237406   0.367   3.219   5.664 -2.7633  0.0683  0.4938
 5331TIP3   OH237407   1.484   2.851  12.467 -0.0037 -0.0905  0.1410
 5331TIP3    H137408   1.391   2.844  12.448 -0.5916  0.7131  2.4791
 5331TIP3    H237409   1.490   2.922  12.531  2.0214 -1.1939  1.2401
 5332TIP3   OH237410   4.279   3.756   1.004 -0.1518  0.0396  0.3819
 5332TIP3    H137411   4.186   3.738   0.993  0.0670 -0.8656  0.0018
 5332TIP3    H237412   4.311   3.774   0.916 -0.0695  0.8896  0.5771
 5333TIP3   OH237413   3.042   2.859  13.869 -0.8982 -0.1733 -0.0819
 5333TIP3    H137414   3.053   2.903  13.785  4.3242 -1.0385 -0.0301
 5333TIP3    H237415   3.032   2.767  13.846  1.2205 -0.4988  0.1937
 5334TIP3   OH237416   5.049   3.117   1.198  0.1007 -0.0905  0.0746
 5334TIP3    H137417   5.070   3.190   1.257  0.6520  0.2158 -0.4970
 5334TIP3    H237418   4.954   3.122   1.186  0.2611  1.1778 -0.7802
 5335TIP3   OH237419   5.411   4.797  14.195  0.5315  0.2913 -0.1647
 5335TIP3    H137420   5.415   4.701  14.190 -1.4591  0.1875 -0.0239
 5335TIP3    H237421   5.423   4.826  14.105  0.4693 -0.1076 -0.3052
 5336TIP3   OH237422   2.583   4.960  13.723 -0.3837  0.3277  0.2360
 5336TIP3    H137423   2.498   4.930  13.689 -0.9318  1.5559  0.4962
 5336TIP3    H237424   2.592   5.049  13.690 -0.6951  1.3865  2.8250
 5337TIP3   OH237425   6.403   3.474   5.092 -0.3982 -0.1624 -0.0416
 5337TIP3    H137426   6.400   3.511   5.003  0.6659  1.8516  0.7143
 5337TIP3    H237427   6.482   3.420   5.093 -0.8297 -0.8049 -0.5495
 5338TIP3   OH237428   0.174   0.554   6.681  0.0609  0.5623 -0.1401
 5338TIP3    H137429   0.223   0.484   6.639  1.7332  2.4080 -1.3533
 5338TIP3    H237430   0.233   0.587   6.749 -0.8316  0.6014  0.6293
 5339TIP3   OH237431   3.797   0.234  11.990 -0.1730  0.7264  0.2231
 5339TIP3    H137432   3.841   0.316  11.969 -0.3316  0.4476 -1.3108
 5339TIP3    H237433   3.833   0.171  11.927 -0.3374 -0.2940  1.1245
 5340TIP3   OH237434   6.278   2.727  16.417 -0.0261  0.5022  0.2827
 5340TIP3    H137435   6.190   2.690  16.407 -0.0208  0.5427  0.0642
 5340TIP3    H237436   6.332   2.675  16.357 -0.0400  0.9333 -0.1111
 5341TIP3   OH237437   2.557   4.572  13.780 -0.0789 -0.1665  0.0484
 5341TIP3    H137438   2.550   4.667  13.790  0.4735 -0.1168 -0.0407
 5341TIP3    H237439   2.633   4.548  13.832 -1.0561 -0.7464  1.2337
 5342TIP3   OH237440   5.288   5.937   5.060  0.1577  0.2037  0.0183
 5342TIP3    H137441   5.278   5.974   4.972  0.1773  1.2001  0.4244
 5342TIP3    H237442   5.348   5.997   5.104  2.2891 -1.7664 -0.1205
 5343TIP3   OH237443   6.284   4.087  15.286  0.7709  0.0425  0.0522
 5343TIP3    H137444   6.216   4.021  15.300  3.1224 -2.3185  0.5954
 5343TIP3    H237445   6.299   4.125  15.373  0.8892 -0.1434  0.1115
 5344TIP3   OH237446   4.609   1.263  14.687 -0.0411 -0.4015 -0.1395
 5344TIP3    H137447   4.579   1.174  14.668 -1.6333  0.7467 -3.3525
 5344TIP3    H237448   4.695   1.269  14.646 -0.6787  0.0457 -1.4419
 5345TIP3   OH237449   6.261   4.918  15.729 -0.0373 -0.2303 -0.3578
 5345TIP3    H137450   6.312   4.853  15.777 -0.1356 -0.5354 -0.6673
 5345TIP3    H237451   6.190   4.941  15.789  0.4343  0.1768  0.0645
 5346TIP3   OH237452   4.271   3.640   1.776 -0.0097 -0.7474  0.0946
 5346TIP3    H137453   4.348   3.598   1.816  0.7877  0.5011 -0.0963
 5346TIP3    H237454   4.293   3.645   1.683  0.2864  0.8403  0.2292
 5347TIP3   OH237455   5.064   0.227  11.385  0.3798 -0.4432 -0.1562
 5347TIP3    H137456   4.984   0.273  11.408  0.5360 -0.7673  1.0426
 5347TIP3    H237457   5.134   0.290  11.405  0.4329 -0.1645 -1.1895
 5348TIP3   OH237458   0.208   5.108   2.752 -0.2243  0.3867  0.1174
 5348TIP3    H137459   0.155   5.082   2.676 -0.4831 -1.3659  0.8570
 5348TIP3    H237460   0.257   5.185   2.723 -0.2561 -0.3163 -1.8575
 5349TIP3   OH237461   4.767   6.653  13.543  0.2704  0.9953  0.4203
 5349TIP3    H137462   4.679   6.688  13.528  0.3056  0.9714  0.1396
 5349TIP3    H237463   4.789   6.681  13.631 -0.7483 -0.5444  1.1835
 5350TIP3   OH237464   6.393   1.533   2.010  0.0152 -0.4977 -0.0870
 5350TIP3    H137465   6.417   1.559   2.098  0.5484  1.4696 -0.7968
 5350TIP3    H237466   6.326   1.596   1.983  0.6889 -0.3769 -1.5198
 5351TIP3   OH237467   0.407   1.957  16.888  0.2743 -0.5450  0.1050
 5351TIP3    H137468   0.435   2.038  16.844  3.1897 -1.6591 -0.2154
 5351TIP3    H237469   0.456   1.956  16.970 -0.8207 -1.3308  0.7680
 5352TIP3   OH237470   3.465   1.951  16.873  0.3305  0.1777 -0.3743
 5352TIP3    H137471   3.496   1.862  16.859 -0.5215 -0.1542 -0.1764
 5352TIP3    H237472   3.465   1.962  16.968 -2.9314 -0.8544 -0.1767
 5353TIP3   OH237473   4.850   5.296   3.974  0.1023  0.3126 -0.6507
 5353TIP3    H137474   4.881   5.372   4.025 -0.3324 -0.2105  0.4086
 5353TIP3    H237475   4.899   5.222   4.011 -2.2894 -0.5095  0.9538
 5354TIP3   OH237476   6.762   3.734  14.953  0.3894 -0.0587  0.7721
 5354TIP3    H137477   6.801   3.650  14.978 -0.1616 -1.3982 -2.6518
 5354TIP3    H237478   6.828   3.799  14.978  1.5316 -1.6345  1.9442
 5355TIP3   OH237479   2.511   3.671  13.327 -0.1951 -0.5079 -0.1287
 5355TIP3    H137480   2.556   3.742  13.372 -3.0757  1.1132  0.2760
 5355TIP3    H237481   2.517   3.694  13.234  0.7411 -0.8823 -0.1701
 5356TIP3   OH237482   5.724   5.451  16.255 -0.5468 -0.1425 -0.2097
 5356TIP3    H137483   5.808   5.449  16.301 -0.8538 -1.7758  0.3197
 5356TIP3    H237484   5.746   5.427  16.165 -0.3542  0.1190 -0.2348
 5357TIP3   OH237485   3.928   6.146   2.180 -1.1232 -0.0093  0.1072
 5357TIP3    H137486   3.934   6.241   2.172 -0.7681 -0.0763 -0.4626
 5357TIP3    H237487   3.835   6.129   2.194 -1.4414  0.3008 -1.5653
 5358TIP3   OH237488   1.485   4.703   2.048  0.3301  0.2439 -0.1252
 5358TIP3    H137489   1.510   4.612   2.034  0.1206  0.2420 -0.4876
 5358TIP3    H237490   1.566   4.752   2.039  0.6357 -0.0170  1.1373
 5359TIP3   OH237491   0.176   3.982  10.487 -0.0593 -0.0323 -0.3833
 5359TIP3    H137492   0.095   3.945  10.522  0.3875  0.8646  1.6768
 5359TIP3    H237493   0.151   4.067  10.451  0.1509  0.8580  1.4813
 5360TIP3   OH237494   1.248   2.308   5.116  0.9534 -0.6465 -0.2660
 5360TIP3    H137495   1.236   2.252   5.040  3.1216 -0.0496 -1.0639
 5360TIP3    H237496   1.254   2.247   5.190  0.5053 -1.3009 -0.7624
 5361TIP3   OH237497   6.044   1.229  12.197  0.2944 -0.2165  0.2707
 5361TIP3    H137498   5.978   1.281  12.244  0.2303 -1.5400  1.6953
 5361TIP3    H237499   5.994   1.183  12.129 -0.1386 -0.6726  0.8930
 5362TIP3   OH237500   0.775   3.131  12.858 -0.1383 -0.1884 -0.0381
 5362TIP3    H137501   0.826   3.137  12.939  0.1955 -1.3970 -0.1565
 5362TIP3    H237502   0.707   3.067  12.877 -0.4020 -0.0620 -0.5425
 5363TIP3   OH237503   5.092   5.433   1.592  0.5835 -0.1038  0.3334
 5363TIP3    H137504   5.027   5.502   1.592 -1.0226 -1.5694 -0.5754
 5363TIP3    H237505   5.153   5.456   1.522 -0.3005  0.0800 -0.3821
 5364TIP3   OH237506   4.267   5.173   2.100 -0.4188  0.2459 -0.0149
 5364TIP3    H137507   4.192   5.143   2.151 -0.3282  0.0345 -0.0057
 5364TIP3    H237508   4.339   5.116   2.127 -0.6450 -0.6384 -1.2530
 5365TIP3   OH237509   6.363   2.978  16.509 -0.4009 -0.2853 -0.1205
 5365TIP3    H137510   6.283   3.028  16.523 -0.5736 -0.3796 -0.7822
 5365TIP3    H237511   6.336   2.902  16.458  0.0688 -0.4402 -0.1429
 5366TIP3   OH237512   6.321   6.112  15.469 -0.6281  0.1099 -0.6873
 5366TIP3    H137513   6.243   6.143  15.514 -0.0794  0.0037  0.3571
 5366TIP3    H237514   6.382   6.089  15.540  1.6442  3.4129 -1.4138
 5367TIP3   OH237515   1.877   0.322   4.155 -1.1481 -0.2033  0.2595
 5367TIP3    H137516   1.966   0.289   4.142 -0.2843  2.3389 -0.4595
 5367TIP3    H237517   1.848   0.347   4.067 -2.3260 -0.3803  0.5929
 5368TIP3   OH237518   4.970   5.056  14.830  0.1461 -0.0264 -0.1810
 5368TIP3    H137519   4.948   5.112  14.905  1.8035 -2.4588  2.2439
 5368TIP3    H237520   4.998   5.116  14.762 -1.2658  2.2731  1.2049
 5369TIP3   OH237521   2.312   5.476   1.471 -0.2532 -0.3577  0.2041
 5369TIP3    H137522   2.266   5.553   1.437  1.3368  0.7547  0.4789
 5369TIP3    H237523   2.287   5.405   1.413 -3.3442 -0.0822  1.1377
 5370TIP3   OH237524   2.243   4.973   3.209  0.0039  0.2467  0.6963
 5370TIP3    H137525   2.307   4.993   3.140  0.1900  0.9207  1.0522
 5370TIP3    H237526   2.293   4.984   3.290 -0.5479  0.6914  0.9730
 5371TIP3   OH237527   1.327   2.910   1.533 -0.3568  0.0529  0.0166
 5371TIP3    H137528   1.361   2.945   1.615  0.5146 -0.6667 -0.0219
 5371TIP3    H237529   1.283   2.984   1.491  0.7784  0.8927  0.2953
 5372TIP3   OH237530   6.688   4.644  12.631  0.1430  0.0378 -0.5994
 5372TIP3    H137531   6.765   4.658  12.687 -0.5661 -0.1230  0.4294
 5372TIP3    H237532   6.613   4.666  12.687 -0.5619  0.1113 -1.5683
 5373TIP3   OH237533   6.110   6.531   1.182  0.1257  0.4904 -0.2013
 5373TIP3    H137534   6.147   6.478   1.112  0.6526  0.3288  0.1969
 5373TIP3    H237535   6.179   6.537   1.247 -0.7015 -0.2322  0.7713
 5374TIP3   OH237536   6.019   5.943   3.254  0.3567  0.0205  0.2686
 5374TIP3    H137537   6.084   5.941   3.324  0.2539  0.0395  0.3654
 5374TIP3    H237538   5.976   5.857   3.259  2.7931 -1.3928 -2.1030
 5375TIP3   OH237539   4.013   2.442   2.235 -0.6273  0.5433 -0.1493
 5375TIP3    H137540   4.102   2.469   2.213 -1.4982  2.5497 -1.2630
 5375TIP3    H237541   4.025   2.374   2.301  1.7590  0.1418 -0.9462
 5376TIP3   OH237542   6.361   2.701  11.345 -0.1236 -0.0342 -0.1274
 5376TIP3    H137543   6.314   2.625  11.312  1.5377 -1.0890 -0.0888
 5376TIP3    H237544   6.401   2.740  11.268 -0.2744  0.3143 -0.0303
 5377TIP3   OH237545   2.176   2.759   3.156  0.0203  0.4009 -0.4824
 5377TIP3    H137546   2.101   2.813   3.129  0.1895  0.8887  0.0067
 5377TIP3    H237547   2.248   2.822   3.167  0.7378 -0.1673 -1.7824
 5378TIP3   OH237548   4.744   5.864   3.082 -0.0309  0.0160  0.4511
 5378TIP3    H137549   4.657   5.829   3.103  0.1468 -0.2417  0.7670
 5378TIP3    H237550   4.783   5.798   3.025  0.1697 -0.1335  0.7607
 5379TIP3   OH237551   5.660   4.049   4.661  0.3628 -0.0229 -0.4021
 5379TIP3    H137552   5.645   4.009   4.576  0.2359  0.6300 -0.6882
 5379TIP3    H237553   5.661   4.143   4.644 -0.9263  0.1784  0.5003
 5380TIP3   OH237554   1.802   0.843  12.200 -0.0386  0.0738 -0.2830
 5380TIP3    H137555   1.891   0.822  12.229 -0.7252  0.4723  2.2082
 5380TIP3    H237556   1.747   0.829  12.277 -1.9786  1.0543 -1.4285
 5381TIP3   OH237557   1.389   6.185   2.725  0.0186  0.1936 -0.3642
 5381TIP3    H137558   1.388   6.161   2.632 -0.7044 -0.5972 -0.1581
 5381TIP3    H237559   1.480   6.208   2.742  0.5964 -1.6520 -0.7758
 5382TIP3   OH237560   5.297   6.008  16.621  0.7907 -0.1006  0.1091
 5382TIP3    H137561   5.345   5.931  16.590  1.0275 -0.0449  0.3389
 5382TIP3    H237562   5.218   5.972  16.661  1.1525 -0.2564  0.6864
 5383TIP3   OH237563   4.923   3.744  13.611  0.2378  0.4262  0.1791
 5383TIP3    H137564   4.845   3.736  13.556  0.8066 -0.3848 -0.5241
 5383TIP3    H237565   4.914   3.673  13.675  0.3339  0.4029  0.1665
 5384TIP3   OH237566   4.796   5.000  17.039 -0.0672 -0.6154 -0.2185
 5384TIP3    H137567   4.822   4.939  17.109  0.3424  0.3957  0.5289
 5384TIP3    H237568   4.731   5.057  17.080  0.5275  0.2936 -0.5130
 5385TIP3   OH237569   0.533   1.535  17.011  0.1107  0.5817 -0.1084
 5385TIP3    H137570   0.566   1.518  17.100  0.1734  0.7533 -0.1008
 5385TIP3    H237571   0.447   1.574  17.024 -1.0173 -1.8122 -0.1586
 5386TIP3   OH237572   3.231   4.728   5.487  0.6772 -0.8365  0.0438
 5386TIP3    H137573   3.272   4.787   5.550  2.1444 -1.7210 -0.0712
 5386TIP3    H237574   3.286   4.734   5.409 -1.0582  0.1546 -1.1345
 5387TIP3   OH237575   5.983   2.907   2.548  0.5278  0.0955 -0.0800
 5387TIP3    H137576   5.905   2.890   2.495  0.7384  0.8161 -0.6310
 5387TIP3    H237577   5.996   3.002   2.542  1.4663 -0.0246 -0.0223
 5388TIP3   OH237578   3.236   6.571  13.694 -0.4511  0.0288 -0.1747
 5388TIP3    H137579   3.247   6.647  13.637  2.6729  0.5814  1.0161
 5388TIP3    H237580   3.227   6.497  13.634  1.5258  0.7448 -1.4302
 5389TIP3   OH237581   2.891   0.684  12.716 -0.4671  0.3612  0.2838
 5389TIP3    H137582   2.803   0.695  12.754 -0.2912 -0.0661  0.8089
 5389TIP3    H237583   2.922   0.774  12.702 -1.4844  0.5246 -1.0658
 5390TIP3   OH237584   1.593   2.354  13.154 -0.1469  0.0505  0.5735
 5390TIP3    H137585   1.515   2.325  13.106 -0.3135  1.1269  0.1739
 5390TIP3    H237586   1.561   2.428  13.207  0.2416 -0.5369  1.6425
 5391TIP3   OH237587   6.437   5.398   0.641 -0.0253  0.6425 -0.2623
 5391TIP3    H137588   6.445   5.304   0.658  1.9584  1.0784  1.4794
 5391TIP3    H237589   6.502   5.438   0.699 -0.5820  3.0666 -1.2582
 5392TIP3   OH237590   0.803   6.465   3.588  0.3252  0.1953  0.6909
 5392TIP3    H137591   0.724   6.518   3.594  0.1859 -0.0895  1.4794
 5392TIP3    H237592   0.873   6.527   3.569 -0.1472  0.3998 -0.4105
 5393TIP3   OH237593   2.950   3.272  10.789  0.2026  0.1895  0.2970
 5393TIP3    H137594   3.030   3.229  10.759 -0.7525 -1.7570  0.4809
 5393TIP3    H237595   2.965   3.286  10.883 -0.0943 -1.1147  0.5390
 5394TIP3   OH237596   0.099   3.169   3.650 -0.4785  0.1783 -0.0786
 5394TIP3    H137597   0.145   3.102   3.599 -0.9195 -0.0698 -0.1609
 5394TIP3    H237598   0.026   3.195   3.593 -0.9446 -0.0626  0.4101
 5395TIP3   OH237599   0.920   6.113   0.547 -0.3106  0.5089  0.2250
 5395TIP3    H137600   0.936   6.141   0.637 -0.8416  1.0973  0.1361
 5395TIP3    H237601   0.825   6.101   0.542 -0.3976  1.4952 -0.5536
 5396TIP3   OH237602   1.765   1.060   1.619  0.2160  0.0270  0.5606
 5396TIP3    H137603   1.709   0.997   1.663  0.3238 -0.7623 -0.4151
 5396TIP3    H237604   1.706   1.131   1.594 -0.0214  0.0181  1.0799
 5397TIP3   OH237605   4.876   3.527  12.315 -0.0319  0.3608 -0.7929
 5397TIP3    H137606   4.886   3.486  12.229 -0.0508  1.0069 -1.1107
 5397TIP3    H237607   4.966   3.549  12.342  0.2575 -2.3472  0.6181
 5398TIP3   OH237608   4.858   1.508   0.262 -0.4215 -0.2309  0.1990
 5398TIP3    H137609   4.845   1.485   0.169  0.3302  0.7019 -0.1456
 5398TIP3    H237610   4.917   1.440   0.295  0.7198  0.4246 -0.4655
 5399TIP3   OH237611   3.013   2.295  15.607 -0.4866 -0.1699 -0.3517
 5399TIP3    H137612   2.921   2.269  15.610 -0.7771  0.8584 -0.4623
 5399TIP3    H237613   3.020   2.352  15.531  0.6410 -1.7502 -1.4846
 5400TIP3   OH237614   5.562   3.177  11.760 -0.4675 -0.1938 -0.5777
 5400TIP3    H137615   5.646   3.222  11.764 -0.2810 -0.5350 -0.6592
 5400TIP3    H237616   5.580   3.095  11.713 -1.1249  0.3640 -1.8229
 5401TIP3   OH237617   3.623   3.012  15.420 -0.1426  0.4253 -0.1973
 5401TIP3    H137618   3.675   3.072  15.473 -0.5276  1.2377 -0.7170
 5401TIP3    H237619   3.685   2.944  15.391  0.7995  1.7487 -1.3760
 5402TIP3   OH237620   5.765   1.845   1.184  0.0418 -0.1601  0.0131
 5402TIP3    H137621   5.685   1.886   1.217 -0.7746 -2.3014  0.8261
 5402TIP3    H237622   5.772   1.875   1.094  0.0361  2.5293  0.8869
 5403TIP3   OH237623   1.952   5.340  13.720 -0.0171 -0.2151  0.0294
 5403TIP3    H137624   1.967   5.272  13.655 -1.2452 -0.5180  0.0401
 5403TIP3    H237625   1.996   5.308  13.799 -1.8117 -1.7455  0.4743
 5404TIP3   OH237626   2.212   1.523   1.954 -0.5458 -0.0736 -0.1841
 5404TIP3    H137627   2.261   1.605   1.951 -1.9267  0.7272 -1.3369
 5404TIP3    H237628   2.274   1.457   1.922 -0.1265  0.8998 -1.4318
 5405TIP3   OH237629   1.804   0.614  11.028  0.4772  0.3533  0.4997
 5405TIP3    H137630   1.858   0.610  10.949 -0.8542  1.4827 -0.4713
 5405TIP3    H237631   1.768   0.526  11.037 -1.8312  0.9965 -1.9036
 5406TIP3   OH237632   5.039   0.223  13.903  0.0464 -0.1804  0.4012
 5406TIP3    H137633   5.051   0.165  13.827 -2.9523  0.9119 -0.9576
 5406TIP3    H237634   5.005   0.304  13.866  0.4383  1.0901  2.7397
 5407TIP3   OH237635   1.094   4.024   3.608 -0.3074 -0.2455  0.6722
 5407TIP3    H137636   1.133   3.968   3.676 -1.2696 -0.7101  0.8453
 5407TIP3    H237637   1.001   4.001   3.609 -0.2087 -0.7856 -1.2930
 5408TIP3   OH237638   5.232   3.666  14.240 -0.2586 -0.3179 -0.3121
 5408TIP3    H137639   5.182   3.625  14.169 -0.3763 -0.5155 -0.1152
 5408TIP3    H237640   5.166   3.693  14.304 -0.1009 -0.7564  0.0397
 5409TIP3   OH237641   2.690   4.220  13.097  0.3557 -0.1627  0.0654
 5409TIP3    H137642   2.641   4.147  13.136  1.8647 -0.7056  0.9965
 5409TIP3    H237643   2.688   4.288  13.163 -0.5524  0.4426 -0.5712
 5410TIP3   OH237644   5.857   4.033   5.410  0.3562 -0.2381 -0.4217
 5410TIP3    H137645   5.913   4.057   5.336 -0.3880 -0.6111 -1.1132
 5410TIP3    H237646   5.797   4.107   5.420  0.4803 -0.1717 -0.1745
 5411TIP3   OH237647   4.257   4.467  15.808 -0.7147 -0.2597  0.3433
 5411TIP3    H137648   4.215   4.551  15.792 -0.2755  0.1217  1.1373
 5411TIP3    H237649   4.324   4.460  15.741 -0.2815  0.3542  0.7052
 5412TIP3   OH237650   2.433   0.337   2.518 -0.4214  0.6869 -0.1369
 5412TIP3    H137651   2.495   0.406   2.544 -0.5427  1.5879 -2.1094
 5412TIP3    H237652   2.362   0.343   2.581 -0.0028  1.7809  0.2428
 5413TIP3   OH237653   5.988   2.714   7.038  0.1339 -0.2792 -0.7151
 5413TIP3    H137654   5.929   2.786   7.059 -0.9138 -1.2735 -0.1608
 5413TIP3    H237655   5.997   2.718   6.943 -2.8543 -1.5901 -1.1252
 5414TIP3   OH237656   4.264   4.821  15.933  0.3377  0.1026  0.1753
 5414TIP3    H137657   4.352   4.832  15.897  0.4367 -0.6278  0.2055
 5414TIP3    H237658   4.209   4.805  15.857  0.3373 -0.1036  0.2186
 5415TIP3   OH237659   0.261   1.179   1.598  0.1685  0.0007  0.1616
 5415TIP3    H137660   0.286   1.242   1.665  0.5533  1.6885 -1.5447
 5415TIP3    H237661   0.340   1.128   1.581  0.3786  0.3208  0.1804
 5416TIP3   OH237662   5.531   0.023   2.340  0.0366  1.0470  0.4912
 5416TIP3    H137663   5.454  -0.031   2.357  1.4510 -1.8414 -1.8064
 5416TIP3    H237664   5.593  -0.002   2.408 -0.4158  2.1133  1.3076
 5417TIP3   OH237665   1.559   3.743  15.978  0.4438 -0.5359  0.4351
 5417TIP3    H137666   1.607   3.758  15.897  1.1034  0.5878  1.0191
 5417TIP3    H237667   1.480   3.695  15.952  0.6399 -0.1495 -0.8636
 5418TIP3   OH237668   1.326   0.069  15.981 -0.5975  0.3848  0.3263
 5418TIP3    H137669   1.404   0.123  15.976 -0.5704  0.4782  1.4581
 5418TIP3    H237670   1.260   0.126  16.021 -1.3059  0.3676 -0.8018
 5419TIP3   OH237671   6.669   0.525  13.153 -0.2957  0.4831  0.0776
 5419TIP3    H137672   6.588   0.477  13.133 -0.9259  1.1033  1.1023
 5419TIP3    H237673   6.675   0.523  13.248 -0.0861  2.0286  0.1079
 5420TIP3   OH237674   2.982   5.829   3.279  0.0006  0.4273 -0.3544
 5420TIP3    H137675   3.015   5.919   3.289  0.6789  0.2370 -0.8313
 5420TIP3    H237676   2.889   5.840   3.260  0.1002  1.0398 -0.5052
 5421TIP3   OH237677   1.476   1.884  16.379 -0.1030  0.1537 -0.4308
 5421TIP3    H137678   1.444   1.816  16.320 -0.5728 -1.6545  1.8019
 5421TIP3    H237679   1.416   1.880  16.454  0.7456  2.0486  0.3835
 5422TIP3   OH237680   0.298   6.203  14.761 -0.1695  0.1108  0.3520
 5422TIP3    H137681   0.305   6.114  14.797 -0.2143 -0.3438 -0.7197
 5422TIP3    H237682   0.204   6.218  14.753 -0.2004  0.9523  2.1846
 5423TIP3   OH237683   2.847   1.664  16.886  0.4779  0.4424  0.1078
 5423TIP3    H137684   2.841   1.752  16.925  2.0993  0.5975  0.0535
 5423TIP3    H237685   2.899   1.677  16.807  1.9536 -0.7665  0.8370
 5424TIP3   OH237686   4.112   4.576   3.164 -0.0392 -0.2204 -0.0428
 5424TIP3    H137687   4.020   4.553   3.176 -0.0347  0.4218  1.2527
 5424TIP3    H237688   4.121   4.663   3.201  1.2359 -0.5327  0.4228
 5425TIP3   OH237689   2.920   6.750   2.575 -0.1110 -0.1670  0.0253
 5425TIP3    H137690   2.875   6.835   2.569 -0.2764 -0.1701  1.0338
 5425TIP3    H237691   3.006   6.772   2.609  0.2993 -0.2729 -0.9400
 5426TIP3   OH237692   6.000   4.751   1.550  0.3170  0.1586  0.1141
 5426TIP3    H137693   6.030   4.842   1.542  0.9191 -0.1387 -1.1501
 5426TIP3    H237694   5.926   4.745   1.491  0.5492 -0.2863 -0.1323
 5427TIP3   OH237695   2.557   6.319  13.883 -0.3883 -0.3874 -0.1712
 5427TIP3    H137696   2.554   6.318  13.979  0.2860  1.2958 -0.1283
 5427TIP3    H237697   2.629   6.379  13.862 -0.7112 -0.5450 -1.7397
 5428TIP3   OH237698   1.098   4.912   5.303 -0.4283  0.0051  0.0528
 5428TIP3    H137699   1.042   4.852   5.253 -0.4840  0.7706 -0.8129
 5428TIP3    H237700   1.172   4.929   5.245 -1.1203  1.9180 -0.3008
 5429TIP3   OH237701   2.954   4.962  15.948 -0.3878  0.1385 -0.0184
 5429TIP3    H137702   2.870   4.928  15.979 -0.9585  1.6177  0.1130
 5429TIP3    H237703   2.946   4.965  15.852  0.1811 -1.3880 -0.1227
 5430TIP3   OH237704   6.334   2.161  16.480 -0.6256  0.0749  0.7523
 5430TIP3    H137705   6.379   2.117  16.551 -0.1523  1.5098  1.3597
 5430TIP3    H237706   6.258   2.203  16.521 -0.9962 -0.0619  0.2146
 5431TIP3   OH237707   6.484   3.968   1.500  0.1827  0.2105 -0.2891
 5431TIP3    H137708   6.578   3.952   1.494  0.2709  0.7132 -0.2923
 5431TIP3    H237709   6.444   3.885   1.475  0.6301 -0.1662  0.2201
 5432TIP3   OH237710   0.576   2.943  11.046  0.1467  0.2557 -0.0558
 5432TIP3    H137711   0.481   2.944  11.035 -0.0140  1.9781  1.2867
 5432TIP3    H237712   0.608   2.886  10.976 -1.8087  0.3585 -1.0512
 5433TIP3   OH237713   4.844   3.588  13.073  0.7320 -0.0699 -0.0543
 5433TIP3    H137714   4.859   3.494  13.058  0.6545 -0.0697 -0.1324
 5433TIP3    H237715   4.817   3.622  12.987  3.0972  0.4864 -0.6059
 5434TIP3   OH237716   5.420   6.304   0.223 -0.3351  0.4211  0.1419
 5434TIP3    H137717   5.367   6.292   0.144  1.9952 -0.8620 -1.2786
 5434TIP3    H237718   5.444   6.397   0.221 -2.4726  1.0153  0.7926
 5435TIP3   OH237719   6.365   5.365  16.344  0.3426 -0.0828  0.1248
 5435TIP3    H137720   6.379   5.401  16.431 -0.0037  1.0355 -0.2719
 5435TIP3    H237721   6.452   5.339  16.314  0.4397 -0.6163  0.8631
 5436TIP3   OH237722   2.586   2.176  11.269  0.6727 -0.0687  0.8031
 5436TIP3    H137723   2.605   2.248  11.329 -1.1011  0.2480  1.0355
 5436TIP3    H237724   2.494   2.154  11.288  0.1174 -0.0419 -1.7081
 5437TIP3   OH237725   5.636   1.018   2.051  0.4321  0.0930 -0.3589
 5437TIP3    H137726   5.601   0.932   2.028 -1.8834  0.9726 -0.3034
 5437TIP3    H237727   5.628   1.070   1.971  0.5464  0.6379 -0.0210
 5438TIP3   OH237728   4.149   5.121   5.509  0.0430 -0.1328 -0.2715
 5438TIP3    H137729   4.200   5.189   5.465 -2.3474  2.4511  0.7770
 5438TIP3    H237730   4.068   5.115   5.459 -0.1793 -1.5197  0.2251
 5439TIP3   OH237731   6.310   6.608  16.970  0.3439  0.1168  0.2862
 5439TIP3    H137732   6.274   6.554  17.040 -0.2423 -0.2593 -0.3005
 5439TIP3    H237733   6.390   6.646  17.007  2.2671 -3.3213 -0.1989
 5440TIP3   OH237734   2.553   0.633   1.943  0.1666  0.3358  0.6988
 5440TIP3    H137735   2.624   0.697   1.934  1.5201 -1.2174  0.0487
 5440TIP3    H237736   2.583   0.556   1.894 -2.1247 -0.2386  0.1097
 5441TIP3   OH237737   0.951   6.590   2.520  0.9265  0.0628  0.5418
 5441TIP3    H137738   0.925   6.499   2.505  0.6086  0.1555  0.5383
 5441TIP3    H237739   0.878   6.629   2.567  0.3113  0.7891 -0.9829
 5442TIP3   OH237740   2.832   4.428  11.186  0.2673 -0.5723  0.0920
 5442TIP3    H137741   2.771   4.368  11.143 -1.6993 -1.0551  3.4096
 5442TIP3    H237742   2.794   4.515  11.171  0.5177 -0.5741 -0.5807
 5443TIP3   OH237743   0.917   6.227  10.511 -0.0037 -0.0887  0.3257
 5443TIP3    H137744   0.843   6.183  10.552  0.0133 -0.6120 -0.2043
 5443TIP3    H237745   0.993   6.173  10.534 -0.0401 -0.5860 -0.6894
 5444TIP3   OH237746   2.452   2.657  12.929  0.3100  0.4904  0.4295
 5444TIP3    H137747   2.423   2.748  12.922 -0.9296  0.0636 -0.1585
 5444TIP3    H237748   2.398   2.620  12.999 -2.3268 -0.9354 -2.2386
 5445TIP3   OH237749   3.155   0.895  15.861  0.6745  0.4164 -0.2612
 5445TIP3    H137750   3.119   0.824  15.914  2.2573 -0.0891  0.1433
 5445TIP3    H237751   3.175   0.854  15.777 -0.7692  0.9661 -0.8976
 5446TIP3   OH237752   0.208   6.154   1.027  0.2057  0.5906  0.1318
 5446TIP3    H137753   0.268   6.212   0.981 -0.6114  1.8316  0.6254
 5446TIP3    H237754   0.124   6.198   1.025 -0.9964 -1.6773 -1.5659
 5447TIP3   OH237755   4.351   5.788   3.981 -0.1039 -0.5836 -0.0602
 5447TIP3    H137756   4.425   5.744   4.022  1.1445  2.1349  0.7425
 5447TIP3    H237757   4.389   5.834   3.907 -1.5557 -1.6371 -1.4925
 5448TIP3   OH237758   3.299   3.763  14.700 -0.3773  0.0327  0.2054
 5448TIP3    H137759   3.245   3.683  14.699 -1.4832  0.7020  2.0647
 5448TIP3    H237760   3.247   3.827  14.652  0.8659 -0.5442 -1.9751
 5449TIP3   OH237761   1.280   5.455  13.335 -0.1312  0.2184 -0.1152
 5449TIP3    H137762   1.218   5.480  13.404 -0.1077 -1.4124  0.5215
 5449TIP3    H237763   1.226   5.418  13.266  0.1237 -1.4603  0.5567
 5450TIP3   OH237764   5.522   4.646  14.520 -1.0826 -0.6751 -0.3824
 5450TIP3    H137765   5.519   4.558  14.482 -1.9421 -0.1710 -1.5108
 5450TIP3    H237766   5.552   4.702  14.448 -2.2164  0.2095 -0.1715
 5451TIP3   OH237767   3.137   1.730   6.013 -0.4413 -0.1443  0.0299
 5451TIP3    H137768   3.199   1.775   6.070 -1.8617  0.9816  0.7161
 5451TIP3    H237769   3.111   1.652   6.062 -0.8257  0.2512  0.4582
 5452TIP3   OH237770   1.911   0.134   3.444  0.0221 -0.0218 -0.3758
 5452TIP3    H137771   1.820   0.159   3.424  0.2714  1.9482  0.8051
 5452TIP3    H237772   1.935   0.189   3.518  1.2086 -2.6535  1.2720
 5453TIP3   OH237773   6.223   5.176  11.788 -0.1465  0.2706  0.0034
 5453TIP3    H137774   6.269   5.257  11.766  1.1326 -0.2940  0.5940
 5453TIP3    H237775   6.271   5.108  11.742 -0.1916 -0.3606  0.8891
 5454TIP3   OH237776   4.988   0.666   2.736 -0.2524 -0.0121 -0.5592
 5454TIP3    H137777   4.915   0.692   2.791 -1.5662 -0.6943 -1.9440
 5454TIP3    H237778   4.963   0.695   2.648  0.8908 -0.7423 -1.1368
 5455TIP3   OH237779   4.916   1.597  16.008  0.1191 -0.0626  0.2094
 5455TIP3    H137780   4.913   1.503  16.025  0.2538  0.0186  0.6883
 5455TIP3    H237781   4.983   1.630  16.067 -0.7864  0.5211  0.9293
 5456TIP3   OH237782   4.304   5.014  16.620  0.5452 -0.2678  0.3024
 5456TIP3    H137783   4.296   4.945  16.555 -0.5708  0.9460 -0.8648
 5456TIP3    H237784   4.276   4.973  16.702  1.8661 -1.7768  0.0299
 5457TIP3   OH237785   5.423   5.584   5.915  0.1295 -0.1147 -0.3700
 5457TIP3    H137786   5.454   5.607   6.002 -3.1121 -1.0280  1.0944
 5457TIP3    H237787   5.414   5.668   5.869 -0.9016  0.6238  1.1528
 5458TIP3   OH237788   3.433   5.171  13.262 -0.3936  0.5580  0.0105
 5458TIP3    H137789   3.474   5.237  13.317  0.2056  0.6429 -0.5293
 5458TIP3    H237790   3.506   5.122  13.224 -0.8270 -0.2018  0.1466
 5459TIP3   OH237791   5.066   3.739   5.262  0.0930 -0.4858  0.4794
 5459TIP3    H137792   5.147   3.780   5.292  0.9117 -1.4594 -0.3305
 5459TIP3    H237793   4.999   3.807   5.271  1.0289  0.3690  1.0298
 5460TIP3   OH237794   5.134   3.178   5.969 -0.2027  0.6119  0.2274
 5460TIP3    H137795   5.123   3.093   6.013 -0.0655  0.3428 -0.2485
 5460TIP3    H237796   5.192   3.159   5.895 -1.6681  0.7318 -0.9783
 5461TIP3   OH237797   3.189   3.568   4.959  0.9512 -0.0758 -0.1941
 5461TIP3    H137798   3.202   3.481   4.922  1.3861  0.2544 -0.8230
 5461TIP3    H237799   3.095   3.585   4.947  1.1429  0.1633 -1.4554
 5462TIP3   OH237800   2.402   4.518   0.429  0.1317  0.0067  0.2353
 5462TIP3    H137801   2.366   4.437   0.464 -1.4527 -0.1787 -1.7276
 5462TIP3    H237802   2.346   4.587   0.466 -0.3047 -0.0305 -0.3506
 5463TIP3   OH237803   0.541   3.439  14.612 -0.0744 -0.3107 -0.6916
 5463TIP3    H137804   0.595   3.437  14.691  0.1765  1.6127 -0.7731
 5463TIP3    H237805   0.455   3.409  14.640  0.9612 -3.1761 -0.5100
 5464TIP3   OH237806   1.077   4.385  16.200 -0.6049  0.4615 -0.3677
 5464TIP3    H137807   1.116   4.386  16.288 -0.2074  0.2244 -0.5408
 5464TIP3    H237808   1.101   4.470  16.163 -1.2768  0.8024 -0.0273
 5465TIP3   OH237809   4.542   3.880   1.917 -0.3502 -0.5259  0.9063
 5465TIP3    H137810   4.605   3.952   1.922 -0.9371 -0.0247  1.1196
 5465TIP3    H237811   4.457   3.923   1.913 -0.5996 -1.1437 -1.1840
 5466TIP3   OH237812   0.730   0.422   1.334  0.2331  0.2118 -0.4483
 5466TIP3    H137813   0.752   0.504   1.378 -1.5190  0.8607 -0.7306
 5466TIP3    H237814   0.634   0.417   1.339  0.1075 -0.4399 -2.8193
 5467TIP3   OH237815   2.259   0.884  15.277 -0.0171  0.9765 -0.0490
 5467TIP3    H137816   2.190   0.851  15.219 -0.7410 -0.3649  1.5244
 5467TIP3    H237817   2.322   0.813  15.282  0.5855  1.5129 -0.0686
 5468TIP3   OH237818   3.239   2.510   1.883 -0.1956  0.2671 -0.1932
 5468TIP3    H137819   3.293   2.576   1.926  1.4049 -0.4789 -1.0402
 5468TIP3    H237820   3.164   2.559   1.849  0.2151  1.3955  0.4974
 5469TIP3   OH237821   1.080   1.386  14.275 -0.6301  0.6838 -0.3797
 5469TIP3    H137822   1.135   1.444  14.221 -1.4662  1.4629 -0.4207
 5469TIP3    H237823   1.006   1.441  14.300 -0.7923 -0.0057  0.6651
 5470TIP3   OH237824   4.186   3.845  17.004 -0.3414  0.1905 -0.4666
 5470TIP3    H137825   4.184   3.940  17.008 -4.0201  0.1408  0.7961
 5470TIP3    H237826   4.113   3.817  17.059  0.5774 -3.3537 -0.9241
 5471TIP3   OH237827   1.363   1.686   0.713  0.5821  0.5125  0.2059
 5471TIP3    H137828   1.455   1.709   0.701  0.7210  0.3721  0.9770
 5471TIP3    H237829   1.337   1.645   0.630  1.1340  0.7903 -0.1087
 5472TIP3   OH237830   5.527   0.296  16.310 -0.4137  0.0341 -0.6847
 5472TIP3    H137831   5.431   0.291  16.311 -0.4752  1.0014 -1.6206
 5472TIP3    H237832   5.555   0.216  16.265 -0.8223  0.2884 -1.3972
 5473TIP3   OH237833   5.457   5.519  12.997 -0.1710  0.2461 -0.2636
 5473TIP3    H137834   5.504   5.499  12.916  0.0068  1.7245 -0.5442
 5473TIP3    H237835   5.512   5.484  13.067 -0.0253 -0.4878 -0.7487
 5474TIP3   OH237836   3.531   4.298   0.367 -0.1202 -0.2965  0.3868
 5474TIP3    H137837   3.618   4.270   0.338 -0.3361 -2.0908  1.4143
 5474TIP3    H237838   3.541   4.314   0.461 -0.1781  2.4916 -0.0265
 5475TIP3   OH237839   6.134   5.600  14.940 -0.6645  0.7897  0.3880
 5475TIP3    H137840   6.108   5.548  15.016  0.6770  0.4271  0.6081
 5475TIP3    H237841   6.109   5.690  14.963 -0.2086  0.6938  1.2914
 5476TIP3   OH237842   4.822   5.588   2.241 -0.5322 -0.2989 -0.2392
 5476TIP3    H137843   4.748   5.597   2.301 -0.5262  1.1567 -0.4222
 5476TIP3    H237844   4.788   5.614   2.156  0.0979  0.0538 -0.3907
 5477TIP3   OH237845   3.467   1.137   5.310 -0.2967 -0.2388  1.3471
 5477TIP3    H137846   3.457   1.063   5.370 -0.8936 -0.9768  0.3373
 5477TIP3    H237847   3.562   1.151   5.306 -0.1938 -0.8140  1.6890
 5478TIP3   OH237848   5.405   2.601  15.631  0.5666 -0.2218 -0.6242
 5478TIP3    H137849   5.399   2.697  15.633  1.8674 -0.1199 -0.9353
 5478TIP3    H237850   5.460   2.582  15.555 -2.0814 -1.3775 -2.2856
 5479TIP3   OH237851   1.237   1.895  15.537 -0.7454 -0.0445  0.2501
 5479TIP3    H137852   1.249   1.935  15.451 -1.3771 -0.8530 -0.2135
 5479TIP3    H237853   1.217   1.969  15.595  2.7035  0.8996  0.3348
 5480TIP3   OH237854   2.322   6.516  13.593  0.7313 -0.3421 -0.2695
 5480TIP3    H137855   2.405   6.532  13.548  1.3051 -0.2229  0.8315
 5480TIP3    H237856   2.335   6.550  13.681 -0.1326 -1.2937  0.2297
 5481TIP3   OH237857   2.517   0.099  16.378 -0.0126  0.4463  0.2940
 5481TIP3    H137858   2.426   0.128  16.371  0.2229  0.9807 -0.5435
 5481TIP3    H237859   2.511   0.005  16.398 -0.7485  0.6247  0.9450
 5482TIP3   OH237860   6.166   4.745   5.235  0.1419  0.0480 -0.5012
 5482TIP3    H137861   6.160   4.661   5.190  0.6540  0.1060 -0.6758
 5482TIP3    H237862   6.233   4.733   5.302  0.8263  0.5659 -1.0844
 5483TIP3   OH237863   3.704   1.538   5.524  0.6295 -0.0462  0.2460
 5483TIP3    H137864   3.720   1.445   5.541  0.6086  0.3676  2.7408
 5483TIP3    H237865   3.775   1.564   5.464  0.6217 -1.6530 -0.4754
 5484TIP3   OH237866   5.958   5.503  11.162 -0.3168 -0.1072  0.1326
 5484TIP3    H137867   5.932   5.578  11.108  2.0589  1.2547  0.8068
 5484TIP3    H237868   5.940   5.530  11.252  2.9773  0.7762  0.5996
 5485TIP3   OH237869   1.881   6.291   4.264  0.8487 -0.3857  0.0850
 5485TIP3    H137870   1.946   6.361   4.279 -0.7719  1.0951  0.3265
 5485TIP3    H237871   1.816   6.331   4.207 -1.1629 -1.0211  1.8602
 5486TIP3   OH237872   6.046   1.387  12.641  0.4793 -0.0411 -0.0717
 5486TIP3    H137873   6.128   1.340  12.626 -0.2745 -1.3009 -0.3499
 5486TIP3    H237874   6.030   1.379  12.735  0.7458  0.3098  0.0009
 5487TIP3   OH237875   0.659   2.717  15.021 -0.6598  0.7352 -0.2564
 5487TIP3    H137876   0.693   2.642  14.972 -2.1056 -1.1982  1.5912
 5487TIP3    H237877   0.641   2.783  14.955  0.4413 -0.6276 -1.9620
 5488TIP3   OH237878   6.116   1.884   0.123  0.2733  0.0559  1.0099
 5488TIP3    H137879   6.098   1.792   0.145  0.6530 -0.2382  0.1325
 5488TIP3    H237880   6.206   1.883   0.089  1.3728  1.2358  3.7704
 5489TIP3   OH237881   1.829   0.808   5.819  0.1256  0.1952  0.2240
 5489TIP3    H137882   1.777   0.738   5.780  0.9411  0.4879 -1.4615
 5489TIP3    H237883   1.906   0.764   5.854 -0.9670 -0.1634  2.1873
 5490TIP3   OH237884   1.697   5.573   5.067 -0.0629 -0.2571 -0.1128
 5490TIP3    H137885   1.656   5.487   5.073  2.1401 -1.3962 -0.9147
 5490TIP3    H237886   1.700   5.591   4.973 -0.0944  0.4859  0.0255
 5491TIP3   OH237887   3.886   5.890   5.275 -0.0868 -0.4122  0.8588
 5491TIP3    H137888   3.943   5.915   5.347 -0.1745  1.2488  0.3795
 5491TIP3    H237889   3.855   5.973   5.239 -1.0139 -1.2427 -0.3141
 5492TIP3   OH237890   4.937   0.643  15.978  0.1509  0.1210 -0.0207
 5492TIP3    H137891   4.850   0.603  15.975  0.5696 -0.7478 -1.2886
 5492TIP3    H237892   4.937   0.707  15.908  0.5230  0.1250 -0.0204
 5493TIP3   OH237893   1.421   5.536  15.845  0.1223 -0.3911  0.6199
 5493TIP3    H137894   1.456   5.603  15.786  0.5792 -0.1494  1.1578
 5493TIP3    H237895   1.327   5.541  15.833  0.2317 -0.6785 -0.4605
 5494TIP3   OH237896   0.238   6.173  11.469  0.1130  1.3066 -0.2635
 5494TIP3    H137897   0.308   6.160  11.406  0.0835 -1.8797  0.2718
 5494TIP3    H237898   0.279   6.222  11.541  1.6114  0.0268 -0.2377
 5495TIP3   OH237899   6.653   1.928  13.949 -0.3923  0.1898 -0.0564
 5495TIP3    H137900   6.574   1.894  13.992 -0.8759 -1.1498 -1.9357
 5495TIP3    H237901   6.687   1.854  13.900  0.5856  1.4724 -1.3576
 5496TIP3   OH237902   5.795   4.910  14.368 -0.5397  0.3200  0.6882
 5496TIP3    H137903   5.788   4.828  14.320  0.3334  0.1638  0.8244
 5496TIP3    H237904   5.813   4.882  14.458  1.1390  0.6892  0.4773
 5497TIP3   OH237905   6.005   3.017   5.518 -0.0604 -0.1335  0.3952
 5497TIP3    H137906   6.059   2.977   5.586  0.0857 -0.1086  0.2947
 5497TIP3    H237907   6.035   2.977   5.436  1.1964  1.3238  0.1010
 5498TIP3   OH237908   4.230   2.956   6.622  0.1585  0.0311 -0.6385
 5498TIP3    H137909   4.215   3.051   6.622  0.4269  0.0904 -2.0304
 5498TIP3    H237910   4.181   2.924   6.546  0.1354 -0.9358 -0.2188
 5499TIP3   OH237911   2.827   2.111   1.659  0.3466  0.2188  0.1035
 5499TIP3    H137912   2.838   2.016   1.657  0.3792  0.2229  0.0754
 5499TIP3    H237913   2.797   2.131   1.747 -0.3115  0.1124 -0.0954
 5500TIP3   OH237914   0.301   4.940  11.995 -0.2777  0.5929  0.0432
 5500TIP3    H137915   0.363   4.912  11.927 -0.9223  0.5101 -0.5167
 5500TIP3    H237916   0.326   4.889  12.072 -0.4665 -0.4095 -0.5485
 5501TIP3   OH237917   4.693   3.347  13.656  0.3444  0.1296  0.1510
 5501TIP3    H137918   4.743   3.286  13.710 -0.3159 -1.5268 -1.0609
 5501TIP3    H237919   4.708   3.317  13.566 -1.6133  0.5005 -0.3295
 5502TIP3   OH237920   4.216   3.485   2.703 -0.2110  0.2244  0.2277
 5502TIP3    H137921   4.244   3.464   2.793 -1.4177  0.8416  0.7488
 5502TIP3    H237922   4.280   3.549   2.672  0.0763  0.1829  0.7335
 5503TIP3   OH237923   2.494   0.315  16.082 -0.0762 -0.1716 -0.0142
 5503TIP3    H137924   2.481   0.345  15.992 -0.0249 -0.2087 -0.0341
 5503TIP3    H237925   2.500   0.395  16.134 -0.7140 -0.1616  0.0435
 5504TIP3   OH237926   0.505   5.675  15.999 -0.0721 -0.2426  0.0730
 5504TIP3    H137927   0.588   5.704  16.037 -0.6708  0.9247  0.4905
 5504TIP3    H237928   0.497   5.583  16.027  1.1783 -0.4252 -0.1506
 5505TIP3   OH237929   1.358   1.200   2.392 -0.2544 -0.5945 -0.0616
 5505TIP3    H137930   1.435   1.185   2.446 -2.0645 -2.2641  2.1526
 5505TIP3    H237931   1.354   1.295   2.381 -0.3161 -0.1476  3.4708
 5506TIP3   OH237932   0.692   6.732   0.063 -0.5457 -0.3277  0.0789
 5506TIP3    H137933   0.759   6.771   0.120  1.0287  0.1432 -2.0264
 5506TIP3    H237934   0.720   6.640   0.055 -0.5125 -0.2807 -0.3075
 5507TIP3   OH237935   1.324   6.223  11.801  0.1155 -0.4179  0.2917
 5507TIP3    H137936   1.345   6.131  11.817  1.0554 -0.6607 -2.1660
 5507TIP3    H237937   1.394   6.272  11.845  1.0164 -0.9643 -0.5208
 5508TIP3   OH237938   6.662   3.931   5.126  0.4212 -0.0539  0.0249
 5508TIP3    H137939   6.616   4.015   5.123 -0.5106 -0.4227  2.5795
 5508TIP3    H237940   6.720   3.933   5.050 -1.4395  1.8144 -1.4280
 5509TIP3   OH237941   0.398   6.011  15.633  0.2465  0.2377  0.5102
 5509TIP3    H137942   0.419   6.102  15.608 -1.8027  0.5628 -0.0905
 5509TIP3    H237943   0.453   5.958  15.576 -0.1677  1.0845 -0.7064
 5510TIP3   OH237944   4.905   2.199   2.785  0.1253  0.0600 -0.2931
 5510TIP3    H137945   4.950   2.267   2.734 -0.6281  1.0241  0.3108
 5510TIP3    H237946   4.967   2.126   2.786  2.4655  1.9798  1.9992
 5511TIP3   OH237947   4.593   4.333   4.399  0.6430 -0.8269  0.4384
 5511TIP3    H137948   4.501   4.327   4.425  0.5639  0.1223  0.4243
 5511TIP3    H237949   4.591   4.351   4.305  0.8044  0.2160  0.6219
 5512TIP3   OH237950   6.044   3.666   0.226 -0.1503  1.1137 -0.4262
 5512TIP3    H137951   6.050   3.579   0.265  0.9515  0.8807 -1.1043
 5512TIP3    H237952   6.093   3.659   0.144 -1.1127  2.0311 -1.0906
 5513TIP3   OH237953   5.919   4.318  15.115 -0.1008  0.0398  0.5381
 5513TIP3    H137954   5.900   4.410  15.130  0.0366  0.2228 -0.3569
 5513TIP3    H237955   6.014   4.314  15.104 -0.0803 -0.2421  0.8229
 5514TIP3   OH237956   3.543   0.070   4.491  0.4179  0.6546  0.0785
 5514TIP3    H137957   3.555   0.072   4.586 -2.3562 -1.3262  0.5106
 5514TIP3    H237958   3.510   0.157   4.469  1.9409  1.4318  0.7616
 5515TIP3   OH237959   3.552   1.248  15.348 -0.6019  0.0554  0.7607
 5515TIP3    H137960   3.567   1.175  15.288  1.0866  1.6341 -0.8173
 5515TIP3    H237961   3.589   1.218  15.431 -2.3456 -1.8914  0.8670
 5516TIP3   OH237962   3.368   6.611  14.717  0.4912  0.5691  0.0929
 5516TIP3    H137963   3.432   6.609  14.789  2.2304 -0.1848 -1.4151
 5516TIP3    H237964   3.402   6.677  14.657  0.4148 -0.5604 -1.2081
 5517TIP3   OH237965   5.291   6.316   5.689  0.3248 -0.3812 -0.1388
 5517TIP3    H137966   5.261   6.396   5.648 -0.2650 -2.1298 -3.2349
 5517TIP3    H237967   5.387   6.320   5.681  0.3224  0.1858  0.0788
 5518TIP3   OH237968   3.396   0.310   4.208 -0.5667  0.8030  0.1478
 5518TIP3    H137969   3.403   0.254   4.131  0.1842  1.6500 -0.4097
 5518TIP3    H237970   3.456   0.383   4.190 -0.4125  1.0232  1.5061
 5519TIP3   OH237971   5.370   5.674   4.349 -0.2396 -0.5543 -0.5459
 5519TIP3    H137972   5.449   5.725   4.329 -1.1600  0.8805 -0.6258
 5519TIP3    H237973   5.403   5.596   4.393  1.1839  0.3969  0.1438
 5520TIP3   OH237974   0.123   6.540  16.052  0.0457 -0.2223 -0.5542
 5520TIP3    H137975   0.046   6.560  15.998 -0.3957 -0.0481  0.1366
 5520TIP3    H237976   0.149   6.625  16.088  0.6239 -0.2676 -0.8711
 5521TIP3   OH237977   0.414   4.659   3.017  0.1586 -0.1064 -0.0081
 5521TIP3    H137978   0.419   4.603   2.940 -1.3367  0.4666 -0.5298
 5521TIP3    H237979   0.371   4.605   3.083  0.6777 -0.3030  0.1776
 5522TIP3   OH237980   3.929   1.539   3.032 -0.4501 -0.1476  0.0065
 5522TIP3    H137981   3.941   1.514   2.940 -0.1004 -2.2867  0.5910
 5522TIP3    H237982   3.876   1.468   3.069 -1.5744  1.2841  1.1886
 5523TIP3   OH237983   6.576   0.025  16.105  0.2187  0.3023  0.5092
 5523TIP3    H137984   6.549   0.067  16.023  1.4876  1.1684  0.5152
 5523TIP3    H237985   6.604  -0.063  16.078  2.9839  1.4083 -0.4064
 5524TIP3   OH237986   1.493   4.564  16.310  0.6535  0.2856  0.3394
 5524TIP3    H137987   1.457   4.557  16.221  0.1477  0.8896  0.4975
 5524TIP3    H237988   1.422   4.536  16.367  0.5329  1.1831  0.6335
 5525TIP3   OH237989   0.620   5.337  12.457  0.2532 -0.0682 -0.4232
 5525TIP3    H137990   0.571   5.286  12.522  0.8244  0.5429  0.5008
 5525TIP3    H237991   0.553   5.384  12.408 -0.1929 -0.6196 -0.3548
 5526TIP3   OH237992   3.463   5.637  13.223 -0.5772  0.0009 -0.5568
 5526TIP3    H137993   3.398   5.650  13.293 -0.2523 -2.0274  0.1439
 5526TIP3    H237994   3.546   5.665  13.263 -0.6472  0.3527 -0.6583
 5527TIP3   OH237995   6.582   1.023   4.644 -0.1016  0.0182  0.5181
 5527TIP3    H137996   6.573   1.075   4.724 -0.2928  1.0136 -0.1379
 5527TIP3    H237997   6.653   1.065   4.596 -0.1491 -0.4361  0.0510
 5528TIP3   OH237998   2.088   1.732  13.304  0.3735  0.7836 -0.4813
 5528TIP3    H137999   2.020   1.691  13.251  1.3711 -1.3457 -0.1853
 5528TIP3    H238000   2.050   1.737  13.392  0.3964  0.1119 -0.4320
 5529TIP3   OH238001   6.078   2.538  12.745 -0.1144  0.1362 -0.2965
 5529TIP3    H138002   6.095   2.530  12.839  1.8797  2.0910 -0.4580
 5529TIP3    H238003   6.012   2.608  12.738  0.1671  0.3922 -0.3887
 5530TIP3   OH238004   4.384   3.903   4.876 -0.8939 -0.1858  0.2296
 5530TIP3    H138005   4.476   3.886   4.857 -0.8143  1.1710 -0.6425
 5530TIP3    H238006   4.370   3.864   4.962  0.3183 -0.9785  0.0869
 5531TIP3   OH238007   4.090   0.264   2.455 -0.0058  0.0846  0.1992
 5531TIP3    H138008   4.139   0.184   2.475 -0.0717 -0.2939 -1.0596
 5531TIP3    H238009   4.144   0.309   2.390 -2.2454 -1.3813 -2.8593
 5532TIP3   OH238010   6.748   0.091   3.953  0.2323 -0.1490 -0.1471
 5532TIP3    H138011   6.811   0.060   4.018 -0.6745 -0.6959  0.4750
 5532TIP3    H238012   6.701   0.012   3.926  1.7462 -0.2317 -2.7354
 5533TIP3   OH238013   2.779   2.415  13.606 -0.0165  0.1378 -0.2251
 5533TIP3    H138014   2.756   2.324  13.627 -1.3977  0.6465  0.5035
 5533TIP3    H238015   2.827   2.445  13.684 -0.8467  0.4817  0.1639
 5534TIP3   OH238016   2.594   5.133   1.094 -0.3455 -0.7557  0.1072
 5534TIP3    H138017   2.551   5.050   1.079 -0.4213 -0.5512 -0.8045
 5534TIP3    H238018   2.653   5.145   1.019 -0.1812 -0.0913  0.3312
 5535TIP3   OH238019   1.993   1.390  12.184 -0.3091 -0.1251 -0.0620
 5535TIP3    H138020   2.037   1.306  12.198 -0.0774  0.2279  1.5039
 5535TIP3    H238021   2.028   1.422  12.101  0.2228 -1.1952 -0.2672
 5536TIP3   OH238022   0.370   2.927   2.508 -0.0087  0.5182 -0.4922
 5536TIP3    H138023   0.384   2.836   2.480 -0.7696  0.3850 -0.4479
 5536TIP3    H238024   0.411   2.932   2.594 -0.7420 -0.0357 -0.0948
 5537TIP3   OH238025   6.049   2.987  13.344  0.4696 -0.0440 -0.2295
 5537TIP3    H138026   6.091   2.986  13.258  0.0624  1.5864 -0.4717
 5537TIP3    H238027   5.955   2.995  13.324  0.3312 -0.2049  0.3604
 5538TIP3   OH238028   5.310   3.763  15.896  0.0275  0.4165  0.0332
 5538TIP3    H138029   5.241   3.709  15.933  1.3132 -2.2894 -1.3255
 5538TIP3    H238030   5.265   3.835  15.851 -1.7982 -0.4482  0.4762
 5539TIP3   OH238031   1.744   1.672  16.393  0.3673  0.2643 -0.0155
 5539TIP3    H138032   1.736   1.760  16.356 -0.9427 -0.4225 -1.4167
 5539TIP3    H238033   1.839   1.655  16.394  0.6075  1.5599 -0.0450
 5540TIP3   OH238034   0.891   3.837  12.823 -0.0341 -0.0336 -0.5408
 5540TIP3    H138035   0.802   3.818  12.792 -0.4152 -2.0099  1.5959
 5540TIP3    H238036   0.934   3.752  12.825  0.7832  0.4084  1.7860
 5541TIP3   OH238037   5.616   0.077  13.979  0.5723 -0.2851 -0.2254
 5541TIP3    H138038   5.627  -0.005  13.931  1.6382 -1.4645  1.9777
 5541TIP3    H238039   5.537   0.063  14.031 -0.1747  0.7297 -1.0526
 5542TIP3   OH238040   4.100   6.102  12.523  0.0143 -0.1431  0.0919
 5542TIP3    H138041   4.180   6.125  12.570 -0.8346  2.7012  0.2525
 5542TIP3    H238042   4.056   6.039  12.581  1.0275  0.0419  1.0806
 5543TIP3   OH238043   1.637   5.034  13.092  0.1102  0.1224 -0.2099
 5543TIP3    H138044   1.645   5.067  13.181  0.4511  0.4951 -0.3786
 5543TIP3    H238045   1.654   5.110  13.036 -2.2783  0.4296 -0.6029
 5544TIP3   OH238046   1.469   0.652   4.576 -0.2640  0.3011 -0.0513
 5544TIP3    H138047   1.495   0.561   4.593  0.4237  0.6111  0.5512
 5544TIP3    H238048   1.546   0.693   4.537 -0.4430  0.7348  0.0456
 5545TIP3   OH238049   6.483   2.543  13.860 -0.4853 -0.2115  0.2962
 5545TIP3    H138050   6.579   2.537  13.857 -0.5235 -0.1459 -1.2643
 5545TIP3    H238051   6.462   2.626  13.818 -1.1589  0.4642  1.9456
 5546TIP3   OH238052   4.390   2.675   4.263  0.4618 -0.3418  0.3288
 5546TIP3    H138053   4.459   2.718   4.212  0.2040 -0.4094 -0.0752
 5546TIP3    H238054   4.395   2.583   4.238 -0.8460 -0.0777 -0.9128
 5547TIP3   OH238055   0.537   3.533  16.219  0.1791 -0.1632 -0.3148
 5547TIP3    H138056   0.449   3.571  16.221 -0.2473 -1.2032  1.8883
 5547TIP3    H238057   0.522   3.439  16.216  1.2057 -0.3511  0.2282
 5548TIP3   OH238058   0.288   4.077   3.119  0.2684  0.7914  0.6014
 5548TIP3    H138059   0.232   4.013   3.164  1.6934 -1.5708 -0.9389
 5548TIP3    H238060   0.227   4.147   3.093 -1.7518 -1.0567  0.2003
 5549TIP3   OH238061   2.281   4.060   2.426  0.1872  0.2362  0.2317
 5549TIP3    H138062   2.328   4.120   2.484 -1.5443  0.9201  0.9405
 5549TIP3    H238063   2.342   4.044   2.354  1.9910  0.1326  1.7456
 5550TIP3   OH238064   5.572   0.650  11.778 -0.1317  0.2508  0.2719
 5550TIP3    H138065   5.523   0.652  11.695  0.1024  1.4439  0.1427
 5550TIP3    H238066   5.664   0.653  11.751 -0.0240 -0.4526  0.5519
 5551TIP3   OH238067   2.053   2.425   2.336 -0.2141  0.6083  0.3026
 5551TIP3    H138068   2.079   2.430   2.428  0.8714 -2.5062  0.2211
 5551TIP3    H238069   2.136   2.418   2.288 -0.8711 -0.9548 -0.6384
 5552TIP3   OH238070   4.081   3.761  16.357 -0.6146  0.4024 -0.4483
 5552TIP3    H138071   3.993   3.797  16.347 -1.0058 -0.4670 -0.1989
 5552TIP3    H238072   4.073   3.700  16.431  0.5732  1.5156  0.6046
 5553TIP3   OH238073   0.341   2.053   5.806 -0.1855  0.2573  0.2007
 5553TIP3    H138074   0.338   2.135   5.757 -0.2027 -1.1276 -2.2507
 5553TIP3    H238075   0.260   2.050   5.855 -0.6924  1.2192 -0.5648
 5554TIP3   OH238076   0.027   2.351   0.952  0.1878 -0.0525  0.1287
 5554TIP3    H138077  -0.049   2.309   0.993 -0.6229 -0.2176 -1.5070
 5554TIP3    H238078  -0.002   2.440   0.935 -0.1007 -0.4687 -1.6519
 5555TIP3   OH238079   0.929   6.056  15.739 -0.3377  0.1807  0.1212
 5555TIP3    H138080   0.976   6.124  15.691 -2.5588  1.4624 -0.3518
 5555TIP3    H238081   0.989   5.981  15.741  1.9449  1.9836  0.2101
 5556TIP3   OH238082   5.087   3.241   5.673 -0.3811 -0.0727  0.3681
 5556TIP3    H138083   5.055   3.245   5.583  1.5234  1.5715 -0.2559
 5556TIP3    H238084   5.075   3.149   5.698 -1.0601 -0.5148 -1.5117
 5557TIP3   OH238085   6.430   0.167  11.511  0.6002  0.1605  0.5245
 5557TIP3    H138086   6.365   0.202  11.572 -1.8567 -0.4281 -1.6389
 5557TIP3    H238087   6.457   0.243  11.459 -0.1790 -0.0003 -0.1378
 5558TIP3   OH238088   0.470   0.632   0.627 -0.2459  0.4104  0.5156
 5558TIP3    H138089   0.441   0.586   0.706 -1.2251  1.2147  0.6369
 5558TIP3    H238090   0.401   0.616   0.563  1.0021 -1.0314 -0.4960
 5559TIP3   OH238091   3.343   2.547   1.464  0.0304  0.1330  0.0926
 5559TIP3    H138092   3.287   2.564   1.388  0.2764 -0.6989 -0.2785
 5559TIP3    H238093   3.287   2.563   1.539 -0.7943 -0.9649 -0.2803
 5560TIP3   OH238094   1.198   0.979   1.636  0.0007  0.0377 -0.0368
 5560TIP3    H138095   1.117   1.020   1.666 -0.3671 -0.4904 -0.2825
 5560TIP3    H238096   1.195   0.891   1.674 -0.1307 -0.3938 -1.0234
 5561TIP3   OH238097   5.329   2.363  12.778  0.0224 -0.8548 -0.0547
 5561TIP3    H138098   5.359   2.444  12.819  0.1727 -0.3908 -1.0541
 5561TIP3    H238099   5.361   2.369  12.688  1.2920 -2.6985  0.2334
 5562TIP3   OH238100   2.825   4.934  11.867 -0.4947  0.1711  0.0612
 5562TIP3    H138101   2.836   4.933  11.962 -1.0751  2.0671  0.1695
 5562TIP3    H238102   2.908   4.901  11.833  0.7098  1.9245  1.1908
 5563TIP3   OH238103   0.613   2.962   3.353 -0.1026  0.6124  0.6644
 5563TIP3    H138104   0.549   2.891   3.352  0.5913 -0.0168  0.6630
 5563TIP3    H238105   0.642   2.968   3.443  0.8563 -0.0225  0.3983
 5564TIP3   OH238106   1.464   1.987   3.974  0.2354  0.4837 -0.6045
 5564TIP3    H138107   1.492   1.900   3.947  0.5781 -0.5228  2.7399
 5564TIP3    H238108   1.542   2.042   3.961  0.8517 -0.2889 -0.1917
 5565TIP3   OH238109   3.541   4.753  11.442 -0.3960  0.0069  0.0790
 5565TIP3    H138110   3.460   4.791  11.477  1.3837  2.7559  1.3823
 5565TIP3    H238111   3.596   4.828  11.423  1.8845 -1.8319 -0.8194
 5566TIP3   OH238112   1.627   6.419  16.335  0.2679  0.1302 -0.6708
 5566TIP3    H138113   1.636   6.481  16.263  1.4464 -0.7945 -1.3327
 5566TIP3    H238114   1.705   6.432  16.389  0.0427 -0.1047 -0.2791
 5567TIP3   OH238115   4.174   5.576   0.802  0.2953  0.1795  0.1875
 5567TIP3    H138116   4.162   5.489   0.839  2.0129  0.5456  1.6896
 5567TIP3    H238117   4.101   5.627   0.836  0.4169 -0.1512  0.9482
 5568TIP3   OH238118   3.320   0.398   6.201 -0.2352 -0.3882  0.3876
 5568TIP3    H138119   3.323   0.452   6.280 -0.7688 -1.6698  1.2978
 5568TIP3    H238120   3.345   0.311   6.230  0.0901 -0.7561 -0.9713
 5569TIP3   OH238121   0.126   3.735   3.534  0.5596  0.1486 -0.0420
 5569TIP3    H138122   0.052   3.690   3.573 -0.2209  0.1858 -1.4461
 5569TIP3    H238123   0.195   3.669   3.529 -0.5803 -0.9044 -2.0977
 5570TIP3   OH238124   3.787   2.884   0.900  0.5389 -0.2298 -0.1193
 5570TIP3    H138125   3.838   2.948   0.950  1.4816  0.3591 -1.7932
 5570TIP3    H238126   3.852   2.839   0.846 -0.6316  0.1999 -1.9310
 5571TIP3   OH238127   1.172   1.260  13.788 -0.0627 -0.0658  0.8537
 5571TIP3    H138128   1.144   1.195  13.723 -1.1268  0.9754  0.2575
 5571TIP3    H238129   1.200   1.335  13.736 -0.0479  0.4287  1.5707
 5572TIP3   OH238130   1.863   0.876   3.922  0.4132 -0.4640 -0.0127
 5572TIP3    H138131   1.902   0.794   3.953  1.1006  0.7513  2.4628
 5572TIP3    H238132   1.933   0.941   3.930 -0.4819  0.6174 -0.7632
 5573TIP3   OH238133   6.492   4.133   5.126 -0.2916  0.2511  0.2439
 5573TIP3    H138134   6.401   4.137   5.099 -1.1225  0.0674  2.8660
 5573TIP3    H238135   6.523   4.224   5.119 -0.5219  0.2376 -1.0737
 5574TIP3   OH238136   5.921   1.501  12.319  0.4906 -0.0282  0.9372
 5574TIP3    H138137   5.868   1.581  12.315  1.4637  0.7770  3.3690
 5574TIP3    H238138   5.983   1.510  12.247  0.4844  1.3639  1.0870
 5575TIP3   OH238139   4.544   4.990  11.179 -0.5068  0.1663  0.2493
 5575TIP3    H138140   4.467   4.990  11.236 -0.6645 -0.6732  0.0470
 5575TIP3    H238141   4.577   5.080  11.182  0.0421 -0.0748  2.3978
 5576TIP3   OH238142   1.233   1.274  14.580 -0.3437  0.1364 -0.2846
 5576TIP3    H138143   1.237   1.258  14.485 -0.5921  1.3520 -0.5047
 5576TIP3    H238144   1.143   1.254  14.604 -0.1585 -0.6382 -0.2119
 5577TIP3   OH238145   6.469   6.420  15.242  0.1264 -0.0298 -0.1961
 5577TIP3    H138146   6.434   6.508  15.254 -3.7604 -1.4475 -0.5347
 5577TIP3    H238147   6.410   6.378  15.179  1.6008 -3.0476  0.3044
 5578TIP3   OH238148   1.340   4.500  12.246  0.0816  0.2504  0.0706
 5578TIP3    H138149   1.343   4.461  12.159 -0.7036  0.0553  0.1327
 5578TIP3    H238150   1.354   4.426  12.305  1.7564  0.5529  0.0763
 5579TIP3   OH238151   4.972   0.061   2.337  0.1641  0.0704 -0.2965
 5579TIP3    H138152   5.009   0.010   2.409 -0.6464  0.2632  0.2735
 5579TIP3    H238153   4.996   0.151   2.356 -0.7851  0.2295  0.2180
 5580TIP3   OH238154   0.044   3.248   1.253 -0.1966 -0.4872  0.3838
 5580TIP3    H138155   0.108   3.191   1.211 -0.9367 -1.8697  1.1170
 5580TIP3    H238156  -0.022   3.264   1.186  0.0966 -0.3354  0.1264
 5581TIP3   OH238157   3.889   3.995  15.510  0.0712 -0.2048  0.0804
 5581TIP3    H138158   3.974   3.981  15.469 -0.1084 -1.8952  0.2284
 5581TIP3    H238159   3.885   4.089  15.527  1.6623 -0.0282 -0.4505
 5582TIP3   OH238160   4.348   0.952   1.260 -0.0076 -0.3537  0.0801
 5582TIP3    H138161   4.357   0.922   1.350 -0.3268  0.1927  0.2955
 5582TIP3    H238162   4.326   0.873   1.211 -0.2528 -0.5807  0.5485
 5583TIP3   OH238163   0.813   5.313   4.292 -0.2080 -0.2768 -0.1473
 5583TIP3    H138164   0.728   5.297   4.333  0.4602  0.4172  1.5559
 5583TIP3    H238165   0.823   5.241   4.229 -1.5412 -1.0075  0.4511
 5584TIP3   OH238166   6.071   6.787   3.869  0.0859 -0.2156 -0.3621
 5584TIP3    H138167   6.005   6.728   3.905 -0.9833  1.7276  0.9205
 5584TIP3    H238168   6.120   6.817   3.945  0.3071  0.9336 -0.9549
 5585TIP3   OH238169   5.688   0.715   6.262 -0.3838  0.1736 -0.1429
 5585TIP3    H138170   5.755   0.760   6.313  0.1847 -0.1251 -0.6252
 5585TIP3    H238171   5.724   0.710   6.174 -0.3466 -1.4278 -0.0423
 5586TIP3   OH238172   4.115   1.630   4.900 -0.6207 -0.8995  0.1865
 5586TIP3    H138173   4.207   1.649   4.882 -0.6261 -0.9285  0.1309
 5586TIP3    H238174   4.069   1.648   4.818 -0.3624 -3.0099 -0.4495
 5587TIP3   OH238175   0.994   5.526   4.408  0.5363  0.2866 -0.4831
 5587TIP3    H138176   0.959   5.439   4.389  0.0640  0.3440  0.1163
 5587TIP3    H238177   1.071   5.533   4.352  0.2640 -0.3018 -0.9468
 5588TIP3   OH238178   6.719   0.451  15.627  0.1613 -0.2659  0.0143
 5588TIP3    H138179   6.657   0.403  15.572  1.1032 -2.4884  0.7985
 5588TIP3    H238180   6.664   0.507  15.682 -0.9757 -0.3854 -0.9652
 5589TIP3   OH238181   5.081   5.335  14.317 -0.2998  0.2198 -0.0607
 5589TIP3    H138182   5.156   5.323  14.259 -0.6828 -0.8482 -0.3292
 5589TIP3    H238183   5.045   5.248  14.330 -3.9181  1.1487 -3.1209
 5590TIP3   OH238184   1.398   1.350  11.467  0.0718  0.4080  0.4088
 5590TIP3    H138185   1.421   1.416  11.402  0.3762 -1.6167 -1.6055
 5590TIP3    H238186   1.482   1.314  11.496 -0.1624 -1.1460 -0.7459
 5591TIP3   OH238187   1.100   4.380   2.854  0.2251  0.0514  0.9336
 5591TIP3    H138188   1.123   4.289   2.868  0.4310 -0.2909 -1.3965
 5591TIP3    H238189   1.174   4.430   2.888  0.5667 -0.6905  1.2730
 5592TIP3   OH238190   6.223   3.196  16.389  0.1566 -0.3990 -0.0105
 5592TIP3    H138191   6.302   3.249  16.399  0.5027 -0.8829 -0.1805
 5592TIP3    H238192   6.160   3.255  16.348  0.1861  0.2154  0.8233
 5593TIP3   OH238193   3.393   2.444   4.810 -0.2762  0.4849  0.1349
 5593TIP3    H138194   3.303   2.471   4.830 -0.6439 -0.6455  0.0476
 5593TIP3    H238195   3.405   2.363   4.860  0.8975  0.9440  0.6101
 5594TIP3   OH238196   1.564   2.179   4.666  0.0865 -0.3689  0.1537
 5594TIP3    H138197   1.470   2.165   4.660 -0.0633 -0.6643  2.5823
 5594TIP3    H238198   1.597   2.103   4.714  1.5091 -0.0990 -0.3595
 5595TIP3   OH238199   3.703   0.370   4.772  0.4642  0.4195 -0.3603
 5595TIP3    H138200   3.727   0.421   4.850  2.1456 -0.2672 -0.4083
 5595TIP3    H238201   3.711   0.279   4.800 -2.3972  0.1452 -0.3133
 5596TIP3   OH238202   5.192   5.454  16.096  0.0467 -0.2247  0.2369
 5596TIP3    H138203   5.107   5.435  16.137  0.6697 -2.8695  0.3715
 5596TIP3    H238204   5.256   5.409  16.152  1.3107 -0.2116 -1.1787
 5597TIP3   OH238205   6.754   1.166   0.163  0.2208 -0.0350 -0.5143
 5597TIP3    H138206   6.733   1.166   0.256 -2.4682  1.3489 -1.0639
 5597TIP3    H238207   6.777   1.075   0.143  1.5207 -0.1867  1.6325
 5598TIP3   OH238208   6.072   4.804   0.669 -0.2879  0.4038  0.3199
 5598TIP3    H138209   6.152   4.757   0.692  0.8692  1.5464 -1.2748
 5598TIP3    H238210   6.083   4.890   0.711 -0.0718  1.0276 -1.0079
 5599TIP3   OH238211   0.619   6.006   3.167  0.5319 -0.1561  0.0401
 5599TIP3    H138212   0.623   6.087   3.116  2.1648 -0.2360  0.0222
 5599TIP3    H238213   0.639   5.937   3.105 -0.3794 -0.5262  0.1615
 5600TIP3   OH238214   6.409   1.999  15.247  0.4541 -0.0967  0.7812
 5600TIP3    H138215   6.493   1.980  15.289  1.2104  1.1116 -0.1602
 5600TIP3    H238216   6.404   1.938  15.174  0.7677  0.2021  0.5093
 5601TIP3   OH238217   6.702   6.683  14.195  0.3305 -0.4690 -0.3730
 5601TIP3    H138218   6.703   6.777  14.215  0.3439 -0.3901 -0.7490
 5601TIP3    H238219   6.762   6.673  14.121 -0.8336 -0.5493 -1.3240
 5602TIP3   OH238220   4.724   3.053   3.042  0.0861 -0.3978 -0.1201
 5602TIP3    H138221   4.716   2.959   3.024 -1.6049 -0.6542  1.7552
 5602TIP3    H238222   4.791   3.059   3.110 -2.9351 -0.7557  3.0578
 5603TIP3   OH238223   1.508   5.709  15.616  0.2063  0.1941 -0.0500
 5603TIP3    H138224   1.443   5.730  15.549  1.0074  0.7875 -0.6529
 5603TIP3    H238225   1.587   5.687  15.567  0.5034 -0.3852  0.6764
 5604TIP3   OH238226   2.956   1.404   1.210 -0.0686  0.2090 -0.0762
 5604TIP3    H138227   2.996   1.318   1.203 -2.5420 -1.0270  0.2855
 5604TIP3    H238228   2.937   1.429   1.119  1.3597  0.7594 -0.2414
 5605TIP3   OH238229   5.391   0.054   3.757  0.0586 -0.2726  0.6017
 5605TIP3    H138230   5.425   0.049   3.667  2.0523  0.8014  1.2539
 5605TIP3    H238231   5.424   0.137   3.790 -2.3453  0.2863  1.6889
 5606TIP3   OH238232   0.434   4.780   2.687  0.0657  0.0830  0.5339
 5606TIP3    H138233   0.500   4.719   2.718  0.5325  0.9497  1.2560
 5606TIP3    H238234   0.435   4.851   2.750  0.6942  1.6445 -1.1869
 5607TIP3   OH238235   1.428   4.593  12.920 -0.7420  0.0560  0.4813
 5607TIP3    H138236   1.357   4.532  12.942  1.3736 -2.0831  1.5685
 5607TIP3    H238237   1.455   4.567  12.832 -1.1331  0.7586  0.1414
 5608TIP3   OH238238   6.108   3.612  14.025  0.1529 -0.3373 -0.5464
 5608TIP3    H138239   6.104   3.518  14.013 -0.9150 -0.1317 -1.9754
 5608TIP3    H238240   6.176   3.642  13.965  0.7996 -0.2309  0.2229
 5609TIP3   OH238241   4.400   2.136   5.692  0.3921 -0.8113 -0.3541
 5609TIP3    H138242   4.450   2.155   5.771 -0.7950  0.8294  0.0185
 5609TIP3    H238243   4.310   2.158   5.714  0.2526  1.0426 -2.5999
 5610TIP3   OH238244   1.299   3.553   1.994 -0.0430 -0.1957  0.3886
 5610TIP3    H138245   1.390   3.573   2.015 -0.1673  1.0298 -0.1648
 5610TIP3    H238246   1.281   3.470   2.037  1.7494 -1.1198 -0.6288
 5611TIP3   OH238247   2.962   1.703  16.625  0.2122 -0.3504 -0.0558
 5611TIP3    H138248   3.021   1.776  16.607  0.2496 -0.8061 -1.9455
 5611TIP3    H238249   2.940   1.668  16.538 -0.5725 -1.9695  0.7604
 5612TIP3   OH238250   5.283   1.812   1.225  0.1017 -0.1590 -0.1580
 5612TIP3    H138251   5.251   1.840   1.139  0.1809  0.0804 -0.1084
 5612TIP3    H238252   5.287   1.717   1.219  0.9460 -0.0942 -0.7180
 5613TIP3   OH238253   3.094   2.719   5.554 -0.3432 -0.1174 -0.0841
 5613TIP3    H138254   3.110   2.805   5.515 -0.1882 -0.3330 -0.4927
 5613TIP3    H238255   3.063   2.739   5.643  1.0178  0.3303  0.3062
 5614TIP3   OH238256   1.655   4.870   2.481  0.8474 -0.2564 -0.2660
 5614TIP3    H138257   1.668   4.958   2.446  1.9068 -0.2328  0.1688
 5614TIP3    H238258   1.594   4.882   2.554  1.5675  0.2433  0.2747
 5615TIP3   OH238259   6.745   3.521  16.034 -0.1155  0.2006  0.2421
 5615TIP3    H138260   6.698   3.440  16.050 -0.2127  0.2974  0.4548
 5615TIP3    H238261   6.808   3.500  15.966 -0.6327  0.1306 -0.2223
 5616TIP3   OH238262   0.625   5.054   5.163  0.2037 -0.1314 -0.0482
 5616TIP3    H138263   0.702   5.102   5.133  0.7344 -1.2934 -0.5317
 5616TIP3    H238264   0.617   5.078   5.256 -0.7242  2.4962 -0.7384
 5617TIP3   OH238265   4.148   1.236  12.998  0.3485 -0.0439  0.2179
 5617TIP3    H138266   4.055   1.222  13.016  0.2661 -0.0472 -0.1928
 5617TIP3    H238267   4.151   1.319  12.950  0.5221 -0.2041 -0.0536
 5618TIP3   OH238268   3.530   5.419  14.699  0.8346 -0.6133 -0.2460
 5618TIP3    H138269   3.587   5.348  14.671  2.5291  0.5536  0.1770
 5618TIP3    H238270   3.579   5.464  14.767 -1.0598 -0.2352  0.9185
 5619TIP3   OH238271   2.799   1.102  16.204 -0.2477 -0.5191  0.5152
 5619TIP3    H138272   2.884   1.102  16.247  0.0999  0.0872 -0.1575
 5619TIP3    H238273   2.766   1.191  16.215 -1.6043 -1.2260  2.3359
 5620TIP3   OH238274   3.433   2.692   4.470 -0.1125  0.0571  0.1567
 5620TIP3    H138275   3.370   2.693   4.542  0.2200 -1.4950  0.4821
 5620TIP3    H238276   3.516   2.720   4.509 -0.7161  2.8469 -0.4286
 5621TIP3   OH238277   2.740   2.520  10.864 -0.2054 -0.6395  0.5795
 5621TIP3    H138278   2.694   2.473  10.794  1.2698 -0.2424 -0.6822
 5621TIP3    H238279   2.806   2.458  10.896  2.7029  0.9414 -2.0531
 5622TIP3   OH238280   4.222   2.102   2.203  0.1045 -0.3999 -0.0699
 5622TIP3    H138281   4.314   2.127   2.200  0.5783 -2.0210  0.3156
 5622TIP3    H238282   4.215   2.044   2.279 -0.5711 -2.7259 -1.8398
 5623TIP3   OH238283   4.935   2.132   1.796 -0.0178 -0.4691 -0.6537
 5623TIP3    H138284   4.980   2.084   1.726  1.9405  1.0030 -0.4529
 5623TIP3    H238285   4.947   2.078   1.874  1.8906  0.1316 -0.4971
 5624TIP3   OH238286   4.291   3.838  12.823  0.4830  0.1734 -0.3885
 5624TIP3    H138287   4.367   3.781  12.834  0.9782  0.4769 -2.1074
 5624TIP3    H238288   4.299   3.902  12.894  1.5626 -0.1127 -0.2424
 5625TIP3   OH238289   3.691   1.277   3.687  0.8460  0.5504  0.5360
 5625TIP3    H138290   3.729   1.273   3.775 -1.2983  1.3393  1.5337
 5625TIP3    H238291   3.597   1.271   3.702  0.4771  0.3968 -1.7498
 5626TIP3   OH238292   2.416   1.942   5.885 -0.0555  0.2162  0.5656
 5626TIP3    H138293   2.369   2.024   5.873  0.3124  0.2643 -0.5528
 5626TIP3    H238294   2.455   1.950   5.973 -0.1242  1.1819  0.5144
 5627TIP3   OH238295   5.373   3.563   6.102 -0.2648  0.1942 -0.3113
 5627TIP3    H138296   5.338   3.564   6.191 -0.2994 -0.9078 -0.3156
 5627TIP3    H238297   5.419   3.480   6.095  0.7242  0.7890 -0.9461
 5628TIP3   OH238298   6.099   2.664  15.604  0.3155  0.9026 -0.3743
 5628TIP3    H138299   6.152   2.609  15.661 -1.1043  1.8016  1.8973
 5628TIP3    H238300   6.115   2.754  15.634 -1.2595  1.3030 -0.6407
 5629TIP3   OH238301   0.017   4.703  14.706 -0.0446 -0.0146 -0.0086
 5629TIP3    H138302  -0.047   4.632  14.708  0.8040 -0.7794 -0.1190
 5629TIP3    H238303  -0.008   4.756  14.630  1.1659 -1.9085 -1.7813
 5630TIP3   OH238304   0.438   5.736  12.426 -0.0610 -1.2458  0.0640
 5630TIP3    H138305   0.488   5.763  12.503 -0.2177  0.1440 -0.2971
 5630TIP3    H238306   0.436   5.641  12.430 -0.2269 -1.1849  1.8776
 5631TIP3   OH238307   6.577   2.152  13.463 -0.3548 -0.0947 -0.0733
 5631TIP3    H138308   6.590   2.203  13.543 -2.0365 -0.5560  0.5140
 5631TIP3    H238309   6.517   2.205  13.410  0.0170 -0.2197 -0.6206
 5632TIP3   OH238310   3.141   6.446  16.025  0.5041  0.2259  0.2101
 5632TIP3    H138311   3.227   6.408  16.007  0.6070  1.0274 -1.1202
 5632TIP3    H238312   3.108   6.399  16.101  1.5433 -1.0266 -0.1080
 5633TIP3   OH238313   4.682   2.699   4.405  0.2985 -0.5780 -0.1221
 5633TIP3    H138314   4.715   2.731   4.489  2.3226  0.3250 -1.2207
 5633TIP3    H238315   4.740   2.738   4.340 -2.3086  0.1686 -2.0916
 5634TIP3   OH238316   4.638   5.290  15.458  0.3004  0.0005  0.9299
 5634TIP3    H138317   4.684   5.354  15.512  0.4194  0.5549  0.1729
 5634TIP3    H238318   4.553   5.280  15.500 -0.2592  1.7281  0.2603
 5635TIP3   OH238319   1.455   5.721  13.895  0.1046 -0.0880  0.4546
 5635TIP3    H138320   1.536   5.678  13.920  0.8731  0.3055 -1.3061
 5635TIP3    H238321   1.417   5.664  13.828  0.8034  1.5836 -1.4138
 5636TIP3   OH238322   0.029   1.376  15.658  0.5214 -0.0959 -0.2158
 5636TIP3    H138323   0.048   1.356  15.750  0.3241  1.5809  0.2036
 5636TIP3    H238324  -0.016   1.298  15.626  1.9649 -1.3194  0.6763
 5637TIP3   OH238325   0.823   6.609  13.189  0.2153 -0.2513  0.1010
 5637TIP3    H138326   0.780   6.536  13.233  0.8851 -0.8927 -0.3045
 5637TIP3    H238327   0.785   6.687  13.229  0.1669 -0.8217  1.1622
 5638TIP3   OH238328   4.587   1.464  11.536 -0.0714 -0.3151 -0.6082
 5638TIP3    H138329   4.505   1.436  11.575 -0.7565  0.5299 -1.4315
 5638TIP3    H238330   4.650   1.463  11.608 -0.6513 -1.5542 -0.1041
 5639TIP3   OH238331   0.802   2.948   0.039 -0.1124 -0.5581 -0.6991
 5639TIP3    H138332   0.783   2.855   0.022 -0.1799 -0.7474  0.3812
 5639TIP3    H238333   0.723   2.994   0.010 -0.2411 -0.8764 -0.8559
 5640TIP3   OH238334   3.665   1.299   2.270 -0.1785  0.0651 -0.5529
 5640TIP3    H138335   3.703   1.282   2.184 -0.0847 -2.1232 -0.0961
 5640TIP3    H238336   3.603   1.228   2.284 -2.8326  2.3487 -0.3145
 5641TIP3   OH238337   5.379   3.075  11.231 -0.2982  0.0466 -0.2335
 5641TIP3    H138338   5.297   3.080  11.181 -1.4425 -0.8778  1.5010
 5641TIP3    H238339   5.412   2.987  11.214  1.4423  1.0981 -2.5624
 5642TIP3   OH238340   1.707   0.900   1.226  0.0359 -0.1757 -0.5167
 5642TIP3    H138341   1.653   0.927   1.300  0.0481 -1.0964 -0.1745
 5642TIP3    H238342   1.796   0.898   1.261  0.1595  0.2743 -0.7979
 5643TIP3   OH238343   2.103   1.362   2.187  0.1126  0.6490  0.1664
 5643TIP3    H138344   2.162   1.297   2.224 -1.7511 -2.1078 -1.5479
 5643TIP3    H238345   2.160   1.421   2.138  1.5637 -1.4593 -0.7466
 5644TIP3   OH238346   6.621   5.691  15.946  0.3601 -0.0140  0.4621
 5644TIP3    H138347   6.714   5.667  15.945  0.5938  0.9101  0.1392
 5644TIP3    H238348   6.578   5.616  15.989  0.9563 -1.4680 -1.4005
 5645TIP3   OH238349   1.849   1.275  11.761  0.2509 -0.1204 -0.1467
 5645TIP3    H138350   1.832   1.201  11.819 -0.7505 -0.5609 -0.9844
 5645TIP3    H238351   1.924   1.247  11.708 -2.2125 -1.9444 -2.7849
 5646TIP3   OH238352   5.192   4.239   4.157  0.1986  0.3781  0.3399
 5646TIP3    H138353   5.218   4.208   4.070 -0.0053  1.0353  0.0452
 5646TIP3    H238354   5.217   4.331   4.159  0.1836  0.3747  0.9738
 5647TIP3   OH238355   0.229   5.174  13.527 -1.2128  0.5897  0.0448
 5647TIP3    H138356   0.196   5.202  13.612 -1.1631 -1.5954  0.8129
 5647TIP3    H238357   0.320   5.204  13.526 -1.5726  1.7305  0.2140
 5648TIP3   OH238358   3.486   6.223   1.343 -0.4792  0.1375  0.0595
 5648TIP3    H138359   3.531   6.163   1.402  0.6425  1.0118  0.1135
 5648TIP3    H238360   3.524   6.309   1.363 -0.4012  0.5074 -1.6164
 5649TIP3   OH238361   0.290   1.921   2.933  0.2830 -0.0780 -0.1785
 5649TIP3    H138362   0.226   1.971   2.984 -2.7633 -2.6511 -1.3561
 5649TIP3    H238363   0.291   1.964   2.847  0.3513  0.1619 -0.0568
 5650TIP3   OH238364   5.915   6.471   0.454 -0.1121  0.4172  0.0649
 5650TIP3    H138365   5.856   6.397   0.456  0.4133  0.0087  0.8022
 5650TIP3    H238366   5.978   6.454   0.524  0.3729  1.2562 -0.1506
 5651TIP3   OH238367   3.961   1.848  13.921  0.2588  0.0611  0.4154
 5651TIP3    H138368   3.886   1.903  13.897  0.9457  0.4898 -0.8143
 5651TIP3    H238369   3.950   1.769  13.868  1.8009  1.0224 -1.4206
 5652TIP3   OH238370   6.185   1.046  15.607  0.6723 -0.2702  0.1280
 5652TIP3    H138371   6.110   1.036  15.549  0.8690 -0.9907 -0.0071
 5652TIP3    H238372   6.261   1.043  15.549  0.8179  0.2862  0.2831
 5653TIP3   OH238373   0.229   6.776   4.064  0.6485 -0.1346  0.0628
 5653TIP3    H138374   0.163   6.732   4.118 -0.0730  0.7849 -0.0461
 5653TIP3    H238375   0.257   6.851   4.116 -0.5631  1.1625 -1.1039
 5654TIP3   OH238376   5.388   4.568   2.712  0.2051  0.1576 -0.5871
 5654TIP3    H138377   5.320   4.516   2.755  0.1012 -1.0143 -2.1087
 5654TIP3    H238378   5.359   4.659   2.722 -1.6256 -0.3275 -1.2287
 5655TIP3   OH238379   0.468   0.461   1.383 -0.1599  0.1300  0.4984
 5655TIP3    H138380   0.457   0.551   1.353 -0.3911  0.0344  0.2983
 5655TIP3    H238381   0.389   0.415   1.354  0.0450 -0.1850  0.4275
 5656TIP3   OH238382   0.994   2.583  16.203 -0.0442  0.1113 -0.3185
 5656TIP3    H138383   0.929   2.653  16.202  1.2037  1.3137  0.5628
 5656TIP3    H238384   0.986   2.544  16.291  0.9792  0.8122  0.0948
 5657TIP3   OH238385   5.110   1.242   1.085  0.2670 -0.2532 -0.2024
 5657TIP3    H138386   5.134   1.296   1.010 -0.4456  0.6951  0.2421
 5657TIP3    H238387   5.025   1.277   1.113 -0.4650 -1.9555 -0.2468
 5658TIP3   OH238388   4.165   4.758   0.459 -0.5685  0.3555 -0.4314
 5658TIP3    H138389   4.099   4.806   0.409 -1.3917 -0.8946 -0.5690
 5658TIP3    H238390   4.160   4.669   0.427  2.3187  0.5468 -1.5523
 5659TIP3   OH238391   2.476   6.052  13.801  0.2937 -0.4159  0.0654
 5659TIP3    H138392   2.567   6.025  13.812  0.5363  0.1556 -0.4753
 5659TIP3    H238393   2.472   6.138  13.843  0.5403  0.5254 -1.7703
 5660TIP3   OH238394   4.543   0.287  17.180 -0.0602  0.1130  0.1702
 5660TIP3    H138395   4.597   0.349  17.132  0.8594  1.1748  2.5188
 5660TIP3    H238396   4.477   0.341  17.224 -0.9636 -0.8521  0.0424
 5661TIP3   OH238397   3.916   6.610   2.721 -0.1154 -0.0494  0.6434
 5661TIP3    H138398   3.940   6.626   2.812 -1.9915  0.3305  1.0993
 5661TIP3    H238399   3.935   6.693   2.677  0.7748 -0.2277  0.6745
 5662TIP3   OH238400   1.135   5.264  11.462  0.1680 -0.0247  0.1713
 5662TIP3    H138401   1.118   5.325  11.390  0.1963  0.3237  0.4631
 5662TIP3    H238402   1.225   5.235  11.447  0.2773  0.2834  0.2453
 5663TIP3   OH238403   3.072   0.767   3.338  0.1041 -0.0412 -0.0780
 5663TIP3    H138404   3.008   0.699   3.362  0.0555  0.3573  0.9291
 5663TIP3    H238405   3.089   0.814   3.420  3.0318 -1.2469  0.0596
 5664TIP3   OH238406   2.347   2.866  13.441 -0.3398  0.5006 -0.3783
 5664TIP3    H138407   2.296   2.794  13.404  0.3616 -1.0259  1.5116
 5664TIP3    H238408   2.289   2.942  13.434 -2.2789 -0.8586  0.2764
 5665TIP3   OH238409   3.308   0.341  14.636 -0.3774 -0.0871 -0.3853
 5665TIP3    H138410   3.257   0.278  14.688  1.4281 -0.7332  0.6639
 5665TIP3    H238411   3.389   0.294  14.614 -0.2594  0.8788 -2.0959
 5666TIP3   OH238412   0.569   2.263   0.737 -0.2128  0.1142 -0.5775
 5666TIP3    H138413   0.610   2.328   0.794 -1.1907  1.3444 -1.2646
 5666TIP3    H238414   0.641   2.232   0.682  0.0159  1.6296 -1.1747
 5667TIP3   OH238415   3.617   1.217   1.617 -0.0749  0.2849  0.0286
 5667TIP3    H138416   3.576   1.148   1.565  1.4643 -0.9918  0.4541
 5667TIP3    H238417   3.567   1.218   1.699  1.0697 -1.7102  0.8083
 5668TIP3   OH238418   4.834   3.796   1.376  0.7669 -0.7344  0.2088
 5668TIP3    H138419   4.792   3.739   1.441 -1.3435  0.1626 -0.3113
 5668TIP3    H238420   4.767   3.862   1.355  2.3555  0.5736 -0.8933
 5669TIP3   OH238421   3.891   6.475  14.947  0.4577  0.1804  0.4352
 5669TIP3    H138422   3.816   6.466  14.889 -1.0563  2.9991  1.8990
 5669TIP3    H238423   3.896   6.391  14.992 -1.1559 -0.4049 -0.4337
 5670TIP3   OH238424   1.999   2.542  15.522 -0.1961 -0.2524 -0.1907
 5670TIP3    H138425   2.042   2.587  15.595 -0.9867 -0.7551  0.6112
 5670TIP3    H238426   1.906   2.543  15.546 -0.1684 -2.8867  0.2104
 5671TIP3   OH238427   6.269   4.051   3.229 -0.0046 -0.0977  0.8716
 5671TIP3    H138428   6.317   4.132   3.211 -1.4091  0.6572  0.4764
 5671TIP3    H238429   6.198   4.077   3.287 -1.6081 -0.6798 -0.7807
 5672TIP3   OH238430   6.552   4.758  16.443 -0.0530 -0.2315 -0.1701
 5672TIP3    H138431   6.504   4.813  16.505  0.7875  0.6128 -0.2631
 5672TIP3    H238432   6.488   4.738  16.375 -0.4414  0.4115 -0.0038
 5673TIP3   OH238433   1.749   1.449   6.027  0.0307  0.0957  0.4050
 5673TIP3    H138434   1.737   1.404   6.111  3.2156 -0.9761  0.3694
 5673TIP3    H238435   1.784   1.381   5.969 -0.4011  1.2836 -1.2764
 5674TIP3   OH238436   5.934   5.043  14.022  0.0188 -0.6156  0.0180
 5674TIP3    H138437   5.928   5.101  13.946  0.5505 -1.0583 -0.3645
 5674TIP3    H238438   6.024   5.053  14.053 -0.7107  1.0113  1.7535
 5675TIP3   OH238439   5.318   5.535   2.459 -0.7923  0.0307  0.5991
 5675TIP3    H138440   5.226   5.544   2.437 -0.5486 -0.9443 -0.8965
 5675TIP3    H238441   5.332   5.440   2.466  0.6670  0.0009 -1.9133
 5676TIP3   OH238442   4.033   5.271  14.076  0.1733  0.4356 -0.1403
 5676TIP3    H138443   3.977   5.335  14.033  0.4035 -0.3084 -1.5927
 5676TIP3    H238444   3.983   5.189  14.071  1.0868 -0.0865 -0.8354
 5677TIP3   OH238445   5.830   4.473   5.349  0.1523  0.4316  0.0354
 5677TIP3    H138446   5.798   4.457   5.437 -0.1676  0.6057 -0.0495
 5677TIP3    H238447   5.828   4.569   5.339 -0.7331  0.3694 -0.4998
 5678TIP3   OH238448   0.070   6.133   6.605  0.0290  0.4692  0.2292
 5678TIP3    H138449  -0.015   6.150   6.645 -1.4349 -1.3571 -1.9522
 5678TIP3    H238450   0.060   6.165   6.515  2.6169  2.8035  0.7050
 5679TIP3   OH238451   5.726   3.238   0.618 -0.5242  0.6673 -0.0600
 5679TIP3    H138452   5.706   3.233   0.712 -0.6190 -0.8681 -0.1512
 5679TIP3    H238453   5.821   3.229   0.613 -0.5566  0.3430 -0.1292
 5680TIP3   OH238454   4.584   0.948   1.616  0.3031  0.1999  0.2541
 5680TIP3    H138455   4.667   0.902   1.614  0.2299  0.1085 -0.7515
 5680TIP3    H238456   4.521   0.887   1.578  0.5232  1.7220 -2.6868
 5681TIP3   OH238457   0.720   0.463  13.637 -0.2648  0.1897 -0.1830
 5681TIP3    H138458   0.636   0.506  13.625 -0.7159 -0.7571 -0.4426
 5681TIP3    H238459   0.781   0.513  13.582 -0.6216  0.9525  0.1042
 5682TIP3   OH238460   1.398   4.293  12.692  0.2397 -0.5253 -0.1069
 5682TIP3    H138461   1.418   4.386  12.686  1.3140 -0.8076 -1.2166
 5682TIP3    H238462   1.455   4.260  12.761  1.3852 -0.7382 -1.1356
 5683TIP3   OH238463   3.292   3.030   5.945  0.1717  0.2330 -0.0644
 5683TIP3    H138464   3.326   2.963   5.886  0.9322  1.9378 -1.5941
 5683TIP3    H238465   3.216   2.989   5.987  0.9217 -1.7461 -0.5867
 5684TIP3   OH238466   3.960   5.966   0.879 -0.2789  0.0091 -0.2966
 5684TIP3    H138467   3.881   5.995   0.832  0.1623  2.0667  0.1582
 5684TIP3    H238468   4.002   5.904   0.819 -2.3806 -1.3282 -0.4206
 5685TIP3   OH238469   1.108   2.458   2.822 -0.7421 -0.5403  0.7197
 5685TIP3    H138470   1.149   2.391   2.876  0.7269 -0.5630 -0.3981
 5685TIP3    H238471   1.176   2.484   2.760 -1.7235  1.0121  0.2616
 5686TIP3   OH238472   2.136   0.455  11.811  0.2695 -0.0529 -0.0820
 5686TIP3    H138473   2.120   0.477  11.719 -1.0845 -0.2723  0.0931
 5686TIP3    H238474   2.060   0.402  11.836  0.6238  0.0243  1.1687
 5687TIP3   OH238475   3.956   0.193  10.836 -0.0975 -0.5233  0.0075
 5687TIP3    H138476   3.972   0.123  10.772  2.4875 -0.2355  0.3139
 5687TIP3    H238477   4.038   0.242  10.840 -1.1173  1.1301  1.5413
 5688TIP3   OH238478   6.713   6.315  13.249  0.3092 -0.6200  0.2809
 5688TIP3    H138479   6.762   6.392  13.278 -0.3684 -0.0089 -0.1637
 5688TIP3    H238480   6.718   6.254  13.322 -0.1358  0.3127  1.1142
 5689TIP3   OH238481   4.453   2.678  14.854 -0.0072  0.1635 -0.1894
 5689TIP3    H138482   4.491   2.726  14.928  0.5200 -0.2007 -0.2199
 5689TIP3    H238483   4.359   2.696  14.859  0.1726  1.1540 -0.1632
 5690TIP3   OH238484   2.953   0.700  12.135  0.2115 -0.5370  0.1086
 5690TIP3    H138485   2.924   0.705  12.226 -1.5279 -2.7992 -0.2903
 5690TIP3    H238486   3.048   0.695  12.140  0.1110 -0.9172  1.8075
 5691TIP3   OH238487   1.661   6.122   2.163  0.8526  0.2977 -0.0971
 5691TIP3    H138488   1.610   6.075   2.230  0.0408  0.2249 -0.7668
 5691TIP3    H238489   1.723   6.056   2.131  0.3731 -0.0378 -0.3401
 5692TIP3   OH238490   4.324   3.115  15.757 -0.2024  0.0059  0.1753
 5692TIP3    H138491   4.361   3.043  15.808  0.9825 -0.6168 -1.5400
 5692TIP3    H238492   4.295   3.075  15.675 -0.0698  1.3755 -0.5633
 5693TIP3   OH238493   5.106   6.196  16.355 -0.4736 -0.0773 -0.0321
 5693TIP3    H138494   5.099   6.101  16.367  0.1919  0.1370  2.3455
 5693TIP3    H238495   5.034   6.232  16.407  0.6958  0.8044  0.9990
 5694TIP3   OH238496   6.338   6.354   0.111 -0.7043  0.0754 -0.1479
 5694TIP3    H138497   6.351   6.449   0.109  0.5798 -0.0927 -0.6091
 5694TIP3    H238498   6.419   6.320   0.149 -1.0910 -0.8469 -0.1358
 5695TIP3   OH238499   4.962   3.676  11.637  0.3219 -0.5331 -0.0525
 5695TIP3    H138500   5.041   3.623  11.624  0.4065 -0.5924  0.7095
 5695TIP3    H238501   4.895   3.631  11.585  0.8715 -0.2696 -1.0142
 5696TIP3   OH238502   4.995   1.625   1.153  0.1631  0.2497  0.4080
 5696TIP3    H138503   5.083   1.589   1.161  0.8068  2.2402  3.0292
 5696TIP3    H238504   4.952   1.602   1.235 -1.8739 -0.9102 -0.9456
 5697TIP3   OH238505   2.570   4.486   6.301 -0.0798 -0.0041 -0.9312
 5697TIP3    H138506   2.484   4.506   6.337  0.0242  0.6120 -1.0162
 5697TIP3    H238507   2.614   4.437   6.370 -0.7749 -1.0042 -1.1903
 5698TIP3   OH238508   6.643   1.102  15.250 -0.1692  0.2177 -0.3339
 5698TIP3    H138509   6.724   1.145  15.278 -0.3979  0.6556 -0.3478
 5698TIP3    H238510   6.606   1.160  15.185 -0.5580  0.0724 -0.2442
 5699TIP3   OH238511   4.062   6.509  11.388  0.0675  0.3177  0.0767
 5699TIP3    H138512   4.119   6.526  11.313 -0.2921  4.0108  0.5423
 5699TIP3    H238513   3.986   6.567  11.374 -1.0733 -0.6146  2.1269
 5700TIP3   OH238514   3.002   0.444  15.549 -0.3537  0.3262 -0.2512
 5700TIP3    H138515   3.073   0.386  15.576 -0.8863  0.1070  0.7176
 5700TIP3    H238516   2.980   0.494  15.627 -1.1350  0.5257 -0.5865
 5701TIP3   OH238517   3.667   0.662   5.593 -0.1691 -0.5772  0.3026
 5701TIP3    H138518   3.737   0.717   5.626 -2.7169  3.8032 -1.1434
 5701TIP3    H238519   3.702   0.625   5.512  1.6249 -1.2430  1.3568
 5702TIP3   OH238520   4.789   4.475   4.505  0.6579  0.3537  0.2193
 5702TIP3    H138521   4.824   4.524   4.431  0.1028 -0.5815 -0.6705
 5702TIP3    H238522   4.721   4.420   4.468  0.5091 -0.2810  1.3939
 5703TIP3   OH238523   0.894   5.797  16.506  0.1622  0.0614  0.5086
 5703TIP3    H138524   0.846   5.863  16.557  0.6179  0.6383  0.1961
 5703TIP3    H238525   0.830   5.727  16.492 -0.1569  0.1799  1.3298
 5704TIP3   OH238526   2.165   0.429  14.853 -0.2062 -0.4325 -0.4630
 5704TIP3    H138527   2.093   0.492  14.853 -0.0048 -0.1889 -1.4580
 5704TIP3    H238528   2.146   0.370  14.925 -1.6082 -0.6157 -0.9775
 5705TIP3   OH238529   0.297   1.941  11.841  0.2596  1.0193  0.5341
 5705TIP3    H138530   0.387   1.911  11.851  0.2069  0.5926 -0.2803
 5705TIP3    H238531   0.304   2.036  11.825  0.7087  0.5728 -2.0592
 5706TIP3   OH238532   0.250   1.961   2.381  0.4343  0.5671 -0.1239
 5706TIP3    H138533   0.323   2.016   2.352  0.7342 -0.1835 -0.8312
 5706TIP3    H238534   0.178   1.985   2.322  0.1965  1.0882  0.3751
 5707TIP3   OH238535   0.109   4.756   5.123  0.1429 -0.4515 -0.0314
 5707TIP3    H138536   0.175   4.775   5.190 -0.4932  2.2420 -0.1177
 5707TIP3    H238537   0.033   4.808   5.150 -0.6020 -0.4586 -2.0600
 5708TIP3   OH238538   4.509   5.515   5.035  0.1422 -0.0959  0.2172
 5708TIP3    H138539   4.485   5.561   4.954  2.1173  0.3578 -0.1476
 5708TIP3    H238540   4.578   5.569   5.073  0.0288 -0.9272  1.6141
 5709TIP3   OH238541   4.653   1.162  14.330 -0.2132 -0.2311  0.1673
 5709TIP3    H138542   4.584   1.099  14.311 -0.1899 -0.4112  0.6532
 5709TIP3    H238543   4.733   1.109  14.338  0.2552  0.1376 -1.8346
 5710TIP3   OH238544   3.686   6.139   4.924 -0.1380  0.3576 -0.0608
 5710TIP3    H138545   3.769   6.093   4.935 -0.2540  0.0605 -0.3848
 5710TIP3    H238546   3.660   6.120   4.833 -0.8585 -0.0688  0.2238
 5711TIP3   OH238547   2.035   4.503  13.429  0.3364  0.1113 -0.0519
 5711TIP3    H138548   2.013   4.441  13.359 -1.6536  1.2046 -0.4443
 5711TIP3    H238549   2.074   4.578  13.383 -0.4398  0.5876  0.0519
 5712TIP3   OH238550   0.390   1.086  16.298 -0.0719 -0.3887 -0.1328
 5712TIP3    H138551   0.432   1.127  16.374 -1.2212  1.6945 -0.5968
 5712TIP3    H238552   0.454   1.021  16.269  1.3423  0.3184  1.2791
 5713TIP3   OH238553   5.026   5.307  11.988  0.1592  0.9409 -0.0360
 5713TIP3    H138554   5.042   5.229  12.041  1.7858  1.7625  0.7128
 5713TIP3    H238555   5.029   5.276  11.898  1.1601  0.1907  0.2490
 5714TIP3   OH238556   6.510   4.976  14.993  0.4382  0.1321  0.4120
 5714TIP3    H138557   6.572   4.932  15.052 -0.6382 -1.6660  0.2265
 5714TIP3    H238558   6.481   4.908  14.933 -1.4482  1.0384  0.2494
 5715TIP3   OH238559   0.485   2.877   3.092 -0.1500 -1.0057 -0.0409
 5715TIP3    H138560   0.458   2.802   3.038 -1.0180 -0.3007 -0.5962
 5715TIP3    H238561   0.403   2.913   3.126  0.2068  0.1095 -0.3347
 5716TIP3   OH238562   2.160   0.796   3.782 -0.3906  0.0592  0.3569
 5716TIP3    H138563   2.135   0.864   3.844 -1.0906 -0.1268  0.2782
 5716TIP3    H238564   2.159   0.715   3.833 -0.5193 -0.0291  0.2142
 5717TIP3   OH238565   2.300   1.284  11.820  0.5685 -0.1602 -0.5319
 5717TIP3    H138566   2.326   1.205  11.771  0.4392 -1.5922  1.6332
 5717TIP3    H238567   2.235   1.253  11.883  0.8446  1.6010  0.6519
 5718TIP3   OH238568   4.335   4.058  16.067 -0.1529 -0.3090  0.4198
 5718TIP3    H138569   4.297   4.102  15.991  0.3275 -4.1663 -2.1468
 5718TIP3    H238570   4.266   4.062  16.133 -1.3152  1.3841 -0.8581
 5719TIP3   OH238571   1.620   4.022   2.996  0.5025  0.1317 -0.0947
 5719TIP3    H138572   1.610   4.113   3.026  3.7078  1.4057 -2.6301
 5719TIP3    H238573   1.649   3.974   3.074  0.0546  1.5025  0.9477
 5720TIP3   OH238574   6.469   4.543  12.105 -0.3497  0.0287 -0.7267
 5720TIP3    H138575   6.387   4.503  12.073 -0.8637  2.4753 -2.6332
 5720TIP3    H238576   6.535   4.474  12.092 -1.6415 -1.0841 -1.6186
 5721TIP3   OH238577   5.325   4.527  15.354  0.3920  0.5932  0.0441
 5721TIP3    H138578   5.322   4.457  15.288 -2.1595  1.4682 -0.8518
 5721TIP3    H238579   5.413   4.523  15.390  0.9295 -1.7693 -1.4250
 5722TIP3   OH238580   1.251   0.225   6.070  0.1099 -0.6485 -0.6470
 5722TIP3    H138581   1.159   0.200   6.061  0.0722 -0.7509  0.0124
 5722TIP3    H238582   1.287   0.164   6.135  0.6775 -0.6931 -0.9971
 5723TIP3   OH238583   3.485   3.117  15.981 -0.6561  0.1609  0.1890
 5723TIP3    H138584   3.420   3.151  15.920 -0.7342 -0.3770 -0.0345
 5723TIP3    H238585   3.541   3.061  15.927 -1.6620 -1.5702  0.8983
 5724TIP3   OH238586   1.618   3.692  15.040  0.4886  0.0033  0.0028
 5724TIP3    H138587   1.663   3.667  15.121  1.7800 -0.1884 -0.7599
 5724TIP3    H238588   1.685   3.738  14.989 -0.7525  1.5007 -0.3084
 5725TIP3   OH238589   2.929   5.941   0.793 -0.1689  0.1527  0.5339
 5725TIP3    H138590   2.848   5.892   0.781  0.2783  0.0500 -2.5464
 5725TIP3    H238591   2.901   6.024   0.832 -1.1959 -1.4801  3.4592
 5726TIP3   OH238592   0.532   5.775   1.216  0.2961  0.2538  0.7784
 5726TIP3    H138593   0.557   5.707   1.278  0.3988 -1.2519 -0.8655
 5726TIP3    H238594   0.448   5.746   1.181  0.6069  0.6625 -0.3462
 5727TIP3   OH238595   1.651   4.321   3.121 -0.8928 -0.3156  0.2311
 5727TIP3    H138596   1.670   4.332   3.028  1.1613  0.5533  0.7219
 5727TIP3    H238597   1.703   4.389   3.164 -1.6286 -0.8671  2.0359
 5728TIP3   OH238598   2.930   3.734  16.821 -0.5288  0.0025  1.0197
 5728TIP3    H138599   3.005   3.759  16.767 -0.9897  1.0235  0.8287
 5728TIP3    H238600   2.861   3.714  16.758 -0.4336 -0.8988  1.1943
 5729TIP3   OH238601   4.601   3.640   0.479  0.3008  0.4178  0.1983
 5729TIP3    H138602   4.651   3.559   0.491  0.2007  0.5882  2.0197
 5729TIP3    H238603   4.521   3.613   0.434 -0.5302 -0.8211  2.3395
 5730TIP3   OH238604   3.223   0.123   4.052 -0.2359  0.5890 -0.2767
 5730TIP3    H138605   3.172   0.058   4.099  2.4883  0.5444  2.7964
 5730TIP3    H238606   3.202   0.206   4.094  1.2706  0.7238  0.2513
 5731TIP3   OH238607   0.522   0.460  10.508  1.0943  0.5236 -0.1774
 5731TIP3    H138608   0.496   0.373  10.538 -0.0622  0.5474 -1.0931
 5731TIP3    H238609   0.546   0.506  10.588  0.7702 -0.3117  0.4134
 5732TIP3   OH238610   4.511   2.422   5.420  0.1499 -0.7202 -0.1414
 5732TIP3    H138611   4.566   2.374   5.482 -0.2539 -0.3988  0.4646
 5732TIP3    H238612   4.440   2.458   5.473  2.2908  3.4952  0.0616
 5733TIP3   OH238613   3.331   2.585   1.077 -0.3523  0.2033  0.1026
 5733TIP3    H138614   3.332   2.647   1.004 -0.7076 -0.3958 -0.4090
 5733TIP3    H238615   3.413   2.537   1.069 -0.6849 -0.3020 -0.2793
 5734TIP3   OH238616   0.047   2.785   5.116 -0.3069 -0.3346 -0.3695
 5734TIP3    H138617   0.097   2.708   5.143  0.4605  0.3699  0.2236
 5734TIP3    H238618  -0.043   2.752   5.105  0.0835 -1.3840 -0.4706
 5735TIP3   OH238619   5.579   3.644  11.564 -0.3510  0.4894  0.2787
 5735TIP3    H138620   5.621   3.728  11.544 -0.9480  1.4211  2.7298
 5735TIP3    H238621   5.648   3.591  11.602 -0.0981  0.0407 -0.7940
 5736TIP3   OH238622   6.229   5.387   1.973  0.3410 -0.4486 -0.2184
 5736TIP3    H138623   6.165   5.456   1.987  0.3152 -0.7165  1.1297
 5736TIP3    H238624   6.210   5.353   1.886  0.2872  1.1666 -0.8515
 5737TIP3   OH238625   3.175   0.310  10.940 -0.1606  0.0583  0.1844
 5737TIP3    H138626   3.177   0.294  11.034 -1.3184  0.8152  0.3420
 5737TIP3    H238627   3.187   0.404  10.931 -1.1686  0.1418 -0.3678
 5738TIP3   OH238628   5.141   6.009   5.318 -0.6228 -0.3275 -0.2680
 5738TIP3    H138629   5.188   5.956   5.253  0.7408  0.6249 -0.0881
 5738TIP3    H238630   5.109   6.084   5.269 -2.2611 -1.1412 -0.4529
 5739TIP3   OH238631   0.584   4.906   0.902  0.1312  0.6904  0.3866
 5739TIP3    H138632   0.592   4.949   0.817  0.3738  0.2535  0.1852
 5739TIP3    H238633   0.665   4.928   0.948 -0.0992  1.1138  0.5931
 5740TIP3   OH238634   5.568   1.987   4.545 -0.9885  0.0691 -0.2298
 5740TIP3    H138635   5.534   1.979   4.634  0.9033  0.6914  0.5771
 5740TIP3    H238636   5.597   1.899   4.523  1.6468  0.5602  1.0898
 5741TIP3   OH238637   1.784   0.411   3.422  0.3814 -0.0934  0.5778
 5741TIP3    H138638   1.787   0.470   3.347  2.3256 -1.7647 -0.6971
 5741TIP3    H238639   1.865   0.428   3.470  0.0646 -0.4110  1.2479
 5742TIP3   OH238640   5.610   0.179   4.148  0.2058  0.5524 -0.3136
 5742TIP3    H138641   5.684   0.118   4.150  1.3447  1.9488  1.0074
 5742TIP3    H238642   5.650   0.265   4.159 -1.6379  1.3252  0.4071
 5743TIP3   OH238643   3.707   1.872  11.577 -0.2369  0.3971 -0.7100
 5743TIP3    H138644   3.678   1.844  11.490 -1.2609  0.3264 -0.3620
 5743TIP3    H238645   3.652   1.948  11.597 -0.3266  0.1361  0.0578
 5744TIP3   OH238646   3.094   6.670   6.066 -0.0938  0.1733 -0.1343
 5744TIP3    H138647   3.132   6.583   6.047  0.6460  0.6144 -0.7065
 5744TIP3    H238648   3.156   6.732   6.027  0.8505  1.0754  2.6531
 5745TIP3   OH238649   2.581   5.229  13.647  0.7735  0.4534  0.6026
 5745TIP3    H138650   2.632   5.287  13.590  0.4938 -0.9723 -1.1262
 5745TIP3    H238651   2.490   5.255  13.632  0.5332 -1.3727 -1.2924
 5746TIP3   OH238652   0.602   0.444  10.256  0.1401  0.5431 -0.3948
 5746TIP3    H138653   0.583   0.448  10.350 -0.0158  1.9954 -0.4863
 5746TIP3    H238654   0.516   0.443  10.215  0.2072  2.3374 -0.6103
 5747TIP3   OH238655   5.540   2.224   1.788 -0.5565  0.4522 -0.5472
 5747TIP3    H138656   5.461   2.171   1.770  0.3111 -0.6125 -1.3077
 5747TIP3    H238657   5.589   2.172   1.851 -0.3781  1.0295 -0.2131
 5748TIP3   OH238658   0.429   1.129   3.624  0.0700 -0.6359  0.4999
 5748TIP3    H138659   0.472   1.204   3.583  0.0081 -0.4339  0.7934
 5748TIP3    H238660   0.484   1.110   3.700 -0.5699 -0.1213  1.1035
 5749TIP3   OH238661   3.446   4.985  12.857 -0.0896 -0.3191 -0.2661
 5749TIP3    H138662   3.499   5.014  12.783  1.1580  0.8198  1.0501
 5749TIP3    H238663   3.370   5.043  12.857  0.3616  0.2742 -0.1124
 5750TIP3   OH238664   5.340   4.519  16.418  0.3562 -0.0225 -0.0745
 5750TIP3    H138665   5.421   4.485  16.379 -0.0391 -0.2903 -0.6748
 5750TIP3    H238666   5.328   4.467  16.497 -0.3112 -1.3956 -1.0526
 5751TIP3   OH238667   1.519   5.639   1.563  0.7591 -0.5749 -0.1241
 5751TIP3    H138668   1.425   5.660   1.562  0.9920  0.4807 -0.5111
 5751TIP3    H238669   1.562   5.724   1.568  1.6892 -1.1001  0.7733
 5752TIP3   OH238670   4.195   0.524   0.156 -0.1268 -0.2883  0.1395
 5752TIP3    H138671   4.158   0.610   0.134 -1.7033 -1.0923 -0.4642
 5752TIP3    H238672   4.122   0.463   0.142  0.8496 -1.6642  1.0049
 5753TIP3   OH238673   0.111   1.772  10.738  0.2923  0.1673  0.0611
 5753TIP3    H138674   0.125   1.866  10.725  0.0424  0.2991  0.7115
 5753TIP3    H238675   0.119   1.734  10.651  0.1804  0.8225 -0.2366
 5754TIP3   OH238676   2.791   5.780   2.612  0.2745  0.4768 -0.0879
 5754TIP3    H138677   2.858   5.826   2.561  0.4896  0.2423 -0.0196
 5754TIP3    H238678   2.719   5.842   2.618  0.1270  0.3891 -0.9391
 5755TIP3   OH238679   4.786   0.069   4.973  0.1823 -0.3370  0.0055
 5755TIP3    H138680   4.710   0.045   4.921  0.1004  0.0739 -0.0686
 5755TIP3    H238681   4.847  -0.004   4.962 -0.4736 -0.9875  0.6270
 5756TIP3   OH238682   6.067   6.095   3.628  0.4035 -0.1272  0.7103
 5756TIP3    H138683   6.032   6.084   3.716  2.3940 -1.4342  1.3792
 5756TIP3    H238684   6.081   6.006   3.596  0.9557  0.3473 -0.3961
 5757TIP3   OH238685   5.538   5.858  12.182 -0.0427  0.4341 -0.0376
 5757TIP3    H138686   5.457   5.825  12.142  1.0223 -1.6099 -0.6067
 5757TIP3    H238687   5.529   5.837  12.275 -0.5532  1.0253  0.0488
 5758TIP3   OH238688   0.858   1.322  12.964  0.1071  0.4162  0.3278
 5758TIP3    H138689   0.763   1.313  12.969  0.0176  1.3928  0.5597
 5758TIP3    H238690   0.880   1.385  13.034  0.8297  0.7915 -0.2271
 5759TIP3   OH238691   6.059   2.150   0.115  0.1093  0.6086 -0.2026
 5759TIP3    H138692   6.047   2.055   0.124 -1.8607  0.8957  0.4248
 5759TIP3    H238693   6.153   2.163   0.123  0.3915 -1.2849 -0.1747
 5760TIP3   OH238694   3.668   4.627  10.746  0.6307 -0.3911  0.0726
 5760TIP3    H138695   3.733   4.677  10.795  0.7235 -1.2713  0.8830
 5760TIP3    H238696   3.700   4.536  10.751  0.3747 -0.5537 -1.2068
 5761TIP3   OH238697   3.900   4.267  12.150  0.2543 -0.0169 -0.2501
 5761TIP3    H138698   3.824   4.306  12.107  0.6892  0.8444 -0.2458
 5761TIP3    H238699   3.905   4.179  12.114 -1.6247 -0.5997  0.8438
 5762TIP3   OH238700   5.045   1.784  12.221  0.0375  0.3807 -0.9652
 5762TIP3    H138701   5.006   1.821  12.141  0.9605  1.4465 -0.9292
 5762TIP3    H238702   5.016   1.843  12.291 -0.2985 -0.2297 -0.5866
 5763TIP3   OH238703   4.890   2.979  15.885 -0.4041  0.2313  0.5590
 5763TIP3    H138704   4.909   2.890  15.915 -1.3446 -0.3111 -0.4047
 5763TIP3    H238705   4.938   2.989  15.803 -0.7282  0.4124  0.3875
 5764TIP3   OH238706   2.217   5.355  12.003  0.3715 -0.6138 -0.3278
 5764TIP3    H138707   2.144   5.308  12.043 -0.1388 -1.1324 -1.8319
 5764TIP3    H238708   2.261   5.290  11.949  1.6416 -0.1673  0.1375
 5765TIP3   OH238709   5.722   0.558   4.847 -0.2247  0.0415  0.0425
 5765TIP3    H138710   5.810   0.597   4.852 -0.2608 -0.0455  1.8245
 5765TIP3    H238711   5.736   0.466   4.868 -0.4098 -0.5471 -2.2794
 5766TIP3   OH238712   3.922   5.191  11.293 -0.1970  0.1440 -0.4025
 5766TIP3    H138713   3.972   5.147  11.224 -1.8692 -2.7195  0.1510
 5766TIP3    H238714   3.946   5.146  11.374 -0.1946  1.8001  0.5548
 5767TIP3   OH238715   5.469   3.175  10.881  0.3182 -0.3567 -0.2283
 5767TIP3    H138716   5.463   3.222  10.964 -0.3701  1.3020 -1.1849
 5767TIP3    H238717   5.561   3.179  10.858  0.9003 -2.7959  1.5413
 5768TIP3   OH238718   0.736   5.134  16.642 -0.0257  0.1422 -0.3388
 5768TIP3    H138719   0.672   5.160  16.709 -0.7885 -0.7987 -0.6824
 5768TIP3    H238720   0.740   5.208  16.582 -0.6999  0.2607 -0.2377
 5769TIP3   OH238721   2.000   3.361  16.310  0.6880  0.0260  0.2793
 5769TIP3    H138722   1.943   3.435  16.288  1.8837  0.6421 -0.8055
 5769TIP3    H238723   1.981   3.343  16.402 -2.1999 -0.6256 -0.3876
 5770TIP3   OH238724   2.552   0.578  16.212  0.1843  0.6659 -0.0940
 5770TIP3    H138725   2.630   0.569  16.266  0.4010  1.3624 -0.2887
 5770TIP3    H238726   2.486   0.617  16.270  0.0423  0.2727  0.0107
 5771TIP3   OH238727   5.223   1.812   2.333  0.2162  0.5077 -0.3337
 5771TIP3    H138728   5.317   1.794   2.333  0.0597 -0.3491 -1.9947
 5771TIP3    H238729   5.186   1.744   2.390  0.2338 -1.2884 -2.3988
 5772TIP3   OH238730   4.613   4.807   2.200  0.0031  0.3417  0.3851
 5772TIP3    H138731   4.645   4.741   2.138 -0.8972 -0.1633  0.4530
 5772TIP3    H238732   4.690   4.829   2.253  0.9554  1.2914 -1.3523
 5773TIP3   OH238733   0.302   1.554  12.172 -0.0395 -0.2798  0.5990
 5773TIP3    H138734   0.211   1.536  12.146 -0.0029 -0.6373  0.7204
 5773TIP3    H238735   0.324   1.635  12.126 -0.4365 -0.1666  0.6058
 5774TIP3   OH238736   6.051   6.629  13.177 -0.4147 -0.0956 -0.2073
 5774TIP3    H138737   6.015   6.692  13.115 -0.1223 -1.8656 -2.2291
 5774TIP3    H238738   6.140   6.613  13.146  1.0071  1.6639  2.7643
 5775TIP3   OH238739   6.055   4.068   3.409  0.2807  0.1666  0.3369
 5775TIP3    H138740   6.007   3.988   3.387  0.4953  0.3116 -0.7048
 5775TIP3    H238741   6.092   4.051   3.495 -1.5539  0.0065  1.1325
 5776TIP3   OH238742   1.360   3.343  15.629  0.0769  0.4466 -0.1379
 5776TIP3    H138743   1.382   3.374  15.541  1.2197 -1.0598 -0.3819
 5776TIP3    H238744   1.444   3.327  15.671 -0.4713  0.7108  1.0818
 5777TIP3   OH238745   4.922   1.074   5.923 -0.5409  0.6084  0.0464
 5777TIP3    H138746   4.872   1.117   5.992 -0.3938  0.8848 -0.0196
 5777TIP3    H238747   4.933   0.985   5.954 -2.5120  0.0688 -0.6803
 5778TIP3   OH238748   5.209   1.183   4.647 -0.3470 -0.5488 -0.0675
 5778TIP3    H138749   5.204   1.163   4.554 -1.1227 -0.4987 -0.0371
 5778TIP3    H238750   5.208   1.097   4.690 -0.0828 -0.5681 -0.0962
 5779TIP3   OH238751   4.028   0.291  15.119 -0.5059 -0.5397 -0.5781
 5779TIP3    H138752   4.030   0.217  15.181  0.4716  0.4300  0.5618
 5779TIP3    H238753   3.937   0.319  15.118 -0.4582 -0.2965  0.7652
 5780TIP3   OH238754   1.497   5.585  10.854  0.0111  0.5044  0.0746
 5780TIP3    H138755   1.417   5.572  10.804  0.2816 -0.8983 -0.0048
 5780TIP3    H238756   1.506   5.506  10.907  0.0740  1.6747  1.8779
 5781TIP3   OH238757   2.087   0.255  15.052 -0.0054  0.5576  0.4968
 5781TIP3    H138758   1.996   0.224  15.054  0.3200 -0.5228 -0.3815
 5781TIP3    H238759   2.134   0.185  15.007  1.1788  1.3238  0.5317
 5782TIP3   OH238760   4.348   6.353   3.754  0.2947  0.0688  0.7834
 5782TIP3    H138761   4.388   6.284   3.701  0.8855  1.2397 -0.3202
 5782TIP3    H238762   4.316   6.308   3.832  1.4470 -1.3144  0.4772
 5783TIP3   OH238763   3.137   3.926   2.714  0.4986 -0.2653 -0.0921
 5783TIP3    H138764   3.121   3.911   2.808  0.0307  0.2619 -0.0860
 5783TIP3    H238765   3.114   3.843   2.673  1.0783 -0.6250  0.3044
 5784TIP3   OH238766   6.773   3.837  13.521  0.4298 -0.0922  0.0446
 5784TIP3    H138767   6.692   3.808  13.477  1.4713 -3.0830 -0.0302
 5784TIP3    H238768   6.840   3.831  13.453  1.6432 -2.6703  1.3881
 5785TIP3   OH238769   5.811   1.700  13.878 -0.3778  0.1773 -0.2027
 5785TIP3    H138770   5.715   1.701  13.876 -0.4695 -2.6432  0.1813
 5785TIP3    H238771   5.837   1.689  13.787 -0.4524  0.0294 -0.2066
 5786TIP3   OH238772   5.973   4.136   3.811  0.1046 -0.4972 -0.1537
 5786TIP3    H138773   5.937   4.050   3.832 -1.2023 -0.2430 -1.3295
 5786TIP3    H238774   5.947   4.191   3.885 -0.9145 -0.6003 -0.4312
 5787TIP3   OH238775   0.144   0.404   2.854 -0.3411  0.2177  0.1523
 5787TIP3    H138776   0.060   0.449   2.857  1.4533  3.7401  1.5187
 5787TIP3    H238777   0.181   0.416   2.942  2.2086  0.0853 -0.8422
 5788TIP3   OH238778   2.312   4.109  11.463 -0.0348 -0.6575  0.2841
 5788TIP3    H138779   2.394   4.140  11.425 -0.0491 -0.4271  0.4428
 5788TIP3    H238780   2.248   4.176  11.441  0.0943 -0.2046  1.2723
 5789TIP3   OH238781   3.964   4.482  13.926 -0.2684 -0.2256  0.1368
 5789TIP3    H138782   4.047   4.515  13.959  0.1360 -0.9523 -0.1344
 5789TIP3    H238783   3.899   4.546  13.956  0.7700  2.1112 -2.3519
 5790TIP3   OH238784   5.944   3.211  13.872 -0.2295 -0.3182 -0.0147
 5790TIP3    H138785   5.861   3.173  13.843  0.4337 -0.1907 -2.1317
 5790TIP3    H238786   5.923   3.255  13.955 -2.4594  0.4680 -0.9716
 5791TIP3   OH238787   4.981   0.550   2.153  0.4235 -0.2619  0.2942
 5791TIP3    H138788   4.950   0.483   2.091  2.3446 -2.6218  1.7969
 5791TIP3    H238789   5.044   0.504   2.208  1.6298  2.7760  1.5310
 5792TIP3   OH238790   4.322   0.041   3.542  0.3922 -0.8599  0.0992
 5792TIP3    H138791   4.262   0.053   3.469  0.9344  0.1894 -0.1811
 5792TIP3    H238792   4.387   0.110   3.531  1.0870 -1.3736  0.9614
 5793TIP3   OH238793   4.699   0.159   0.126  0.0085  0.2639 -0.2832
 5793TIP3    H138794   4.611   0.166   0.088 -0.2326  0.2015  0.2518
 5793TIP3    H238795   4.751   0.225   0.080 -1.0337  2.3232  1.3776
 5794TIP3   OH238796   0.884   2.514   3.975  0.1492  1.0474 -0.0578
 5794TIP3    H138797   0.968   2.473   3.956 -0.8618 -0.2091 -1.8510
 5794TIP3    H238798   0.906   2.586   4.035  2.1161 -1.1125  1.9205
 5795TIP3   OH238799   3.649   5.431  12.355  0.0199  0.0784  0.3081
 5795TIP3    H138800   3.695   5.466  12.432  1.1651 -0.0593 -0.3026
 5795TIP3    H238801   3.592   5.362  12.390  0.1751  0.3419  1.0925
 5796TIP3   OH238802   6.500   3.223   3.245  1.0005 -0.0471  0.0708
 5796TIP3    H138803   6.525   3.172   3.168 -2.7969 -0.7003 -0.8632
 5796TIP3    H238804   6.505   3.314   3.217 -0.8242 -0.2990 -1.1654
 5797TIP3   OH238805   0.128   6.510  17.022 -0.5724 -0.6076  0.0942
 5797TIP3    H138806   0.101   6.420  17.038 -1.6124 -0.4672 -0.8129
 5797TIP3    H238807   0.113   6.524  16.929  0.1715  0.3101  0.1017
 5798TIP3   OH238808   6.249   2.201  12.864  0.3000  0.2560 -0.2678
 5798TIP3    H138809   6.166   2.212  12.818  0.5235  0.8355 -0.5373
 5798TIP3    H238810   6.224   2.175  12.952 -0.1521 -0.1761 -0.5175
 5799TIP3   OH238811   5.997   2.087   0.870 -0.5476  0.4412 -0.9134
 5799TIP3    H138812   5.950   2.004   0.864  0.3963 -0.1261 -0.5001
 5799TIP3    H238813   6.011   2.100   0.964  0.7701  0.2390 -1.0762
 5800TIP3   OH238814   6.261   1.100   1.404 -0.7458  0.0325  0.1762
 5800TIP3    H138815   6.334   1.106   1.465  0.4211  1.2059 -1.2763
 5800TIP3    H238816   6.194   1.157   1.441  0.1778  1.2046  0.0976
 5801TIP3   OH238817   0.869   5.880   4.980 -0.1000 -0.3106 -0.3500
 5801TIP3    H138818   0.820   5.819   5.034  1.2820 -2.1106 -1.0658
 5801TIP3    H238819   0.825   5.878   4.895  1.2372 -2.0725 -1.0510
 5802TIP3   OH238820   6.175   3.362   1.820  0.2750  0.2515  0.2091
 5802TIP3    H138821   6.229   3.288   1.847 -1.3044 -1.0963 -0.2727
 5802TIP3    H238822   6.211   3.437   1.868  3.3222 -0.3774 -0.9686
 5803TIP3   OH238823   3.294   1.820   3.017  0.4364  0.3347  0.4231
 5803TIP3    H138824   3.302   1.877   3.094  3.8305 -1.7845  1.7615
 5803TIP3    H238825   3.361   1.853   2.957 -0.5387  0.4298 -0.6282
 5804TIP3   OH238826   1.638   3.807  16.246  0.0064  0.0685  0.3795
 5804TIP3    H138827   1.601   3.779  16.163  0.2452  0.7229  0.0451
 5804TIP3    H238828   1.563   3.834  16.298 -0.2024 -0.9583  0.6208
 5805TIP3   OH238829   1.239   6.669  14.055 -0.2939  0.2842  0.1360
 5805TIP3    H138830   1.206   6.610  14.123 -0.6193  1.9391  1.4628
 5805TIP3    H238831   1.180   6.744  14.057  0.0741  0.6480 -1.5551
 5806TIP3   OH238832   4.155   1.056   3.336  0.2664 -0.3338  0.1347
 5806TIP3    H138833   4.218   1.022   3.272  0.6477 -0.9894  0.8450
 5806TIP3    H238834   4.145   0.985   3.400 -0.7831 -0.0277  0.3223
 5807TIP3   OH238835   5.419   0.284   2.924 -0.0797 -0.5219  0.4555
 5807TIP3    H138836   5.458   0.210   2.972 -0.1484  0.3861  1.9463
 5807TIP3    H238837   5.487   0.312   2.864 -0.5241 -2.6568 -1.1197
 5808TIP3   OH238838   2.185   2.730  17.042 -0.4300  0.3300  0.4379
 5808TIP3    H138839   2.118   2.767  17.099  0.0774  1.5842  0.2365
 5808TIP3    H238840   2.139   2.667  16.987 -1.5091  1.4327  0.0705
 5809TIP3   OH238841   0.212   2.195   5.012 -0.0934  0.1310  0.2479
 5809TIP3    H138842   0.292   2.247   5.015 -0.5744  1.0217 -1.6943
 5809TIP3    H238843   0.242   2.107   4.988  0.3945  0.2131  0.5394
 5810TIP3   OH238844   2.514   2.548   1.758  0.8815 -0.1487  0.2199
 5810TIP3    H138845   2.460   2.627   1.748  1.0008 -0.1124 -0.1454
 5810TIP3    H238846   2.457   2.477   1.728  0.1246 -0.4406  2.2525
 5811TIP3   OH238847   1.677   4.571   1.057 -0.3359 -0.0093 -0.2441
 5811TIP3    H138848   1.766   4.605   1.053 -0.0375 -0.2565  2.8745
 5811TIP3    H238849   1.626   4.630   1.001  1.7950  0.0134 -2.2071
 5812TIP3   OH238850   3.660   4.798   1.111 -0.2048  0.0243  0.1994
 5812TIP3    H138851   3.564   4.802   1.119 -0.1705 -2.3559  2.4510
 5812TIP3    H238852   3.692   4.844   1.188  0.4440 -0.4065  0.1882
 5813TIP3   OH238853   5.782   3.636   2.081  0.1738  0.8272  0.1749
 5813TIP3    H138854   5.856   3.692   2.105  1.1351  0.3801 -1.6530
 5813TIP3    H238855   5.787   3.562   2.141  1.3605  0.6841 -0.0990
 5814TIP3   OH238856   4.224   1.921  13.819 -0.1305 -0.2816  0.3707
 5814TIP3    H138857   4.150   1.882  13.866  1.7767 -2.1050  2.0303
 5814TIP3    H238858   4.185   1.986  13.761 -2.6965  1.3767  3.8006
 5815TIP3   OH238859   1.355   4.581  16.063 -0.8564 -0.0115  0.0564
 5815TIP3    H138860   1.286   4.538  16.012  0.7548 -0.7144 -1.5854
 5815TIP3    H238861   1.381   4.656  16.009  1.1168 -0.9684 -0.3465
 5816TIP3   OH238862   1.581   4.493   6.291  1.5062  0.1987  0.6176
 5816TIP3    H138863   1.490   4.488   6.320  0.8431  1.1112 -1.2289
 5816TIP3    H238864   1.622   4.556   6.351  0.2141  1.9114 -0.2590
 5817TIP3   OH238865   2.325   0.604  12.231 -0.0815 -0.0330 -0.2890
 5817TIP3    H138866   2.292   0.525  12.188  0.3850 -0.3526 -0.0684
 5817TIP3    H238867   2.402   0.629  12.179 -0.1161  0.1649 -0.2452
 5818TIP3   OH238868   1.392   3.872  14.373 -1.0485 -0.4242 -0.0514
 5818TIP3    H138869   1.473   3.863  14.423 -1.6538 -0.3484  0.9405
 5818TIP3    H238870   1.393   3.797  14.313 -0.1918 -0.3527 -0.1391
 5819TIP3   OH238871   3.576   3.987   1.111 -0.1358 -0.0397  1.0175
 5819TIP3    H138872   3.573   4.042   1.033  0.5376 -1.5615 -0.0936
 5819TIP3    H238873   3.496   4.009   1.159 -0.2175  1.3876  0.2436
 5820TIP3   OH238874   0.885   1.350  16.223 -0.1028  0.4496  0.5174
 5820TIP3    H138875   0.837   1.379  16.301 -0.4375 -0.5825  0.6991
 5820TIP3    H238876   0.818   1.314  16.166  0.6664 -2.9184  1.6440
 5821TIP3   OH238877   3.124   2.893  11.284 -0.6368  0.0551  0.1948
 5821TIP3    H138878   3.031   2.904  11.263 -0.7075  0.1693  0.5674
 5821TIP3    H238879   3.158   2.982  11.288 -0.3779 -0.0062 -0.5240
 5822TIP3   OH238880   3.420   1.527  16.933 -0.4111  0.5986 -0.1772
 5822TIP3    H138881   3.334   1.549  16.898 -0.5180  0.1484 -0.1941
 5822TIP3    H238882   3.402   1.476  17.012 -0.1566 -1.1582 -1.2340
 5823TIP3   OH238883   6.466   6.635  11.386 -0.1843  0.0281 -0.0785
 5823TIP3    H138884   6.436   6.554  11.345  4.2351 -1.4683 -0.5885
 5823TIP3    H238885   6.443   6.703  11.323 -0.0530 -1.3640 -1.6734
 5824TIP3   OH238886   4.467   1.103  16.939 -0.1528  0.1709 -0.1322
 5824TIP3    H138887   4.385   1.146  16.963 -1.6783 -2.5926 -0.1259
 5824TIP3    H238888   4.441   1.033  16.879  2.2312 -0.5768 -0.3673
 5825TIP3   OH238889   6.693   5.625   0.211  0.0030  0.4451  0.7115
 5825TIP3    H138890   6.603   5.656   0.202 -0.3302 -0.7067 -0.0365
 5825TIP3    H238891   6.731   5.681   0.279 -1.5414  0.3640  1.6740
 5826TIP3   OH238892   1.439   3.122  16.814 -0.0601 -0.3615 -0.2403
 5826TIP3    H138893   1.480   3.198  16.772 -1.5212 -0.1390 -1.2868
 5826TIP3    H238894   1.505   3.053  16.805  0.1872  0.0446 -1.7329
 5827TIP3   OH238895   3.726   0.375   1.812  0.7870 -0.0284  0.7225
 5827TIP3    H138896   3.714   0.312   1.741  4.9497 -0.8631  0.6214
 5827TIP3    H238897   3.732   0.321   1.891 -1.1617  0.6993  1.3849
 5828TIP3   OH238898   0.900   2.724   0.301  0.0345  0.1477 -0.2788
 5828TIP3    H138899   0.835   2.711   0.371 -2.1367  0.4068 -2.1716
 5828TIP3    H238900   0.889   2.815   0.274  3.2511  1.0664  1.3077
 5829TIP3   OH238901   4.398   3.325  14.978 -0.3201  0.4779 -0.4941
 5829TIP3    H138902   4.428   3.288  14.895 -1.3703  0.9484 -1.0880
 5829TIP3    H238903   4.478   3.335  15.030  0.1352 -1.4755 -0.7728
 5830TIP3   OH238904   0.276   6.484  13.639 -0.2804 -0.4528  0.2542
 5830TIP3    H138905   0.328   6.451  13.566  0.5290  0.0696  0.5875
 5830TIP3    H238906   0.340   6.505  13.706 -0.7702  1.7448  0.0606
 5831TIP3   OH238907   4.194   1.141  16.497  0.3437  0.3464  0.3089
 5831TIP3    H138908   4.220   1.049  16.493 -0.1035  0.1460  1.7805
 5831TIP3    H238909   4.198   1.171  16.406  1.9822 -0.7037  0.0184
 5832TIP3   OH238910   5.063   0.081   2.940  0.1234  0.3492 -0.0066
 5832TIP3    H138911   4.986   0.131   2.912 -0.7087 -0.6102  0.5441
 5832TIP3    H238912   5.043   0.055   3.029 -0.3589 -2.6988 -0.9479
 5833TIP3   OH238913   1.089   3.498  12.213  0.3340 -0.4011 -0.4052
 5833TIP3    H138914   1.126   3.524  12.129  1.4312 -0.8406 -0.0670
 5833TIP3    H238915   1.162   3.460  12.261  0.4412  2.6912  1.9822
 5834TIP3   OH238916   3.383   4.660   0.827 -0.2242  0.1217  0.1630
 5834TIP3    H138917   3.336   4.735   0.790 -0.9884 -1.2800 -1.8210
 5834TIP3    H238918   3.336   4.640   0.908 -1.1272  0.6777 -0.2142
 5835TIP3   OH238919   1.503   5.738  17.161  0.1261  0.7716 -0.0097
 5835TIP3    H138920   1.502   5.813  17.102  0.9240  1.2758  0.6087
 5835TIP3    H238921   1.413   5.733  17.196 -0.0527  1.1339 -0.4232
 5836TIP3   OH238922   4.377   4.075  13.561 -0.3797 -0.4120 -0.7501
 5836TIP3    H138923   4.403   4.088  13.653  0.0148 -1.2005 -0.7464
 5836TIP3    H238924   4.350   3.983  13.557  1.0932 -0.8074 -1.7810
 5837TIP3   OH238925   5.146   0.575  15.503  0.2131  0.4530 -0.3403
 5837TIP3    H138926   5.063   0.568  15.550 -0.7099 -0.1971 -2.0064
 5837TIP3    H238927   5.121   0.577  15.410  2.0750 -0.2847 -0.8866
 5838TIP3   OH238928   5.050   0.453   5.583  0.1617 -0.0985  0.2473
 5838TIP3    H138929   4.988   0.405   5.639  1.4138 -2.5655 -0.3837
 5838TIP3    H238930   5.001   0.468   5.502 -0.1024 -0.7614  0.2743
 5839TIP3   OH238931   5.220   0.374   0.446 -0.1490  0.0503  0.5184
 5839TIP3    H138932   5.265   0.358   0.363  0.4851  1.2548  0.6231
 5839TIP3    H238933   5.221   0.289   0.491  1.1031 -0.1677  0.0831
 5840TIP3   OH238934   5.017   2.546   3.368  0.5470  0.3961  0.2648
 5840TIP3    H138935   5.029   2.453   3.384 -1.6336 -0.0391 -0.3626
 5840TIP3    H238936   4.994   2.583   3.454 -0.2912  0.0248  0.2107
 5841TIP3   OH238937   1.153   6.280   5.535 -0.3690  0.2808 -0.2383
 5841TIP3    H138938   1.140   6.348   5.469 -1.0264  0.7857  0.4074
 5841TIP3    H238939   1.073   6.283   5.588  0.0495 -0.2945  0.4223
 5842TIP3   OH238940   4.808   2.468   1.541 -0.5001  0.5040 -0.3752
 5842TIP3    H138941   4.889   2.515   1.563  0.0157 -0.6322  0.1532
 5842TIP3    H238942   4.826   2.428   1.456 -1.3147  2.1001 -1.3346
 5843TIP3   OH238943   6.072   6.141  13.286  0.7136  0.0085  0.0401
 5843TIP3    H138944   6.082   6.071  13.221  0.4823 -1.4720  1.5741
 5843TIP3    H238945   6.003   6.197  13.249 -0.2569 -1.4729 -0.4527
 5844TIP3   OH238946   1.358   5.917  11.784  0.0340  0.1907  0.2159
 5844TIP3    H138947   1.402   5.936  11.701  1.0435  0.6216  0.8454
 5844TIP3    H238948   1.425   5.875  11.838 -1.0869 -1.6152  0.2335
 5845TIP3   OH238949   1.097   0.748   1.033 -0.2966 -0.6947 -0.2043
 5845TIP3    H138950   1.106   0.652   1.036 -0.4152 -0.6692  2.1894
 5845TIP3    H238951   1.037   0.764   0.961 -0.7772 -2.4912 -0.2378
 5846TIP3   OH238952   3.302   2.276   5.046  0.0944  0.4083 -0.3175
 5846TIP3    H138953   3.381   2.264   5.100  0.6478  0.7312 -1.0421
 5846TIP3    H238954   3.242   2.208   5.076  1.4683 -1.2611 -1.2454
 5847TIP3   OH238955   1.408   6.692   0.631  0.4433 -0.7861 -0.3711
 5847TIP3    H138956   1.495   6.654   0.617  0.5568 -0.7825  0.2751
 5847TIP3    H238957   1.382   6.660   0.717 -0.4585 -1.2759 -0.8211
 5848TIP3   OH238958   3.196   6.521  11.727 -0.1284 -0.6539 -0.1005
 5848TIP3    H138959   3.292   6.518  11.721 -0.1729 -0.3230 -1.0302
 5848TIP3    H238960   3.168   6.439  11.685 -0.2590 -0.6587 -0.0022
 5849TIP3   OH238961   5.593   1.680   6.368 -0.8478  0.0708  0.0261
 5849TIP3    H138962   5.586   1.592   6.331 -1.4430 -1.6184  3.9355
 5849TIP3    H238963   5.687   1.699   6.366 -0.7204 -0.6233 -0.9219
 5850TIP3   OH238964   1.358   0.853   0.986  0.4528 -0.5483 -0.0089
 5850TIP3    H138965   1.335   0.921   0.922  0.9985 -0.4735 -0.1231
 5850TIP3    H238966   1.278   0.802   0.995  0.0500  0.0841  0.0460
 5851TIP3   OH238967   6.238   3.680  11.467  0.3979  0.4430 -0.4334
 5851TIP3    H138968   6.254   3.697  11.560  0.6290  0.3640 -0.4585
 5851TIP3    H238969   6.171   3.611  11.467 -0.8396  1.6212 -0.3368
 5852TIP3   OH238970   6.708   5.471   4.747 -0.3454 -0.3047  0.6202
 5852TIP3    H138971   6.674   5.524   4.819  2.7674  1.7645  0.6903
 5852TIP3    H238972   6.800   5.498   4.739  0.3893 -3.2492 -1.6455
 5853TIP3   OH238973   1.450   3.490   5.834  0.4624 -0.2049  0.2832
 5853TIP3    H138974   1.473   3.411   5.883 -0.4531 -0.3568  0.4812
 5853TIP3    H238975   1.533   3.523   5.800  1.0861 -0.1525  1.8538
 5854TIP3   OH238976   1.649   0.305  13.799 -0.4368  0.2985  0.7502
 5854TIP3    H138977   1.696   0.248  13.860  0.4903 -1.3737 -1.4574
 5854TIP3    H238978   1.573   0.253  13.772  0.6934 -0.1691 -1.6813
 5855TIP3   OH238979   0.582   3.549   2.424 -0.0395  0.0996 -0.2750
 5855TIP3    H138980   0.510   3.486   2.432  1.1311 -1.1952  0.0743
 5855TIP3    H238981   0.639   3.512   2.357  0.9027  0.5532  0.2807
 5856TIP3   OH238982   0.225   3.153   2.447 -0.1236 -0.1784  0.1388
 5856TIP3    H138983   0.271   3.085   2.497 -1.1649 -0.6710  0.4404
 5856TIP3    H238984   0.146   3.110   2.415 -1.4780  1.2560  1.4581
 5857TIP3   OH238985   2.069   3.767   5.512 -0.3981  0.1061 -0.0577
 5857TIP3    H138986   2.099   3.678   5.532 -0.3657  0.0534 -0.3506
 5857TIP3    H238987   2.101   3.819   5.586  3.3900  0.6895 -1.9536
 5858TIP3   OH238988   0.254   5.549  13.022  0.3707  0.3707  0.1414
 5858TIP3    H138989   0.295   5.589  13.099  2.1007  0.0882 -0.6085
 5858TIP3    H238990   0.327   5.532  12.962 -0.5396 -2.3967 -0.2424
 5859TIP3   OH238991   5.507   0.239   1.525  0.0263 -0.4045 -0.6118
 5859TIP3    H138992   5.490   0.174   1.457 -0.3530 -0.7232 -0.2235
 5859TIP3    H238993   5.600   0.260   1.517  0.8523 -3.1487  1.1073
 5860TIP3   OH238994   2.894   0.624  13.782 -0.2575 -0.6109 -0.4609
 5860TIP3    H138995   2.945   0.544  13.771 -1.3539 -0.8544 -4.6861
 5860TIP3    H238996   2.956   0.687  13.820  1.6360 -2.4294 -0.4665
 5861TIP3   OH238997   0.216   2.703   1.944  0.4780  0.0639 -0.3597
 5861TIP3    H138998   0.266   2.785   1.944  0.6098  0.0069 -1.9619
 5861TIP3    H238999   0.173   2.701   1.858 -0.1474 -1.1732 -0.0360
 5862TIP3   OH239000   4.273   4.541  10.979  0.2293 -0.0551  0.2735
 5862TIP3    H139001   4.231   4.456  10.992  1.1211 -1.1252 -3.2253
 5862TIP3    H239002   4.201   4.599  10.952 -0.0360 -0.2656  0.5352
 5863TIP3   OH239003   4.733   1.695   2.308  0.4155  0.5418  0.1758
 5863TIP3    H139004   4.752   1.620   2.251 -1.2425 -0.0061  0.3252
 5863TIP3    H239005   4.747   1.772   2.252 -1.7779 -0.0128 -1.1669
 5864TIP3   OH239006   2.184   2.419  11.723  0.3355  0.0231  0.3243
 5864TIP3    H139007   2.183   2.427  11.818 -0.5219  0.9371  0.2455
 5864TIP3    H239008   2.142   2.499  11.692  0.8635 -0.1415 -0.8347
 5865TIP3   OH239009   6.729   0.523   1.445  0.1853  0.3254 -0.6660
 5865TIP3    H139010   6.634   0.530   1.444  0.2371  1.1366 -1.6128
 5865TIP3    H239011   6.754   0.529   1.353  1.3742  3.8794 -0.2153
 5866TIP3   OH239012   0.853   5.358   1.690 -0.3350  0.0771 -0.2739
 5866TIP3    H139013   0.780   5.297   1.694 -0.0149 -0.3306 -0.5652
 5866TIP3    H239014   0.901   5.333   1.611 -1.6422  2.3724 -1.8551
 5867TIP3   OH239015   5.391   3.873   0.687 -0.0756 -0.1220 -0.2303
 5867TIP3    H139016   5.336   3.882   0.609 -0.9925  0.3455  0.4619
 5867TIP3    H239017   5.474   3.915   0.663 -0.8754  1.3728 -0.4547
 5868TIP3   OH239018   1.026   1.018  16.989  0.5435  0.2796  0.2148
 5868TIP3    H139019   1.102   1.072  16.971 -0.2936  1.4867  0.2598
 5868TIP3    H239020   0.969   1.030  16.913 -0.5737  1.1130  1.1608
 5869TIP3   OH239021   0.333   0.193   2.284 -0.1434  0.3335 -0.3659
 5869TIP3    H139022   0.321   0.105   2.320  1.2891 -0.7740 -2.4598
 5869TIP3    H239023   0.416   0.223   2.322 -0.5072  0.6742  0.1557
 5870TIP3   OH239024   3.927   4.852  13.897 -1.0987 -0.7018  0.7361
 5870TIP3    H139025   3.930   4.823  13.806  1.3424  1.2720  0.1281
 5870TIP3    H239026   3.888   4.779  13.944 -2.4903 -1.7308 -1.9025
 5871TIP3   OH239027   6.539   2.859   1.866  0.3663 -0.1037 -0.1340
 5871TIP3    H139028   6.623   2.882   1.905 -0.1469  1.2191  0.1965
 5871TIP3    H239029   6.479   2.853   1.941  0.3845 -2.0829 -0.2521
 5872TIP3   OH239030   6.119   4.491  10.748  0.6558  0.0530  0.3381
 5872TIP3    H139031   6.069   4.468  10.670  1.1860 -3.3112  0.9279
 5872TIP3    H239032   6.211   4.483  10.721  0.8569  1.0265  0.7157
 5873TIP3   OH239033   5.132   4.412  10.671  0.5477  0.3872  0.0652
 5873TIP3    H139034   5.159   4.320  10.674 -1.1596 -0.1077  0.8073
 5873TIP3    H239035   5.065   4.414  10.603  1.9715  1.4852 -1.3493
 5874TIP3   OH239036   0.142   4.131   1.884 -0.6471  0.5314 -0.3053
 5874TIP3    H139037   0.235   4.115   1.899 -0.7132  0.8259  0.4401
 5874TIP3    H239038   0.106   4.046   1.861 -0.8457 -0.2769  2.7811
 5875TIP3   OH239039   1.109   1.329   2.398 -0.0865  0.1122 -0.0442
 5875TIP3    H139040   1.036   1.295   2.449  0.2885 -1.8292 -0.7671
 5875TIP3    H239041   1.185   1.278   2.428  0.3658 -0.1729 -1.6225
 5876TIP3   OH239042   1.199   1.088   0.464  0.6538 -0.5079 -0.6171
 5876TIP3    H139043   1.154   1.139   0.396  0.1445 -0.8364 -0.5338
 5876TIP3    H239044   1.234   1.012   0.418 -1.7451 -1.9708 -0.1276
 5877TIP3   OH239045   1.901   0.929  14.189  0.6998 -0.2397 -0.1086
 5877TIP3    H139046   1.894   0.834  14.183  1.4340 -0.2359 -1.1163
 5877TIP3    H239047   1.972   0.944  14.251 -0.4400 -0.3293  1.2439
 5878TIP3   OH239048   2.022   0.319  15.899  0.0622  0.0710 -0.4053
 5878TIP3    H139049   2.063   0.233  15.887 -0.0607  0.1644 -1.5646
 5878TIP3    H239050   2.000   0.347  15.810 -1.3688  0.5842  0.0997
 5879TIP3   OH239051   1.111   4.411  11.392  0.0619 -0.4608  0.0731
 5879TIP3    H139052   1.025   4.369  11.398  0.5657 -1.0587  4.1350
 5879TIP3    H239053   1.166   4.347  11.347 -0.4808 -2.0091  1.5735
 5880TIP3   OH239054   5.215   1.077   3.712  0.1547 -0.1034  0.3057
 5880TIP3    H139055   5.235   1.055   3.621 -0.7555  0.3721 -0.0143
 5880TIP3    H239056   5.280   1.029   3.763 -1.4280 -3.1269 -0.4011
 5881TIP3   OH239057   4.250   2.583  15.378 -0.4620  0.8625 -0.0062
 5881TIP3    H139058   4.208   2.573  15.293  0.6118  1.4434 -0.6201
 5881TIP3    H239059   4.297   2.666  15.371 -2.0803  1.9815  1.9014
 5882TIP3   OH239060   1.202   4.653   3.597 -0.5247 -0.2961 -0.1982
 5882TIP3    H139061   1.238   4.564   3.596  0.4541  0.0736  0.5494
 5882TIP3    H239062   1.156   4.659   3.681 -0.7625 -0.1764 -0.3396
 5883TIP3   OH239063   6.172   3.540   6.584  0.0452  0.3264  0.3951
 5883TIP3    H139064   6.089   3.588   6.581  0.3195  0.8615  1.1656
 5883TIP3    H239065   6.230   3.595   6.638  0.9160 -0.0144 -0.1785
 5884TIP3   OH239066   3.785   6.573  11.585  0.0626  0.1241 -0.0584
 5884TIP3    H139067   3.837   6.595  11.508 -0.0687 -0.2227 -0.2492
 5884TIP3    H239068   3.702   6.540  11.550  0.1985 -0.5220  0.2130
 5885TIP3   OH239069   3.979   0.889  14.830 -0.1004  0.1004 -0.4482
 5885TIP3    H139070   3.988   0.984  14.829  2.0595 -0.0839  0.1372
 5885TIP3    H239071   4.056   0.856  14.784 -1.2969 -1.3516 -1.4566
 5886TIP3   OH239072   1.903   5.599  14.758  0.0131 -0.5699  0.3564
 5886TIP3    H139073   1.852   5.519  14.746 -3.6053  1.9140 -2.0184
 5886TIP3    H239074   1.946   5.588  14.842 -1.8348 -4.2553  0.9078
 5887TIP3   OH239075   0.997   6.630   3.454  0.2516 -0.0764 -0.7250
 5887TIP3    H139076   0.975   6.722   3.469  2.7238  0.6743 -1.3781
 5887TIP3    H239077   0.948   6.606   3.376 -0.2553  0.7433 -0.6716
 5888TIP3   OH239078   5.470   4.888  13.954  0.4299  0.4875 -0.1203
 5888TIP3    H139079   5.565   4.898  13.945  0.6056  0.0604  1.1357
 5888TIP3    H239080   5.436   4.901  13.866  1.7155  0.0639 -0.6956
 5889TIP3   OH239081   1.451   5.409   5.934 -0.1370  0.0341 -0.1883
 5889TIP3    H139082   1.430   5.368   6.018 -0.7989  0.5569 -0.0954
 5889TIP3    H239083   1.519   5.473   5.956  0.1088 -0.2396 -0.1483
 5890TIP3   OH239084   3.743   2.776  15.260  0.0213  0.5975 -0.0016
 5890TIP3    H139085   3.731   2.765  15.166 -0.1315  0.6313  0.0134
 5890TIP3    H239086   3.835   2.755  15.275 -0.1801 -0.3159 -0.0244
 5891TIP3   OH239087   0.651   6.686  14.865 -0.4619 -0.1016 -0.4787
 5891TIP3    H139088   0.715   6.746  14.828  2.7859 -3.1894 -0.1188
 5891TIP3    H239089   0.583   6.677  14.798  0.7428  1.2959 -1.8956
 5892TIP3   OH239090   0.778   6.638  15.091  0.6863 -0.0736  0.1426
 5892TIP3    H139091   0.734   6.658  15.009  0.4065 -1.9444 -0.1832
 5892TIP3    H239092   0.708   6.609  15.150  1.2229 -1.3958  0.1588
 5893TIP3   OH239093   0.901   2.901  16.924  0.1290  0.3872  0.7048
 5893TIP3    H139094   0.970   2.917  16.859  1.0098 -2.5168  0.8383
 5893TIP3    H239095   0.837   2.970  16.909  1.4519  1.1476 -1.6988
 5894TIP3   OH239096   3.358   2.927  12.405  0.0808  0.4130  0.7194
 5894TIP3    H139097   3.433   2.870  12.423  0.9561  1.1796 -0.4331
 5894TIP3    H239098   3.382   3.011  12.443 -0.4080  0.5259  0.7810
 5895TIP3   OH239099   3.396   6.590  11.149  0.0826 -0.5178  0.7076
 5895TIP3    H139100   3.458   6.632  11.090  1.7626 -1.0406  2.0674
 5895TIP3    H239101   3.395   6.644  11.228 -1.9429  0.0280  0.3431
 5896TIP3   OH239102   4.251   4.892  10.620 -0.0662  0.1591 -0.0196
 5896TIP3    H139103   4.265   4.896  10.714  0.0232 -0.8208  0.0177
 5896TIP3    H239104   4.158   4.869  10.610  1.0316 -5.0377 -0.0255
 5897TIP3   OH239105   5.792   1.283   2.728 -0.3422 -0.1684 -0.0714
 5897TIP3    H139106   5.879   1.323   2.725 -0.4301  0.0393  0.1312
 5897TIP3    H239107   5.803   1.198   2.685 -0.1157  0.0016 -0.3515
 5898TIP3   OH239108   6.213   5.140  13.702 -0.2201 -0.5617  0.0937
 5898TIP3    H139109   6.219   5.130  13.796 -1.1880 -2.1412  0.0023
 5898TIP3    H239110   6.302   5.158  13.674 -0.1265  1.1783  1.4324
 5899TIP3   OH239111   5.935   3.898  16.459  0.0412 -0.0024 -0.0324
 5899TIP3    H139112   5.884   3.979  16.461 -1.0554 -0.7018  0.7833
 5899TIP3    H239113   5.905   3.853  16.380  1.5541  0.9327 -1.1871
 5900TIP3   OH239114   6.659   1.739  11.578 -0.3270 -0.3529 -0.1550
 5900TIP3    H139115   6.627   1.817  11.532 -0.4169 -1.2477 -1.6551
 5900TIP3    H239116   6.746   1.764  11.609 -1.0577  0.9234  0.8962
 5901TIP3   OH239117   5.009   0.165  16.323 -0.0731 -0.0127  0.0108
 5901TIP3    H139118   4.962   0.093  16.365  1.4234 -0.6991  0.5674
 5901TIP3    H239119   4.975   0.244  16.365 -0.2166 -0.5444  0.8951
 5902TIP3   OH239120   3.260   0.953  11.422 -0.1953 -0.4721 -0.5411
 5902TIP3    H139121   3.196   0.895  11.464 -0.6771  0.8408  0.5702
 5902TIP3    H239122   3.340   0.941  11.472 -0.2472 -0.2885 -0.4162
 5903TIP3   OH239123   4.615   3.705  15.971 -0.3140 -0.4308  0.8499
 5903TIP3    H139124   4.613   3.651  16.051 -0.0205 -0.7789  0.6300
 5903TIP3    H239125   4.575   3.787  15.997  0.4538 -0.2687  1.5687
 5904TIP3   OH239126   0.799   0.533  11.475 -0.6508 -0.0446 -0.3769
 5904TIP3    H139127   0.811   0.578  11.391 -1.2383  0.0244 -0.4224
 5904TIP3    H239128   0.803   0.440  11.452 -0.1224 -0.0243 -0.3783
 5905TIP3   OH239129   6.525   2.355  10.702 -0.8061  0.2011  0.0178
 5905TIP3    H139130   6.521   2.419  10.773 -2.6813 -0.9148  0.9420
 5905TIP3    H239131   6.613   2.365  10.666 -0.1038  1.3205  1.9885
 5906TIP3   OH239132   5.267   4.938  14.766 -0.0896 -0.6672  0.0728
 5906TIP3    H139133   5.256   4.979  14.681 -1.5339 -3.6845 -1.2557
 5906TIP3    H239134   5.190   4.965  14.816  1.2223  1.8789  0.8317
 5907TIP3   OH239135   4.967   1.151   4.215 -0.2494 -0.1800 -0.5367
 5907TIP3    H139136   4.877   1.142   4.247 -1.1803  2.9722 -2.0826
 5907TIP3    H239137   4.963   1.125   4.123 -0.0935  2.0645 -1.2134
 5908TIP3   OH239138   2.104   6.557  10.846 -0.4173  0.5874  0.4196
 5908TIP3    H139139   2.179   6.527  10.794 -0.4086  1.3121  0.0064
 5908TIP3    H239140   2.135   6.637  10.888 -0.0733 -0.5695  2.4024
 5909TIP3   OH239141   3.319   6.765   5.952  0.1384 -0.4193  0.2302
 5909TIP3    H139142   3.356   6.676   5.953  1.1182 -0.0419 -0.9617
 5909TIP3    H239143   3.392   6.821   5.978 -1.0151 -0.1234  2.9772
 5910TIP3   OH239144   5.459   3.629  16.094 -0.4187  0.7552 -0.4036
 5910TIP3    H139145   5.449   3.693  16.023 -1.0877 -2.2629 -3.1531
 5910TIP3    H239146   5.428   3.547  16.056  1.2362 -1.3953  2.7326
 5911TIP3   OH239147   1.245   0.982   5.025 -0.0090 -0.1442 -0.4823
 5911TIP3    H139148   1.244   0.968   4.931 -0.8008 -0.6041 -0.4071
 5911TIP3    H239149   1.338   0.992   5.047  0.0989  1.1139 -1.4685
 5912TIP3   OH239150   2.180   5.710   1.346 -0.4699  0.0220  0.2068
 5912TIP3    H139151   2.193   5.771   1.419 -1.8959  1.0834 -0.3897
 5912TIP3    H239152   2.254   5.727   1.287 -0.2345  0.3604  0.5978
 5913TIP3   OH239153   2.715   4.171  16.063  0.1734  0.1142 -0.7208
 5913TIP3    H139154   2.714   4.132  15.975 -0.2139  0.0609 -0.6947
 5913TIP3    H239155   2.665   4.109  16.117 -3.3035  2.2345 -1.3641
 5914TIP3   OH239156   0.330   2.329  13.448 -0.6949  0.0642 -0.2182
 5914TIP3    H139157   0.335   2.292  13.536  0.8528 -0.5769 -0.5473
 5914TIP3    H239158   0.307   2.254  13.392  1.6187 -0.2986 -0.7745
 5915TIP3   OH239159   1.014   5.404   5.002 -0.1663 -0.2573  0.3608
 5915TIP3    H139160   0.928   5.406   5.045 -1.0056  0.8974 -1.3324
 5915TIP3    H239161   1.040   5.496   4.997  0.0359 -0.3930 -1.3654
 5916TIP3   OH239162   4.749   0.282  12.778 -0.1582  0.3788 -0.0493
 5916TIP3    H139163   4.676   0.260  12.719 -1.5345  0.2992  1.6460
 5916TIP3    H239164   4.747   0.214  12.845  1.4603  0.4122  0.0552
 5917TIP3   OH239165   1.818   1.431   2.867 -0.3551  0.0365  0.8324
 5917TIP3    H139166   1.863   1.347   2.867  2.2230  1.3173 -1.6803
 5917TIP3    H239167   1.886   1.495   2.890 -0.9139  1.9680 -2.5164
 5918TIP3   OH239168   6.249   1.861  13.582 -0.1139  0.0144  0.7304
 5918TIP3    H139169   6.160   1.884  13.558  0.4510  0.4392 -1.0162
 5918TIP3    H239170   6.245   1.845  13.677 -2.1295 -0.4712  0.5873
 5919TIP3   OH239171   2.641   0.129   5.358  0.2124 -0.2600  0.2715
 5919TIP3    H139172   2.607   0.213   5.329  1.1405 -0.1217 -0.4543
 5919TIP3    H239173   2.727   0.149   5.395  0.7056 -0.9589 -0.4762
 5920TIP3   OH239174   3.834   3.013   5.537  0.3574 -0.4914 -0.5468
 5920TIP3    H139175   3.804   2.991   5.449 -1.0358  0.6240 -0.3584
 5920TIP3    H239176   3.852   3.107   5.534 -0.3173 -0.3164  0.5350
 5921TIP3   OH239177   5.188   2.246  15.949  0.1943 -0.6914  0.2936
 5921TIP3    H139178   5.187   2.288  16.036  1.7900  0.6044 -0.2974
 5921TIP3    H239179   5.199   2.319  15.888  2.8857 -1.9393 -0.7701
 5922TIP3   OH239180   2.267   2.146   5.805  0.1211  0.4902  0.2400
 5922TIP3    H139181   2.248   2.214   5.870 -0.5335 -0.4563  1.0511
 5922TIP3    H239182   2.254   2.189   5.720 -2.6149  0.7464  0.7388
 5923TIP3   OH239183   5.106   0.228   1.257 -0.0508 -0.0324 -0.4610
 5923TIP3    H139184   5.095   0.156   1.319  0.8646  1.3849  1.3639
 5923TIP3    H239185   5.043   0.294   1.286  2.7434  2.0450  1.0820
 5924TIP3   OH239186   3.428   1.352   0.308  0.0202 -0.2269  0.3879
 5924TIP3    H139187   3.453   1.394   0.225 -1.6530 -0.3809 -0.2159
 5924TIP3    H239188   3.449   1.418   0.375 -0.3531  0.6371 -0.3282
 5925TIP3   OH239189   0.057   6.506  11.542 -0.5158 -0.1166 -0.7279
 5925TIP3    H139190   0.083   6.528  11.453  1.9731 -2.3449 -0.6069
 5925TIP3    H239191  -0.027   6.461  11.533  0.7230 -2.1882 -2.1654
 5926TIP3   OH239192   4.955   4.014   4.036 -0.5557  0.2187 -0.7571
 5926TIP3    H139193   4.880   4.049   4.084  0.0950  0.0518  0.3779
 5926TIP3    H239194   4.980   4.086   3.977 -1.5440  0.3089 -1.0786
 5927TIP3   OH239195   0.085   6.312  11.310 -0.5871 -0.3115  0.3837
 5927TIP3    H139196   0.142   6.389  11.313 -0.9546 -0.0808  1.6204
 5927TIP3    H239197   0.126   6.248  11.367 -0.3800 -0.9766 -0.5033
 5928TIP3   OH239198   1.326   5.897  14.472 -0.0552 -0.2957  0.2353
 5928TIP3    H139199   1.235   5.869  14.481 -0.1598  0.3847  1.3905
 5928TIP3    H239200   1.361   5.895  14.561  0.9981 -0.3378 -0.1704
 5929TIP3   OH239201   3.770   4.900   1.335 -0.2378 -0.3209  0.1774
 5929TIP3    H139202   3.774   4.827   1.397  0.8574 -0.3727  0.0600
 5929TIP3    H239203   3.854   4.896   1.288 -0.5240  0.4976 -0.4165
 5930TIP3   OH239204   0.585   3.286   0.096  0.0875 -0.2952  0.0970
 5930TIP3    H139205   0.531   3.332   0.160 -1.6002 -2.2912  0.1426
 5930TIP3    H239206   0.675   3.305   0.123 -0.5914 -0.5497  2.6692
 5931TIP3   OH239207   0.599   2.048  15.844  0.1185  0.1862 -0.1888
 5931TIP3    H139208   0.689   2.057  15.876 -0.3025  0.3874  0.9593
 5931TIP3    H239209   0.545   2.092  15.910 -0.8152  0.1969 -0.9416
 5932TIP3   OH239210   3.304   0.541  13.143 -0.4145 -0.9370 -0.1571
 5932TIP3    H139211   3.383   0.565  13.192 -1.2707  1.1804  0.2106
 5932TIP3    H239212   3.332   0.469  13.087  2.4704  1.4900 -1.9819
 5933TIP3   OH239213   2.538   5.108   2.663 -0.2998  0.1799  0.5354
 5933TIP3    H139214   2.474   5.167   2.702 -0.4467  2.0972 -2.4122
 5933TIP3    H239215   2.622   5.139   2.697 -0.6775 -0.5720  2.2177
 5934TIP3   OH239216   0.584   3.931  16.190  0.1080  1.0339  0.5564
 5934TIP3    H139217   0.597   4.016  16.232 -1.0227  1.3622  0.2592
 5934TIP3    H239218   0.643   3.872  16.237  0.1734  1.7715  1.4168
 5935TIP3   OH239219   0.912   4.793   5.759 -0.3815 -0.2345 -0.2855
 5935TIP3    H139220   0.885   4.813   5.849 -0.0532  1.2339 -0.5000
 5935TIP3    H239221   0.903   4.698   5.752 -1.8510 -0.1985  0.8265
 5936TIP3   OH239222   0.918   3.760   3.984  0.3787  0.0879  0.5780
 5936TIP3    H139223   0.952   3.820   3.918 -0.3319  0.6873  0.7485
 5936TIP3    H239224   0.901   3.816   4.060  0.0882 -0.3962  0.8687
 5937TIP3   OH239225   1.427   2.857   2.264 -0.2742  0.5694 -0.2613
 5937TIP3    H139226   1.335   2.851   2.290  0.3660 -2.0550  1.6276
 5937TIP3    H239227   1.436   2.791   2.195  0.7840 -1.2622  1.5656
 5938TIP3   OH239228   0.943   6.399  11.820  0.4634  0.3327 -0.3976
 5938TIP3    H139229   0.973   6.489  11.834 -3.5687  2.0099 -1.6923
 5938TIP3    H239230   0.918   6.368  11.907  2.3337  0.2600  0.1251
 5939TIP3   OH239231   3.329   4.792  16.947  0.0683  0.1288 -0.3565
 5939TIP3    H139232   3.368   4.815  16.862  0.7811 -0.1333 -0.1093
 5939TIP3    H239233   3.332   4.873  16.997  1.3062 -0.1430  0.0330
 5940TIP3   OH239234   3.589   2.802   1.624 -0.0683  0.5075  0.5700
 5940TIP3    H139235   3.566   2.711   1.610  0.2776  0.3485  1.0249
 5940TIP3    H239236   3.510   2.851   1.603  0.6908  0.3651 -2.8168
 5941TIP3   OH239237   6.116   1.684  14.521 -0.3352 -0.1594 -0.3295
 5941TIP3    H139238   6.038   1.632  14.542  0.8410 -1.7608  0.0969
 5941TIP3    H239239   6.095   1.771  14.556 -1.5591 -0.8076  0.6086
 5942TIP3   OH239240   0.522   1.002  12.998  0.2995  0.3039 -0.1227
 5942TIP3    H139241   0.481   0.938  13.057 -0.8676  0.7859 -0.3912
 5942TIP3    H239242   0.561   0.950  12.928 -0.7161 -0.1207 -0.3805
 5943TIP3   OH239243   6.658   1.375  14.953  0.4872  0.2314 -0.4887
 5943TIP3    H139244   6.603   1.452  14.967  0.0893 -0.0003 -0.7721
 5943TIP3    H239245   6.617   1.306  15.005  0.4695  0.0434 -0.7478
 5944TIP3   OH239246   4.738   6.347   0.323  0.2706 -0.6813 -0.2203
 5944TIP3    H139247   4.823   6.378   0.353  0.1869  1.4840 -2.0132
 5944TIP3    H239248   4.677   6.417   0.350 -0.0976  0.3187 -3.4478
 5945TIP3   OH239249   1.301   5.632   3.243 -0.4237 -0.4733  0.0495
 5945TIP3    H139250   1.254   5.631   3.160 -0.9903 -0.2894  0.3695
 5945TIP3    H239251   1.393   5.639   3.218 -0.7486  2.3368 -0.5296
 5946TIP3   OH239252   3.798   5.749  16.900 -0.3644  0.6937 -0.2354
 5946TIP3    H139253   3.738   5.675  16.909  0.6506 -0.0170  0.9669
 5946TIP3    H239254   3.816   5.755  16.806 -0.3537 -0.6815 -0.3340
 5947TIP3   OH239255   4.098   3.904  13.105  0.1653  0.1036 -0.7166
 5947TIP3    H139256   4.173   3.963  13.097  0.2628  0.0808 -0.0442
 5947TIP3    H239257   4.103   3.873  13.195 -0.5770 -0.0055 -0.7149
 5948TIP3   OH239258   3.860   3.811  14.747 -0.1105  0.3547  0.1028
 5948TIP3    H139259   3.822   3.735  14.702  1.9019 -1.0257  0.6649
 5948TIP3    H239260   3.790   3.876  14.747 -1.9936 -1.6131 -0.1080
 5949TIP3   OH239261   5.520   4.459   0.553  0.1384  0.1981 -0.1714
 5949TIP3    H139262   5.516   4.403   0.631  2.1906 -1.4188 -1.1701
 5949TIP3    H239263   5.601   4.433   0.510 -0.7610  1.3677 -2.6290
 5950TIP3   OH239264   4.388   6.185  14.382 -0.1559  0.2609  0.3014
 5950TIP3    H139265   4.471   6.137  14.375  0.8437  1.9070  0.7849
 5950TIP3    H239266   4.325   6.129  14.337  1.4864 -0.3601 -1.2695
 5951TIP3   OH239267   1.462   6.007   1.645 -0.2759  0.1324 -0.7517
 5951TIP3    H139268   1.417   6.017   1.729  0.9181 -1.0632  0.0486
 5951TIP3    H239269   1.398   5.964   1.588 -1.2367  1.3311 -0.5950
 5952TIP3   OH239270   5.997   5.230  14.572  0.1121 -0.0792  0.7015
 5952TIP3    H139271   5.902   5.244  14.572  0.0194 -0.6786  0.2466
 5952TIP3    H239272   6.034   5.318  14.580 -0.4768  0.2284  0.1424
 5953TIP3   OH239273   0.510   3.901  16.532  0.8216 -0.4074 -0.0919
 5953TIP3    H139274   0.469   3.983  16.504  2.4074  0.4517  0.0225
 5953TIP3    H239275   0.504   3.843  16.456 -2.2685 -0.9677  0.5310
 5954TIP3   OH239276   3.626   5.090   4.246  0.1692  0.0713 -0.6439
 5954TIP3    H139277   3.610   5.183   4.230  0.5188 -0.0688 -1.8739
 5954TIP3    H239278   3.639   5.084   4.341  0.6378  1.3541 -0.6098
 5955TIP3   OH239279   0.466   2.103   4.056  0.2822 -0.1588 -0.3741
 5955TIP3    H139280   0.374   2.115   4.080  0.1277 -2.3211  0.2141
 5955TIP3    H239281   0.487   2.180   4.003 -2.3229 -0.4061 -1.8685
 5956TIP3   OH239282   5.503   2.708  16.915 -0.1677  0.0118  0.0867
 5956TIP3    H139283   5.446   2.685  16.988  0.0881  0.3654  0.3971
 5956TIP3    H239284   5.513   2.626  16.865  0.1709 -0.3807  0.7974
 5957TIP3   OH239285   1.398   4.203   0.090 -0.4018  0.1100  0.4462
 5957TIP3    H139286   1.394   4.216   0.185 -0.5902  0.7945  0.3471
 5957TIP3    H239287   1.367   4.285   0.054  0.7359  0.2573 -0.2229
 5958TIP3   OH239288   2.508   6.728   3.683  0.1672  0.2037 -0.2036
 5958TIP3    H139289   2.492   6.786   3.757  0.2369 -1.1045  0.8567
 5958TIP3    H239290   2.525   6.787   3.610  0.3625  1.5169  0.8744
 5959TIP3   OH239291   5.102   6.763  11.824  0.3164  0.3511 -0.0468
 5959TIP3    H139292   5.026   6.771  11.882 -0.2820 -1.0767 -0.6154
 5959TIP3    H239293   5.118   6.852  11.794 -2.5281  0.3797 -1.6812
 5960TIP3   OH239294   5.796   6.469  14.178 -0.3633 -0.3643 -0.0594
 5960TIP3    H139295   5.706   6.503  14.185  0.2328  1.0635  0.9538
 5960TIP3    H239296   5.815   6.437  14.266  0.4474  0.1819 -0.0360
 5961TIP3   OH239297   4.286   1.891   0.520 -0.9950 -0.0585  0.0337
 5961TIP3    H139298   4.368   1.926   0.486 -0.0507 -2.8202 -0.7052
 5961TIP3    H239299   4.282   1.920   0.611  0.1494  1.1940 -0.3050
 5962TIP3   OH239300   3.097   4.211  17.071  0.2601 -0.0438  0.0621
 5962TIP3    H139301   3.139   4.130  17.099  1.3014  0.0516 -1.1672
 5962TIP3    H239302   3.128   4.277  17.134 -0.5945 -0.5952  1.0692
 5963TIP3   OH239303   0.112   0.061   4.437  0.1235 -0.4069  0.0225
 5963TIP3    H139304   0.117   0.012   4.519 -0.7016 -0.2308  0.1747
 5963TIP3    H239305   0.091   0.151   4.463 -2.1800 -0.7624 -0.5066
 5964TIP3   OH239306   1.821   2.301  14.869 -0.0421  0.1158 -0.3736
 5964TIP3    H139307   1.779   2.217  14.851  0.9928 -0.6211  0.5416
 5964TIP3    H239308   1.879   2.283  14.943  2.3330  0.9155 -1.9591
 5965TIP3   OH239309   5.817   2.057  12.541  0.4104  0.6692  0.0540
 5965TIP3    H139310   5.889   2.120  12.537 -0.3270  1.4822 -0.7358
 5965TIP3    H239311   5.778   2.072  12.628  0.8387  0.6218  0.2570
 5966TIP3   OH239312   4.207   5.693   4.441  0.1121  0.2036 -0.7406
 5966TIP3    H139313   4.282   5.659   4.391  0.7168  0.1740  0.1801
 5966TIP3    H239314   4.198   5.784   4.412 -0.3471 -0.1859 -1.8499
 5967TIP3   OH239315   3.493   3.321   6.196 -0.3761 -0.0535  0.7029
 5967TIP3    H139316   3.548   3.380   6.146 -2.5560  0.8514 -0.6548
 5967TIP3    H239317   3.507   3.235   6.156 -0.6887  0.3461 -0.2773
 5968TIP3   OH239318   1.833   0.468   2.433  0.3169  0.2492  0.2416
 5968TIP3    H139319   1.870   0.395   2.383 -0.2747  0.1888 -0.1173
 5968TIP3    H239320   1.855   0.546   2.383 -1.2902  0.0898 -0.7481
 5969TIP3   OH239321   0.479   4.110   3.795 -0.7715  0.2065  0.6105
 5969TIP3    H139322   0.482   4.206   3.789 -1.4782  0.3100  1.5903
 5969TIP3    H239323   0.463   4.081   3.706  1.8100  0.8722 -0.0915
 5970TIP3   OH239324   5.578   4.439  11.731  0.3309 -0.5002  0.0835
 5970TIP3    H139325   5.673   4.439  11.743  0.1804 -0.5016  1.3360
 5970TIP3    H239326   5.546   4.374  11.794 -0.6255  0.6281  0.7875
 5971TIP3   OH239327   0.700   0.312   5.153  0.3354  0.4710 -0.4418
 5971TIP3    H139328   0.779   0.352   5.188 -0.1114 -0.8038  2.1495
 5971TIP3    H239329   0.723   0.220   5.137 -0.4384  0.2457 -0.3113
 5972TIP3   OH239330   6.568   2.519   5.477  0.0123  0.0765  0.4145
 5972TIP3    H139331   6.641   2.561   5.522 -0.9618  1.4589  0.7424
 5972TIP3    H239332   6.496   2.583   5.483 -1.3656 -1.4407  0.5225
 5973TIP3   OH239333   4.831   5.617  13.229 -0.5491  0.0418 -0.4667
 5973TIP3    H139334   4.826   5.596  13.135 -0.2313  0.0550 -0.4888
 5973TIP3    H239335   4.920   5.650  13.241 -0.0425 -1.5031  0.1470
 5974TIP3   OH239336   6.328   6.566  16.709  0.3504  0.3739  0.4821
 5974TIP3    H139337   6.313   6.599  16.797  0.3105  0.4479  0.4485
 5974TIP3    H239338   6.371   6.638  16.663  2.0715 -0.3395  0.9737
 5975TIP3   OH239339   5.909   0.352   3.888 -0.2525  0.2751  0.0694
 5975TIP3    H139340   5.999   0.382   3.875 -0.0677 -0.6379 -0.8155
 5975TIP3    H239341   5.902   0.336   3.982  1.3112 -2.0684 -0.1579
 5976TIP3   OH239342   2.006   5.895  11.405 -0.4217 -0.1746 -0.3836
 5976TIP3    H139343   1.931   5.952  11.393  0.2094  0.7177 -0.1791
 5976TIP3    H239344   2.060   5.940  11.470  0.6360 -0.4529 -1.0620
 5977TIP3   OH239345   1.756   2.163  12.634  0.4935  0.2191  0.4495
 5977TIP3    H139346   1.692   2.173  12.564  1.1157 -0.6251 -0.2448
 5977TIP3    H239347   1.841   2.172  12.590  0.8502  1.5997  1.4050
 5978TIP3   OH239348   6.754   5.474   3.718  0.2344  0.6827 -0.3749
 5978TIP3    H139349   6.705   5.430   3.648  0.0712 -0.2061  0.2917
 5978TIP3    H239350   6.688   5.526   3.764  0.0108 -0.0578  0.1600
 5979TIP3   OH239351   3.731   1.319  14.898  0.5079  0.3897  0.0059
 5979TIP3    H139352   3.770   1.402  14.926  2.4153 -0.2982 -0.5359
 5979TIP3    H239353   3.770   1.253  14.956  1.4051 -0.5113 -1.5709
 5980TIP3   OH239354   5.253   4.817  12.253  0.1563  0.1664 -0.6028
 5980TIP3    H139355   5.270   4.900  12.300  0.3760 -0.3257  0.2088
 5980TIP3    H239356   5.318   4.816  12.183  0.0610  0.7551 -0.6989
 5981TIP3   OH239357   4.098   2.935   6.384 -0.0697  0.6125  0.2852
 5981TIP3    H139358   4.140   2.992   6.319 -1.2515  0.3252 -0.7699
 5981TIP3    H239359   4.114   2.846   6.352  1.6484  0.3365  1.8539
 5982TIP3   OH239360   3.200   5.286  13.742  0.1792  0.2169  0.4297
 5982TIP3    H139361   3.222   5.379  13.735 -0.2781  0.3411  0.6419
 5982TIP3    H239362   3.232   5.259  13.828  0.8659  0.0252  0.1201
 5983TIP3   OH239363   3.666   5.520   3.568 -0.0222  0.4362 -0.2343
 5983TIP3    H139364   3.615   5.485   3.641 -0.2482 -0.4581 -0.8065
 5983TIP3    H239365   3.757   5.497   3.588 -0.0853  0.1819 -0.2427
 5984TIP3   OH239366   2.984   4.995  17.096  0.0356  0.5801  0.0491
 5984TIP3    H139367   2.928   4.983  17.174 -0.6303 -0.0957 -0.5190
 5984TIP3    H239368   2.938   5.061  17.044  0.5063  1.0665  0.2514
 5985TIP3   OH239369   6.771   6.205  16.520  0.9618 -0.3874 -0.1359
 5985TIP3    H139370   6.785   6.257  16.441 -1.3215 -1.4287 -1.2852
 5985TIP3    H239371   6.846   6.146  16.525  1.5325  0.2649 -1.0732
 5986TIP3   OH239372   5.844   3.575   2.729  0.4868 -0.0165 -0.1362
 5986TIP3    H139373   5.767   3.630   2.743 -0.4757 -1.5620  0.8508
 5986TIP3    H239374   5.914   3.619   2.777 -0.2697  0.3147  0.6708
 5987TIP3   OH239375   5.978   1.967   3.441 -0.4184 -0.0816  0.3271
 5987TIP3    H139376   6.035   1.932   3.373  0.1142  1.2061  0.1016
 5987TIP3    H239377   6.034   1.970   3.519 -0.1475  1.2468  0.0884
 5988TIP3   OH239378   2.289   3.327   1.703 -1.2105 -0.0245 -0.2571
 5988TIP3    H139379   2.306   3.385   1.777  0.2786 -0.1285 -0.4908
 5988TIP3    H239380   2.232   3.259   1.738  0.3622 -0.6751  1.1002
 5989TIP3   OH239381   0.806   2.910   2.665 -0.1802 -0.4407  0.0792
 5989TIP3    H139382   0.716   2.882   2.650 -1.5925  3.5966  0.7263
 5989TIP3    H239383   0.824   2.886   2.756 -1.0218 -0.0963  0.3363
 5990TIP3   OH239384   3.004   1.476  15.742 -0.2756 -0.0048  0.4410
 5990TIP3    H139385   3.097   1.488  15.720 -0.7535 -0.1299 -1.7657
 5990TIP3    H239386   3.000   1.387  15.777  0.4976  0.1335  0.9033
 5991TIP3   OH239387   1.279   6.620  13.357  0.3706  0.3610 -0.5221
 5991TIP3    H139388   1.220   6.595  13.286  3.2792 -4.1446 -1.6023
 5991TIP3    H239389   1.335   6.688  13.320 -0.7957  0.9887 -1.1495
 5992TIP3   OH239390   4.732   0.860   4.389 -0.2470 -0.0988 -0.0700
 5992TIP3    H139391   4.777   0.857   4.474  0.3946  0.0108 -0.4026
 5992TIP3    H239392   4.794   0.820   4.328 -1.5045 -2.0464 -0.1384
 5993TIP3   OH239393   6.281   5.114   4.589  0.3989  0.3621 -0.6710
 5993TIP3    H139394   6.249   5.041   4.641  0.0966  0.9319 -0.0499
 5993TIP3    H239395   6.324   5.172   4.652 -1.5894  1.9801 -0.7575
 5994TIP3   OH239396   0.182   2.072  16.126 -0.8985  0.0418  0.0819
 5994TIP3    H139397   0.093   2.108  16.130 -0.5417  1.0605 -1.1509
 5994TIP3    H239398   0.239   2.144  16.154 -0.3774 -0.2868 -0.1265
 5995TIP3   OH239399   0.512   0.658   0.006 -0.2876 -0.1762  0.3292
 5995TIP3    H139400   0.564   0.734  -0.020  0.7099 -0.9193  0.0758
 5995TIP3    H239401   0.508   0.663   0.101  0.3822 -0.1866  0.3611
 5996TIP3   OH239402   1.907   4.608   1.439  0.1073 -0.6155  0.1749
 5996TIP3    H139403   1.961   4.670   1.390 -0.2026  0.2738  0.9539
 5996TIP3    H239404   1.828   4.657   1.462 -0.4495 -1.5052  0.1978
 5997TIP3   OH239405   0.213   5.384  10.975  0.4104 -0.5840  0.4977
 5997TIP3    H139406   0.307   5.396  10.988  0.1673 -0.2130  2.0315
 5997TIP3    H239407   0.179   5.473  10.963  0.3163 -0.7565 -0.5773
 5998TIP3   OH239408   1.665   4.461   1.365  0.6881  0.2711  0.2885
 5998TIP3    H139409   1.668   4.391   1.299  1.3520  0.5775 -0.0167
 5998TIP3    H239410   1.757   4.473   1.391  0.5883  1.0912  0.2728
 5999TIP3   OH239411   5.616   2.608   0.211 -0.0808  0.1145 -0.3949
 5999TIP3    H139412   5.608   2.700   0.237 -0.5844 -0.1415  0.3819
 5999TIP3    H239413   5.648   2.564   0.289 -0.2740 -0.4434 -0.6313
 6000TIP3   OH239414   3.304   0.235   4.456 -0.5484  0.2018 -0.3924
 6000TIP3    H139415   3.257   0.312   4.489 -0.0245  0.8529 -1.1620
 6000TIP3    H239416   3.328   0.258   4.367  1.2770 -0.1201  0.0075
 6001TIP3   OH239417   1.831   6.429   0.122  0.0580 -0.3650 -0.1846
 6001TIP3    H139418   1.853   6.412   0.214  0.8764  0.1076 -0.2898
 6001TIP3    H239419   1.819   6.524   0.118 -1.9974 -0.5936 -0.1424
 6002TIP3   OH239420   3.026   2.233  16.138 -0.5024 -0.5841  0.4009
 6002TIP3    H139421   2.979   2.316  16.128  0.6597 -0.0580 -0.8023
 6002TIP3    H239422   3.014   2.189  16.054  2.0628  0.0455 -0.3490
 6003TIP3   OH239423   6.425   4.800   1.178  0.1536  0.3186 -0.2836
 6003TIP3    H139424   6.348   4.812   1.233 -0.5397 -1.9167 -0.7089
 6003TIP3    H239425   6.431   4.705   1.166  0.9870  0.6759 -3.0810
 6004TIP3   OH239426   4.911   3.006  14.624  0.0105  0.1726  0.3232
 6004TIP3    H139427   4.969   3.051  14.563  1.1497 -0.7026  0.7368
 6004TIP3    H239428   4.956   3.011  14.708 -1.8830  1.9782  1.2674
 6005TIP3   OH239429   1.778   4.882   2.856 -0.2985 -0.3874 -0.3068
 6005TIP3    H139430   1.786   4.787   2.854 -1.0578 -0.4553 -0.7278
 6005TIP3    H239431   1.705   4.899   2.916  1.2854  0.0565  1.5623
 6006TIP3   OH239432   1.391   3.988  16.053 -0.3196  0.8303 -0.3289
 6006TIP3    H139433   1.434   4.013  16.135 -0.2992 -0.3894  0.0387
 6006TIP3    H239434   1.459   3.997  15.987  0.2140 -0.0188  0.0843
 6007TIP3   OH239435   2.620   4.285  11.684  0.0486 -0.4449  0.0809
 6007TIP3    H139436   2.643   4.323  11.769 -1.3294  2.0842 -0.6449
 6007TIP3    H239437   2.557   4.216  11.704 -0.5601  0.3966  1.0819
 6008TIP3   OH239438   4.521   4.040  15.152 -0.3877  0.0974 -0.3034
 6008TIP3    H139439   4.541   4.096  15.227  0.3911  2.2609 -2.0580
 6008TIP3    H239440   4.435   4.071  15.122 -0.3002 -0.1739 -0.8353
 6009TIP3   OH239441   0.572   3.849  13.136  0.3305 -0.0439  0.3932
 6009TIP3    H139442   0.662   3.880  13.132  0.2452  0.3316  1.2316
 6009TIP3    H239443   0.524   3.906  13.075  0.5227  0.2237  0.4937
 6010TIP3   OH239444   3.288   2.564   5.113  0.2779  0.5894 -0.2029
 6010TIP3    H139445   3.253   2.481   5.080 -0.0782  0.9851 -0.8107
 6010TIP3    H239446   3.233   2.631   5.074  0.3967  1.1059  0.5024
 6011TIP3   OH239447   6.573   4.322   6.135 -0.3454  0.0951  0.1794
 6011TIP3    H139448   6.572   4.412   6.101 -0.6760 -0.7324 -2.0927
 6011TIP3    H239449   6.501   4.279   6.091 -0.2326 -1.2861  1.3099
 6012TIP3   OH239450   1.792   0.019   1.255  0.4082 -0.0720 -0.0207
 6012TIP3    H139451   1.815  -0.012   1.343 -0.4032  1.2391  0.6776
 6012TIP3    H239452   1.735  -0.049   1.220 -0.5815  0.1356  1.1243
 6013TIP3   OH239453   0.779   1.012  11.937  0.5813 -0.5744 -0.1165
 6013TIP3    H139454   0.754   1.103  11.950  1.1565 -0.4162 -0.1067
 6013TIP3    H239455   0.718   0.963  11.992 -1.1234 -0.3616 -1.7638
 6014TIP3   OH239456   6.278   5.005   0.584  0.5558 -0.4754  0.1051
 6014TIP3    H139457   6.332   5.009   0.663  0.6361  1.4353 -0.0065
 6014TIP3    H239458   6.330   5.049   0.517 -0.7730  0.6560 -0.2131
 6015TIP3   OH239459   1.109   1.057   3.425  0.1798 -0.1154 -0.1747
 6015TIP3    H139460   1.034   1.036   3.369 -0.1935  1.1973 -0.1776
 6015TIP3    H239461   1.074   1.121   3.487  0.8341 -0.8621  0.9700
 6016TIP3   OH239462   6.711   0.768   4.619 -0.2334  0.1775  0.1556
 6016TIP3    H139463   6.654   0.728   4.553  0.1150 -0.7429  0.4030
 6016TIP3    H239464   6.669   0.851   4.639 -0.9017  0.0006 -0.4705
 6017TIP3   OH239465   2.734   3.713   0.047  0.1148 -0.4558  0.6704
 6017TIP3    H139466   2.756   3.731  -0.045 -0.0648 -2.3563  0.2362
 6017TIP3    H239467   2.799   3.762   0.097  0.2403  0.5694 -0.4668
 6018TIP3   OH239468   3.512   0.225  12.303  0.5937  0.2651  0.0987
 6018TIP3    H139469   3.478   0.218  12.214 -2.1028  2.3227  0.8964
 6018TIP3    H239470   3.498   0.317  12.327  1.0846 -0.2975  2.6939
 6019TIP3   OH239471   1.541   5.354   3.857  0.6319 -0.8809 -0.5189
 6019TIP3    H139472   1.585   5.274   3.888  0.0864 -1.7751 -2.0100
 6019TIP3    H239473   1.579   5.424   3.910  2.2408 -1.9229 -0.2585
 6020TIP3   OH239474   0.178   2.504  14.407 -0.2996 -0.8410 -0.0350
 6020TIP3    H139475   0.237   2.527  14.479 -1.8956 -0.8481  1.3035
 6020TIP3    H239476   0.214   2.423  14.372  1.5115  0.0956 -0.4181
 6021TIP3   OH239477   2.560   2.701  11.929 -0.4006  0.5095 -0.1366
 6021TIP3    H139478   2.621   2.736  11.864  0.4610 -2.0539 -0.7762
 6021TIP3    H239479   2.500   2.645  11.879  0.1743 -1.3657  1.2021
 6022TIP3   OH239480   1.741   0.377   0.464 -0.6380  0.0596 -0.2795
 6022TIP3    H139481   1.821   0.376   0.515  0.8303  3.1659 -2.3083
 6022TIP3    H239482   1.684   0.312   0.505  2.3729 -1.1882  2.0582
 6023TIP3   OH239483   6.070   5.437   0.899 -0.2483 -0.0305 -0.2089
 6023TIP3    H139484   6.111   5.457   0.815 -0.8896  0.4349 -0.4174
 6023TIP3    H239485   6.067   5.522   0.944 -0.1304 -0.2341  0.1781
 6024TIP3   OH239486   0.479   0.860  13.923 -0.2517 -0.9283  0.0033
 6024TIP3    H139487   0.567   0.875  13.960  0.9185  0.1565 -3.0602
 6024TIP3    H239488   0.448   0.948  13.901 -1.7591 -1.3962  0.2586
 6025TIP3   OH239489   3.844   2.177   1.511 -0.1337 -0.2369 -0.1229
 6025TIP3    H139490   3.881   2.095   1.478  2.2011  1.1725 -1.1543
 6025TIP3    H239491   3.782   2.204   1.443 -0.1873 -0.6498 -0.2428
 6026TIP3   OH239492   3.971   4.802  11.387 -0.1543 -0.2634 -0.5434
 6026TIP3    H139493   3.990   4.881  11.438 -0.1372 -1.1456  0.8374
 6026TIP3    H239494   4.045   4.793  11.327  0.6886 -0.1845  0.4784
 6027TIP3   OH239495   1.297   5.799  12.844  0.4997  0.0565  0.7930
 6027TIP3    H139496   1.245   5.736  12.894  1.8329 -1.7263 -0.0225
 6027TIP3    H239497   1.232   5.851  12.797 -0.5678 -2.1309 -0.2176
 6028TIP3   OH239498   3.466   4.015  14.411 -0.1871  0.4674 -0.2661
 6028TIP3    H139499   3.560   4.009  14.394  0.0648 -2.5641  1.8639
 6028TIP3    H239500   3.445   4.107  14.394  3.3065  1.3863 -0.0985
 6029TIP3   OH239501   4.074   5.684  12.406 -0.3735  0.0258  0.1304
 6029TIP3    H139502   4.017   5.613  12.435 -0.6880  0.4380  0.5224
 6029TIP3    H239503   4.076   5.675  12.310  0.3562 -1.0960  0.2395
 6030TIP3   OH239504   6.293   0.204  13.783 -0.6978  0.2680  0.2618
 6030TIP3    H139505   6.277   0.110  13.788 -0.3388  0.0602 -2.1216
 6030TIP3    H239506   6.383   0.215  13.815 -0.7815 -0.1828  0.6538
 6031TIP3   OH239507   1.704   2.615   0.000  0.1041 -0.9974  0.3457
 6031TIP3    H139508   1.610   2.626   0.015  0.6817  2.2359  2.1335
 6031TIP3    H239509   1.738   2.584   0.084  1.0036  0.7923  0.6851
 6032TIP3   OH239510   1.317   2.032   4.678 -0.2641 -0.2275  0.4780
 6032TIP3    H139511   1.366   1.949   4.670  2.4099  1.3516 -0.2490
 6032TIP3    H239512   1.276   2.043   4.592 -3.8812 -2.6599  1.7678
 6033TIP3   OH239513   6.717   1.867   3.366 -0.3297  0.2284 -0.4267
 6033TIP3    H139514   6.703   1.829   3.279  2.8314  1.1698 -1.3887
 6033TIP3    H239515   6.771   1.803   3.412 -1.3672  0.0841  0.6251
 6034TIP3   OH239516   1.558   3.417   4.882 -0.3318 -0.7303 -0.7485
 6034TIP3    H139517   1.563   3.323   4.864  1.3430 -0.5984 -1.0595
 6034TIP3    H239518   1.646   3.440   4.914 -0.9345  0.5969 -0.0133
 6035TIP3   OH239519   0.258   1.881  15.402  0.3848  0.3251 -0.3485
 6035TIP3    H139520   0.198   1.913  15.470  0.0452 -2.9087  0.9396
 6035TIP3    H239521   0.334   1.848  15.450  0.3632 -1.5320 -1.5356
 6036TIP3   OH239522   6.185   1.554   4.362 -0.6395 -0.3681 -0.1091
 6036TIP3    H139523   6.180   1.543   4.457 -0.3463  0.4219  0.0044
 6036TIP3    H239524   6.135   1.633   4.344  0.7029  0.4396 -0.4083
 6037TIP3   OH239525   2.761   6.203   0.566  0.2887  0.0561 -0.3325
 6037TIP3    H139526   2.732   6.162   0.648 -2.7336 -0.2648 -1.4754
 6037TIP3    H239527   2.800   6.286   0.594 -0.2569 -0.2609  1.4777
 6038TIP3   OH239528   5.321   1.193  13.828  0.0762 -0.1057  0.0026
 6038TIP3    H139529   5.383   1.140  13.778  0.7195  2.8245 -2.4186
 6038TIP3    H239530   5.340   1.171  13.919  1.5509 -2.6469 -0.8574
 6039TIP3   OH239531   4.369   4.951  14.152 -0.7982 -0.2594  0.0784
 6039TIP3    H139532   4.434   4.992  14.095  0.2022 -0.9246  0.7157
 6039TIP3    H239533   4.374   5.001  14.234 -0.6500 -0.6847  0.3344
 6040TIP3   OH239534   1.336   1.309  14.006  0.0874 -0.2718  0.1288
 6040TIP3    H139535   1.305   1.397  14.026  0.0662  0.2257 -2.0100
 6040TIP3    H239536   1.279   1.279  13.935 -0.2690 -2.2402  1.2121
 6041TIP3   OH239537   4.789   6.713  10.342 -0.0936  0.5717  0.2598
 6041TIP3    H139538   4.768   6.774  10.271 -0.1641  0.8589  0.5278
 6041TIP3    H239539   4.765   6.627  10.307  0.7674  0.6023 -0.4213
 6042TIP3   OH239540   0.253   1.978  15.865  0.1324 -0.3297 -0.7047
 6042TIP3    H139541   0.231   2.014  15.950 -0.2043  1.2810 -1.4521
 6042TIP3    H239542   0.211   1.892  15.864 -1.2510  0.3239  0.1191
 6043TIP3   OH239543   3.942   0.371  16.042 -0.4345  0.1309 -0.0479
 6043TIP3    H139544   4.010   0.304  16.050 -0.2917  0.2733 -0.0698
 6043TIP3    H239545   3.863   0.322  16.017 -0.1029  0.0953 -1.0392
 6044TIP3   OH239546   6.678   6.058  11.678 -0.6000  0.6404 -0.2787
 6044TIP3    H139547   6.655   6.073  11.770  0.0565 -1.9210  0.3375
 6044TIP3    H239548   6.772   6.043  11.678 -0.7298 -0.2879 -1.2292
 6045TIP3   OH239549   6.653   6.262   0.516  0.0995 -0.2985  0.1325
 6045TIP3    H139550   6.609   6.177   0.513  0.4060 -0.5210  1.5073
 6045TIP3    H239551   6.728   6.248   0.575 -0.1642  1.0629  0.8193
 6046TIP3   OH239552   6.666   5.872  13.755  0.8570 -0.0260  0.4098
 6046TIP3    H139553   6.625   5.868  13.668  1.0152 -0.1847  0.3409
 6046TIP3    H239554   6.753   5.907  13.738  1.3882 -1.3578  0.3232
 6047TIP3   OH239555   5.724   0.266  12.797  0.2492 -0.2948  0.0112
 6047TIP3    H139556   5.806   0.221  12.781  0.1984 -0.2336 -0.4460
 6047TIP3    H239557   5.702   0.307  12.713  0.3353  0.6425  0.4335
 6048TIP3   OH239558   2.167   1.145   5.662 -0.0088 -0.4537 -0.2252
 6048TIP3    H139559   2.163   1.189   5.577  1.5295 -0.1915 -0.1727
 6048TIP3    H239560   2.129   1.058   5.646 -1.1365  0.1254 -0.8068
 6049TIP3   OH239561   1.440   1.731  13.347 -0.0466 -0.4297 -0.0175
 6049TIP3    H139562   1.404   1.690  13.270 -0.6334 -0.9465  0.5311
 6049TIP3    H239563   1.510   1.672  13.376  0.1746 -0.2360 -0.1596
 6050TIP3   OH239564   2.816   4.844  13.117 -0.4054 -0.3644 -0.0706
 6050TIP3    H139565   2.724   4.831  13.098 -0.7930 -0.3020  1.6569
 6050TIP3    H239566   2.846   4.759  13.150 -0.0282 -0.1716  0.0939
 6051TIP3   OH239567   3.472   3.932  10.783  0.0184  0.6338  0.1895
 6051TIP3    H139568   3.430   3.887  10.710  1.2163  0.6255 -0.5058
 6051TIP3    H239569   3.433   3.893  10.861  0.8958 -1.5192 -0.4037
 6052TIP3   OH239570   6.749   3.620  11.816 -0.3066  0.0330  0.5597
 6052TIP3    H139571   6.786   3.532  11.810  2.9402  1.3455  0.3428
 6052TIP3    H239572   6.708   3.635  11.731 -0.5670 -1.1693  0.4790
 6053TIP3   OH239573   1.442   5.223  16.209 -1.2260 -0.9478  0.0398
 6053TIP3    H139574   1.400   5.303  16.176 -0.5529 -0.0615  1.2911
 6053TIP3    H239575   1.445   5.235  16.304  1.1324 -1.3344  0.0482
 6054TIP3   OH239576   5.027   4.578  16.073  1.0456  0.0460  0.0348
 6054TIP3    H139577   5.122   4.581  16.066  1.1478 -0.8514  0.8904
 6054TIP3    H239578   5.005   4.653  16.130  1.2092  0.4267 -0.4012
 6055TIP3   OH239579   5.889   5.034  13.504 -0.2766 -0.6494 -0.4145
 6055TIP3    H139580   5.933   5.107  13.460  0.4115 -0.3519  0.7518
 6055TIP3    H239581   5.887   5.060  13.596 -0.6680 -1.7939 -0.1014
 6056TIP3   OH239582   1.550   5.967  10.623  0.0783 -0.2492  0.0665
 6056TIP3    H139583   1.471   6.007  10.589 -0.3081  0.7409  2.0397
 6056TIP3    H239584   1.604   5.949  10.546 -1.2934  0.7336 -1.1301
 6057TIP3   OH239585   4.145   0.044   1.778 -0.3472 -0.4037 -0.2058
 6057TIP3    H139586   4.189   0.101   1.714 -2.1157  0.6271 -0.5273
 6057TIP3    H239587   4.135  -0.039   1.732 -0.8053  0.0597 -0.9601
 6058TIP3   OH239588   6.232   0.512  11.205  0.1162  0.0488 -0.1449
 6058TIP3    H139589   6.228   0.562  11.124  0.9676  0.0992 -0.1599
 6058TIP3    H239590   6.148   0.528  11.247  0.2051  1.1361 -0.3649
 6059TIP3   OH239591   3.189   0.749  16.352  0.3777 -0.2408  0.1744
 6059TIP3    H139592   3.109   0.748  16.403 -0.3498 -0.3070 -0.9481
 6059TIP3    H239593   3.207   0.841  16.336  0.1832 -0.2471 -0.0901
 6060TIP3   OH239594   3.931   0.505  14.735 -0.0818  0.1572 -0.1857
 6060TIP3    H139595   3.843   0.530  14.707 -0.2294 -1.0802 -0.8389
 6060TIP3    H239596   3.918   0.425  14.786  0.7035 -0.2569 -0.6276
 6061TIP3   OH239597   3.727   3.007  13.205  0.9673 -0.0780  0.4458
 6061TIP3    H139598   3.765   2.923  13.179  0.8832 -0.1877  0.6841
 6061TIP3    H239599   3.778   3.034  13.281  1.0093  0.0958  0.3555
 6062TIP3   OH239600   3.118   6.706  16.445  0.6518  0.4807 -0.3834
 6062TIP3    H139601   3.026   6.722  16.424 -0.0248 -1.1090  1.1775
 6062TIP3    H239602   3.119   6.694  16.540  2.2327 -0.9900 -0.5519
 6063TIP3   OH239603   4.561   2.659   2.644  0.3467 -0.0751  0.1268
 6063TIP3    H139604   4.655   2.656   2.660  0.5714  2.7411 -0.4194
 6063TIP3    H239605   4.524   2.592   2.701  2.7936 -2.0649 -0.5652
 6064TIP3   OH239606   1.522   1.712  15.082 -0.0361 -0.2457  0.1209
 6064TIP3    H139607   1.521   1.787  15.023  0.7939  0.0477  0.4685
 6064TIP3    H239608   1.557   1.640  15.029  2.4391  0.4525  0.7326
 6065TIP3   OH239609   6.598   3.916   2.265 -0.6650 -0.1048 -0.6327
 6065TIP3    H139610   6.679   3.883   2.227  0.1986  0.8661  0.3455
 6065TIP3    H239611   6.620   3.940   2.355 -1.4016  2.4774 -1.0882
 6066TIP3   OH239612   6.558   1.053   4.249 -0.1330 -0.1659  0.3320
 6066TIP3    H139613   6.566   1.109   4.172 -2.7215  1.2280  1.0189
 6066TIP3    H239614   6.474   1.078   4.288 -0.4433 -3.2207  1.7173
 6067TIP3   OH239615   6.098   5.235  13.459  0.1074  0.5220 -0.0700
 6067TIP3    H139616   6.122   5.198  13.543 -0.3746 -1.1418 -0.6523
 6067TIP3    H239617   6.182   5.254  13.416  0.3514  0.1422  0.2429
 6068TIP3   OH239618   2.783   0.836   2.618  0.0313 -0.3068 -0.3712
 6068TIP3    H139619   2.767   0.863   2.708 -0.3201 -1.0864 -0.1964
 6068TIP3    H239620   2.762   0.742   2.617  1.6840 -0.7035 -0.8502
 6069TIP3   OH239621   0.762   3.804   3.724 -0.4360  0.6260 -0.4819
 6069TIP3    H139622   0.761   3.838   3.814  0.1544 -1.3722  0.3079
 6069TIP3    H239623   0.674   3.771   3.710  0.0834 -1.0837  0.1801
 6070TIP3   OH239624   4.421   1.088   4.394 -0.1677 -0.0445 -0.0606
 6070TIP3    H139625   4.508   1.070   4.430 -0.3618  1.1196  1.0629
 6070TIP3    H239626   4.361   1.058   4.462 -0.5740  1.0252  0.0668
 6071TIP3   OH239627   0.663   4.463   4.810  0.3869  0.0284 -0.3042
 6071TIP3    H139628   0.697   4.473   4.721 -0.0676 -2.6576 -0.8194
 6071TIP3    H239629   0.610   4.542   4.824  0.8147  0.6964 -2.2414
 6072TIP3   OH239630   3.347   6.123  11.069  0.4472 -0.4695 -0.4480
 6072TIP3    H139631   3.393   6.060  11.013  1.2321 -0.2164 -0.1056
 6072TIP3    H239632   3.416   6.157  11.127 -0.7538 -2.3946  2.2024
 6073TIP3   OH239633   0.877   3.462   0.354  0.3964  0.3101 -0.5569
 6073TIP3    H139634   0.960   3.507   0.337  0.8718 -0.2801  0.2015
 6073TIP3    H239635   0.810   3.525   0.327  1.0891  0.3074 -2.3985
 6074TIP3   OH239636   4.678   4.241  15.994 -0.4770  0.2153  0.2635
 6074TIP3    H139637   4.759   4.192  16.009 -1.0900 -0.1817  2.3352
 6074TIP3    H239638   4.629   4.186  15.932  0.0630 -0.4115  0.3781
 6075TIP3   OH239639   0.993   2.557   5.885  0.5653 -0.3388 -1.0479
 6075TIP3    H139640   1.010   2.651   5.875 -4.0114  0.5083 -1.8942
 6075TIP3    H239641   1.012   2.539   5.977  1.9834  1.2760 -1.0037
 6076TIP3   OH239642   5.087   3.204  17.028 -0.4956  0.2419  0.0521
 6076TIP3    H139643   5.001   3.245  17.018 -0.9188 -0.6132  0.0793
 6076TIP3    H239644   5.094   3.145  16.952  0.9181  1.7778 -1.0273
 6077TIP3   OH239645   4.679   5.921   2.732  0.0436 -0.3599 -0.0699
 6077TIP3    H139646   4.605   5.868   2.759  0.6365 -1.0322  0.2474
 6077TIP3    H239647   4.756   5.877   2.769  0.4522  1.3258  1.1480
 6078TIP3   OH239648   1.183   2.595   5.392  0.3506 -0.3516 -0.2182
 6078TIP3    H139649   1.175   2.596   5.297 -1.5417 -0.7723 -0.0985
 6078TIP3    H239650   1.154   2.507   5.418  0.1829 -0.0168  0.7731
 6079TIP3   OH239651   3.171   5.068   3.660  0.0697  0.1831 -0.4409
 6079TIP3    H139652   3.146   5.032   3.575 -0.1781 -1.7193  0.4159
 6079TIP3    H239653   3.092   5.058   3.714  0.7810 -0.2564  0.5200
 6080TIP3   OH239654   6.086   2.256   2.283 -0.2199  0.3142 -0.0827
 6080TIP3    H139655   6.045   2.187   2.335 -1.2242  0.5459 -0.5479
 6080TIP3    H239656   6.119   2.319   2.347  0.2063 -0.3200  0.3219
 6081TIP3   OH239657   1.971   4.359   1.374 -0.3212  0.2271 -0.4964
 6081TIP3    H139658   1.933   4.439   1.409 -1.6233 -0.2312 -0.8576
 6081TIP3    H239659   1.970   4.371   1.279  1.6919  0.7771 -0.4855
 6082TIP3   OH239660   1.744   3.420  11.752 -0.5398 -0.3439  0.4281
 6082TIP3    H139661   1.769   3.329  11.732 -0.4759 -0.6320  1.8044
 6082TIP3    H239662   1.676   3.412  11.819  0.6402  0.6721  1.7588
 6083TIP3   OH239663   2.850   4.191  16.430  0.3663 -0.5690 -0.1325
 6083TIP3    H139664   2.922   4.202  16.369  0.6747 -0.4910  0.2378
 6083TIP3    H239665   2.797   4.270  16.421  0.5537 -0.4417 -0.1154
 6084TIP3   OH239666   1.644   4.901  11.801  0.1353 -0.2958 -0.2847
 6084TIP3    H139667   1.575   4.923  11.864  0.3556  0.1284 -0.1856
 6084TIP3    H239668   1.683   4.986  11.779  0.0564 -0.4435 -0.9961
 6085TIP3   OH239669   5.321   5.952   3.073 -0.5640 -0.3954  0.6865
 6085TIP3    H139670   5.281   5.998   3.147  0.5046 -0.5761  1.3882
 6085TIP3    H239671   5.249   5.938   3.012 -1.1726  1.0594  1.0378
 6086TIP3   OH239672   2.127   1.414   6.001 -0.0254 -0.1225  0.2302
 6086TIP3    H139673   2.206   1.395   6.051 -0.3936  1.5168  1.4825
 6086TIP3    H239674   2.064   1.446   6.066 -0.9920  0.6707 -1.0622
 6087TIP3   OH239675   2.815   5.916   6.207  0.6238  0.3361 -0.0239
 6087TIP3    H139676   2.908   5.934   6.188  0.4286  1.7358  0.2959
 6087TIP3    H239677   2.793   5.843   6.149  1.9619 -0.0855 -0.0272
 6088TIP3   OH239678   4.107   3.388  15.389  0.0142  0.1038  0.6306
 6088TIP3    H139679   4.086   3.478  15.362 -1.3636 -0.2988  0.3152
 6088TIP3    H239680   4.046   3.370  15.461 -1.8777 -1.6396 -1.3337
 6089TIP3   OH239681   4.314   5.520  12.472  0.4375  0.2185  0.7824
 6089TIP3    H139682   4.320   5.486  12.382 -0.3338  0.3740  0.6753
 6089TIP3    H239683   4.258   5.597  12.466  2.6627  1.9173  0.9318
 6090TIP3   OH239684   0.582   1.621   5.904 -0.1308 -0.4758  0.4727
 6090TIP3    H139685   0.584   1.665   5.989 -2.3390  1.5911 -0.5023
 6090TIP3    H239686   0.490   1.597   5.890  0.5218 -2.6595 -0.4454
 6091TIP3   OH239687   1.287   3.252  17.235  0.1705 -0.2533  0.7908
 6091TIP3    H139688   1.198   3.229  17.210  0.4556  0.3454 -0.8245
 6091TIP3    H239689   1.293   3.346  17.218  1.1521 -0.3164  0.7649
 6092TIP3   OH239690   5.695   3.237   2.604  0.2804  0.5498 -0.4407
 6092TIP3    H139691   5.659   3.223   2.516 -2.4900  1.9159  0.4249
 6092TIP3    H239692   5.707   3.148   2.638 -0.8444  0.0235 -1.3425
 6093TIP3   OH239693   3.294   3.515   1.315  0.2928 -0.1460 -0.2054
 6093TIP3    H139694   3.291   3.430   1.271  0.3003 -1.1626  1.6979
 6093TIP3    H239695   3.303   3.494   1.408  0.9985  1.9591  0.2339
 6094TIP3   OH239696   0.760   2.951  14.623  0.0390 -0.9267 -0.0505
 6094TIP3    H139697   0.781   2.917  14.535 -1.3646 -0.1282 -0.7177
 6094TIP3    H239698   0.807   3.034  14.629  0.7710 -1.3597  0.2695
 6095TIP3   OH239699   1.836   5.384   4.672 -0.1964 -0.0831  0.1484
 6095TIP3    H139700   1.824   5.479   4.661  2.4280  0.3929  1.0691
 6095TIP3    H239701   1.828   5.369   4.766  1.4783 -0.4425  0.2453
 6096TIP3   OH239702   4.806   0.591   3.136  0.2587  0.0499  0.2646
 6096TIP3    H139703   4.805   0.622   3.045  1.8775  0.3953  0.3513
 6096TIP3    H239704   4.715   0.567   3.154  0.0021 -0.5091 -1.6194
 6097TIP3   OH239705   0.520   6.003  14.168 -0.4765  0.1643 -0.3411
 6097TIP3    H139706   0.435   6.047  14.162 -1.3627 -1.4299  0.2973
 6097TIP3    H239707   0.550   6.022  14.257  0.3272  1.5796 -0.8986
 6098TIP3   OH239708   1.048   2.004  14.256  0.7891  0.4086 -0.3587
 6098TIP3    H139709   1.005   1.966  14.333  0.3588  0.1981 -0.7036
 6098TIP3    H239710   1.130   2.040  14.290  0.3331  0.8276  0.3044
 6099TIP3   OH239711   3.767   4.731  13.031 -0.1982 -0.0048  0.3527
 6099TIP3    H139712   3.681   4.718  12.990  0.4046 -2.9164 -0.0555
 6099TIP3    H239713   3.830   4.706  12.963  0.8723 -1.9282  2.0121
 6100TIP3   OH239714   0.350   6.754   0.249  0.1982  0.2655 -0.4204
 6100TIP3    H139715   0.384   6.817   0.312  0.1122  1.0334 -1.1352
 6100TIP3    H239716   0.260   6.783   0.232 -0.4367 -1.0313  0.5156
 6101TIP3   OH239717   3.965   3.588   2.773  0.6077 -0.1972  0.5929
 6101TIP3    H139718   4.054   3.554   2.761  1.1267  1.5543 -0.7470
 6101TIP3    H239719   3.975   3.659   2.837 -0.0401 -0.8252  1.4017
 6102TIP3   OH239720   0.410   1.041   0.595 -0.0665 -0.0958 -0.2995
 6102TIP3    H139721   0.488   0.989   0.575 -0.7289 -0.6172 -1.5399
 6102TIP3    H239722   0.385   1.013   0.683  0.1937 -1.1189 -0.5417
 6103TIP3   OH239723   3.841   4.267   5.045 -0.3772  0.1962 -0.2837
 6103TIP3    H139724   3.844   4.361   5.025 -1.7634  0.2099 -0.4735
 6103TIP3    H239725   3.793   4.261   5.127 -0.1698 -0.3404 -0.2008
 6104TIP3   OH239726   5.549   6.305   5.729 -0.4054  0.2479  0.3280
 6104TIP3    H139727   5.521   6.222   5.767 -0.3782 -0.4840 -1.2142
 6104TIP3    H239728   5.617   6.337   5.788 -3.2052  1.1977  3.2054
 6105TIP3   OH239729   4.134   4.300   2.444 -0.1007 -0.1665  0.0039
 6105TIP3    H139730   4.148   4.372   2.506  1.6538  0.8536 -1.5344
 6105TIP3    H239731   4.064   4.330   2.386 -0.1284 -0.1575  0.0426
 6106TIP3   OH239732   3.432   0.703  17.148 -0.2007 -0.0438 -0.2999
 6106TIP3    H139733   3.483   0.754  17.086  0.6756 -0.6376 -0.0630
 6106TIP3    H239734   3.425   0.616  17.110  0.2855 -0.3933  0.3950
 6107TIP3   OH239735   0.196   3.704   4.629 -0.3191 -1.0613 -0.8111
 6107TIP3    H139736   0.280   3.689   4.671 -0.7391 -1.5167 -0.1273
 6107TIP3    H239737   0.157   3.617   4.619  0.0576 -1.0314 -2.7524
 6108TIP3   OH239738   0.443   0.267  12.152 -0.2550 -0.0970  0.5152
 6108TIP3    H139739   0.533   0.285  12.124 -0.6605 -1.2531 -1.6676
 6108TIP3    H239740   0.389   0.326  12.099 -0.7119  1.8328  3.0430
 6109TIP3   OH239741   2.046   4.346   2.066 -0.3088 -0.0646  0.5742
 6109TIP3    H139742   2.066   4.267   2.015 -1.0582 -0.6261  1.1279
 6109TIP3    H239743   1.988   4.397   2.009 -0.0672 -0.0519  0.3366
 6110TIP3   OH239744   2.686   6.215   4.784 -0.0498 -0.2280 -0.2199
 6110TIP3    H139745   2.670   6.236   4.876  0.3774 -1.5679  0.1687
 6110TIP3    H239746   2.653   6.126   4.773 -3.0256  1.0226 -2.1541
 6111TIP3   OH239747   0.452   5.081  11.412 -0.1928 -0.2403  0.1584
 6111TIP3    H139748   0.375   5.133  11.389  0.6289  0.0955 -1.9477
 6111TIP3    H239749   0.416   5.002  11.451 -1.8285 -1.7196 -4.0778
 6112TIP3   OH239750   1.456   3.348  12.375 -0.3789  0.2606 -0.3326
 6112TIP3    H139751   1.388   3.288  12.347  1.0735 -1.2800 -0.6214
 6112TIP3    H239752   1.443   3.426  12.321 -0.3906 -0.9545 -2.1257
 6113TIP3   OH239753   0.474   4.336   1.486  0.3349 -0.6237  0.0886
 6113TIP3    H139754   0.529   4.267   1.521 -1.6387 -1.0088  2.5763
 6113TIP3    H239755   0.445   4.385   1.563 -3.1042 -0.6881 -1.0710
 6114TIP3   OH239756   2.785   6.124   1.002 -0.3076 -0.4040 -0.2055
 6114TIP3    H139757   2.823   6.192   1.057  1.0517 -3.0575  2.2916
 6114TIP3    H239758   2.734   6.070   1.063 -1.8613 -1.2644 -2.2187
 6115TIP3   OH239759   4.930   0.856   0.844 -0.2923 -0.4127  0.0095
 6115TIP3    H139760   5.000   0.886   0.902  1.9522  0.7005 -3.1376
 6115TIP3    H239761   4.969   0.855   0.757 -3.6385 -1.7063 -1.5916
 6116TIP3   OH239762   5.912   0.463   5.310 -0.1345 -0.1007  0.3262
 6116TIP3    H139763   5.888   0.469   5.402 -0.1029 -0.8922  0.3897
 6116TIP3    H239764   6.004   0.488   5.307 -0.9132  2.9024  0.0861
 6117TIP3   OH239765   5.761   3.507  13.187 -0.4771  0.6115  0.5439
 6117TIP3    H139766   5.833   3.449  13.164 -0.6503  0.9764 -0.9456
 6117TIP3    H239767   5.710   3.515  13.107 -1.9507  0.6893  1.4681
 6118TIP3   OH239768   2.071   5.050   6.563  0.6934 -0.2782 -0.1318
 6118TIP3    H139769   1.990   5.024   6.519  0.2293  2.6809 -1.1268
 6118TIP3    H239770   2.139   5.035   6.498  0.5999 -0.1680 -0.2545
 6119TIP3   OH239771   4.601   3.717   0.866 -0.1073 -0.1003 -0.0190
 6119TIP3    H139772   4.629   3.630   0.838  0.9723  0.9612 -2.3716
 6119TIP3    H239773   4.682   3.762   0.891 -0.3760  1.0326 -1.1409
 6120TIP3   OH239774   5.191   3.297   0.477 -0.2875  0.4250 -1.0585
 6120TIP3    H139775   5.181   3.228   0.411  0.8185  0.1817 -0.9963
 6120TIP3    H239776   5.285   3.315   0.478 -0.1439 -0.1742  1.0357
 6121TIP3   OH239777   2.149   1.320   2.472 -0.0198 -0.1957 -0.2272
 6121TIP3    H139778   2.174   1.347   2.561 -1.5282 -0.4877  0.3143
 6121TIP3    H239779   2.137   1.402   2.425 -0.4154 -0.0009  0.2011
 6122TIP3   OH239780   3.540   0.077  16.082 -0.3485 -0.3824  0.2136
 6122TIP3    H139781   3.498   0.030  16.010  0.6788 -1.6574  0.4277
 6122TIP3    H239782   3.511   0.031  16.161  0.0842 -0.2025  0.4799
 6123TIP3   OH239783   0.679   3.595  11.541 -0.2482  0.2834  0.0321
 6123TIP3    H139784   0.603   3.626  11.589 -0.8986  0.8041 -1.3107
 6123TIP3    H239785   0.744   3.664  11.552  0.7135 -1.0055  2.7416
 6124TIP3   OH239786   3.977   0.068  16.387 -0.2383 -0.4132 -0.1409
 6124TIP3    H139787   3.904   0.118  16.350  0.2046  0.7568  0.5523
 6124TIP3    H239788   3.959   0.066  16.481  0.0944 -1.0016 -0.0870
 6125TIP3   OH239789   1.555   5.429   1.750 -0.3573  0.3794 -0.3232
 6125TIP3    H139790   1.636   5.460   1.790 -1.8753  2.9936  0.8406
 6125TIP3    H239791   1.536   5.493   1.682 -1.3077 -0.3808 -0.7931
 6126TIP3   OH239792   0.207   3.731   0.182 -0.1414  0.2226  0.0844
 6126TIP3    H139793   0.276   3.793   0.208 -0.0214 -0.0225  0.3449
 6126TIP3    H239794   0.151   3.782   0.123 -0.6729  0.9201  1.1772
 6127TIP3   OH239795   3.122   4.005   4.255 -0.0669 -0.3140  0.8954
 6127TIP3    H139796   3.118   3.938   4.187 -0.8578 -0.9972  1.6081
 6127TIP3    H239797   3.030   4.030   4.268  0.3009  1.6772 -0.1263
 6128TIP3   OH239798   3.284   3.254   1.232 -0.0211 -0.0955  0.0086
 6128TIP3    H139799   3.252   3.203   1.158  1.5946 -0.1356 -0.6734
 6128TIP3    H239800   3.335   3.193   1.284  1.7492  0.7390 -0.7017
 6129TIP3   OH239801   3.925   2.939   3.140  0.1199  0.1583  0.2269
 6129TIP3    H139802   3.909   2.874   3.209 -2.2115  0.9767  0.5273
 6129TIP3    H239803   3.864   3.010   3.161 -0.9589  0.2305 -2.9579
 6130TIP3   OH239804   0.188   6.086   2.755  0.2449  0.2951  0.8804
 6130TIP3    H139805   0.184   6.169   2.709  0.3180 -0.7276 -1.0093
 6130TIP3    H239806   0.140   6.101   2.836 -1.8702  1.4495 -0.5574
 6131TIP3   OH239807   1.999   4.414  14.348  0.1658 -0.4280 -0.2962
 6131TIP3    H139808   2.053   4.368  14.412 -1.0873  0.5862  1.5556
 6131TIP3    H239809   1.926   4.353  14.331 -0.3120 -0.0776  0.4475
 6132TIP3   OH239810   2.540   6.417   5.454  0.2197 -0.0556 -0.7504
 6132TIP3    H139811   2.502   6.335   5.422  1.6172 -0.6461 -0.9309
 6132TIP3    H239812   2.627   6.393   5.485  1.2828  1.6578 -2.3268
 6133TIP3   OH239813   3.113   1.013   6.161  0.2430 -0.4480  0.2042
 6133TIP3    H139814   3.035   1.034   6.213 -0.2887  1.6089 -1.3564
 6133TIP3    H239815   3.152   0.938   6.206 -0.8954  0.4602  2.8224
 6134TIP3   OH239816   2.718   0.362   3.393 -0.0973  0.1494 -0.2621
 6134TIP3    H139817   2.803   0.379   3.433 -0.2515  0.2658  0.0174
 6134TIP3    H239818   2.673   0.446   3.393 -0.7643 -0.1885  0.9075
 6135TIP3   OH239819   3.366   4.161   3.845 -0.2871 -0.5132  0.6501
 6135TIP3    H139820   3.390   4.172   3.937  0.6912  0.0092  0.3431
 6135TIP3    H239821   3.450   4.163   3.798 -0.7832 -0.7052 -0.2598
 6136TIP3   OH239822   1.088   5.831   2.773 -0.3561  0.0311 -0.4898
 6136TIP3    H139823   1.040   5.750   2.793  0.0109 -0.7083 -2.4927
 6136TIP3    H239824   1.059   5.855   2.685  1.4910  0.6273 -0.9576
 6137TIP3   OH239825   5.373   2.088  13.753  0.1685 -0.2818 -0.3486
 6137TIP3    H139826   5.404   2.059  13.667  0.2060 -1.2452 -0.0143
 6137TIP3    H239827   5.282   2.059  13.756  1.1524 -3.4156  1.3306
 6138TIP3   OH239828   3.027   0.857  11.609  0.0054  0.1177 -0.2827
 6138TIP3    H139829   2.949   0.804  11.589 -0.7197  0.5518  1.3213
 6138TIP3    H239830   3.020   0.876  11.702  1.6329  0.8435 -0.2890
 6139TIP3   OH239831   1.416   4.250   1.347 -0.0323  0.2465 -0.2048
 6139TIP3    H139832   1.456   4.174   1.304 -1.3055  0.5472 -1.9666
 6139TIP3    H239833   1.371   4.213   1.423  1.1014 -0.4779  0.1298
 6140TIP3   OH239834   6.759   4.701  13.505  0.8243 -0.2004  0.3342
 6140TIP3    H139835   6.769   4.617  13.550  1.9656 -0.2029  0.0990
 6140TIP3    H239836   6.846   4.719  13.468  0.4556  0.8280 -0.0614
 6141TIP3   OH239837   0.566   2.629   2.317  0.9947 -0.3600 -0.4797
 6141TIP3    H139838   0.523   2.683   2.249  3.5235  2.6657  0.2035
 6141TIP3    H239839   0.655   2.618   2.286  1.2021 -2.0753  0.6558
 6142TIP3   OH239840   2.236   1.780  16.446 -0.0092  0.0405 -0.7040
 6142TIP3    H139841   2.328   1.751  16.441  0.3310  1.3199 -2.3119
 6142TIP3    H239842   2.238   1.854  16.506  0.1160  0.4390 -1.1960
 6143TIP3   OH239843   1.718   1.397   3.121  0.3009 -0.3478  0.1536
 6143TIP3    H139844   1.748   1.405   3.031  0.0095 -0.8851  0.0030
 6143TIP3    H239845   1.674   1.312   3.124 -0.6909  0.1658  0.5043
 6144TIP3   OH239846   2.187   6.198   1.086  0.2106  0.1853 -0.1754
 6144TIP3    H139847   2.224   6.283   1.062  1.0327  0.3429  1.5524
 6144TIP3    H239848   2.154   6.162   1.004  0.7771  1.7262 -1.1000
 6145TIP3   OH239849   3.141   4.377  16.814  0.2412  0.0874 -0.1459
 6145TIP3    H139850   3.138   4.349  16.722  0.9692 -0.7837  0.0858
 6145TIP3    H239851   3.127   4.297  16.864  1.9458  0.1995  0.5309
 6146TIP3   OH239852   6.462   6.050   0.131  0.0648 -0.0109 -0.3215
 6146TIP3    H139853   6.545   6.080   0.168  0.7249  0.5603 -2.2068
 6146TIP3    H239854   6.434   5.979   0.188  2.4953 -1.0401 -0.3953
 6147TIP3   OH239855   4.086   0.701  16.880  0.0558  0.2905 -0.8630
 6147TIP3    H139856   4.139   0.730  16.954  0.9924  1.6953 -2.0584
 6147TIP3    H239857   4.012   0.762  16.877 -1.4014 -1.3630  0.4960
 6148TIP3   OH239858   3.304   6.150   4.459  0.7300  0.1949 -0.3748
 6148TIP3    H139859   3.388   6.196   4.450 -1.0193  3.7267  0.1500
 6148TIP3    H239860   3.283   6.157   4.552  0.1144 -1.1705 -0.4061
 6149TIP3   OH239861   4.001   0.436  15.525  0.1535 -0.0637  0.0024
 6149TIP3    H139862   4.066   0.373  15.494  0.2492 -0.2315  0.5365
 6149TIP3    H239863   3.917   0.392  15.514  0.1451  0.0932 -0.5444
 6150TIP3   OH239864   2.484   2.475   6.262 -0.0193 -1.0691 -0.0997
 6150TIP3    H139865   2.540   2.461   6.339 -0.4268  1.1466  0.6323
 6150TIP3    H239866   2.396   2.481   6.298 -0.1986  0.1180 -0.7316
 6151TIP3   OH239867   5.058   0.724  14.714  0.4790  0.1959 -0.1428
 6151TIP3    H139868   5.002   0.720  14.637  0.6822  3.2020 -0.4850
 6151TIP3    H239869   5.131   0.665  14.694  0.9391  1.5813 -2.5851
 6152TIP3   OH239870   5.381   5.288   1.752 -0.1871 -0.0443  0.0284
 6152TIP3    H139871   5.323   5.257   1.822  0.6763 -1.3130  0.2067
 6152TIP3    H239872   5.469   5.268   1.784  0.3567  1.7774 -0.2801
 6153TIP3   OH239873   6.220   1.305  13.227 -0.0592 -0.6245 -0.0581
 6153TIP3    H139874   6.294   1.248  13.249 -0.5986 -0.6623  1.7025
 6153TIP3    H239875   6.144   1.247  13.226 -0.3902 -0.1955  0.2632
 6154TIP3   OH239876   6.738   5.312   0.804 -0.2447  0.1157  0.1272
 6154TIP3    H139877   6.753   5.284   0.714 -1.2365 -1.5768  0.4785
 6154TIP3    H239878   6.766   5.238   0.858 -1.9484  0.1721  1.1250
 6155TIP3   OH239879   2.504   2.882  16.341  0.2645  0.0162 -0.0421
 6155TIP3    H139880   2.438   2.952  16.339  0.3557  0.0890 -0.6573
 6155TIP3    H239881   2.472   2.817  16.279  1.4191  0.6479 -1.3101
 6156TIP3   OH239882   3.887   1.968  13.118 -0.5046 -0.2284 -0.0929
 6156TIP3    H139883   3.846   2.001  13.198  0.2872  0.4099  0.0554
 6156TIP3    H239884   3.952   2.034  13.095  0.1419 -1.0135 -0.5705
 6157TIP3   OH239885   2.658   3.346  15.200  0.1226  0.7723  0.0921
 6157TIP3    H139886   2.565   3.333  15.221  0.1320  1.4331  0.5247
 6157TIP3    H239887   2.664   3.323  15.107 -0.2794 -0.2508  0.3007
 6158TIP3   OH239888   2.508   2.409  14.913  0.0860  0.1568  0.0558
 6158TIP3    H139889   2.537   2.318  14.906 -1.3346 -0.2846 -0.2447
 6158TIP3    H239890   2.554   2.454  14.842  1.3600 -0.1569  0.6562
 6159TIP3   OH239891   4.130   5.058   0.816  0.5298  0.2539  0.3484
 6159TIP3    H139892   4.104   5.084   0.728  0.1114 -0.8519  0.1394
 6159TIP3    H239893   4.152   4.965   0.809  0.6406  0.1903  1.3732
 6160TIP3   OH239894   4.615   6.283  15.610 -0.0105  0.1744 -0.4236
 6160TIP3    H139895   4.679   6.276  15.539  0.9613  0.9108  0.3604
 6160TIP3    H239896   4.548   6.218  15.589  1.6234 -1.4793 -0.6082
 6161TIP3   OH239897   4.459   5.916   0.417 -0.2708 -0.3518 -0.2219
 6161TIP3    H139898   4.541   5.873   0.440 -0.6998 -1.2423 -0.3548
 6161TIP3    H239899   4.410   5.851   0.368 -1.8289 -0.4804  1.4197
 6162TIP3   OH239900   4.845   4.365   0.290 -0.4365  0.7051 -0.1450
 6162TIP3    H139901   4.874   4.297   0.351 -1.8046  1.3768  1.3009
 6162TIP3    H239902   4.916   4.429   0.289  0.1438  0.0605 -0.2454
 6163TIP3   OH239903   5.356   2.070   5.752  0.8903 -0.2891 -0.6222
 6163TIP3    H139904   5.358   2.156   5.710  2.3358  0.0606  0.1410
 6163TIP3    H239905   5.423   2.020   5.707  1.3489 -0.4143  0.1900
 6164TIP3   OH239906   5.977   6.033   3.901  0.3637 -0.0037 -0.1525
 6164TIP3    H139907   5.961   5.952   3.852  0.8776  0.1209 -0.5302
 6164TIP3    H239908   6.052   6.013   3.957  0.5143  0.2205 -0.2724
 6165TIP3   OH239909   0.067   4.360  16.040  0.1523  0.2445 -0.6152
 6165TIP3    H139910   0.096   4.417  15.969  0.3404 -0.1298 -0.8428
 6165TIP3    H239911  -0.028   4.356  16.031  0.2295 -0.2812 -1.2147
 6166TIP3   OH239912   1.080   1.059  15.515  0.3009  0.0052 -0.5815
 6166TIP3    H139913   1.062   1.037  15.607  0.8163  0.2105 -0.4316
 6166TIP3    H239914   1.007   1.020  15.467 -0.6551  0.9665  0.0430
 6167TIP3   OH239915   6.397   4.630  13.783 -0.7116  0.1662 -0.1940
 6167TIP3    H139916   6.307   4.619  13.814 -0.8305 -2.1918 -1.2967
 6167TIP3    H239917   6.398   4.719  13.746 -1.4938  1.7176  3.2812
 6168TIP3   OH239918   4.380   3.609  15.264  0.6157 -0.4914  0.1748
 6168TIP3    H139919   4.379   3.680  15.201  0.1398 -0.3969  0.2920
 6168TIP3    H239920   4.427   3.645  15.340 -0.3253 -0.0278  0.5512
 6169TIP3   OH239921   1.279   4.011  14.769 -0.4369 -0.0341 -0.0139
 6169TIP3    H139922   1.349   3.954  14.802  0.9844  1.1571 -0.9155
 6169TIP3    H239923   1.256   4.066  14.844  1.0441  0.9603 -0.2607
 6170TIP3   OH239924   1.970   6.459   1.750  0.5613 -0.1829  0.1112
 6170TIP3    H139925   2.065   6.466   1.738  0.3806  0.8617 -0.7692
 6170TIP3    H239926   1.952   6.512   1.828  0.7572 -0.7577  0.5493
 6171TIP3   OH239927   6.062   5.854   5.589  0.3659 -0.3255  0.0291
 6171TIP3    H139928   6.109   5.782   5.631 -0.3798 -0.5045  0.5648
 6171TIP3    H239929   6.053   5.920   5.657  1.5617  0.5334 -0.6242
 6172TIP3   OH239930   4.338   5.805  12.367  0.5034  0.1745 -0.1293
 6172TIP3    H139931   4.353   5.823  12.274  0.6597  1.6888  0.1863
 6172TIP3    H239932   4.243   5.796  12.375  0.6572 -2.6323 -0.8992
 6173TIP3   OH239933   2.526   5.444   4.052  0.3054  0.0492  0.0299
 6173TIP3    H139934   2.506   5.351   4.042  1.5037 -0.0443 -1.5709
 6173TIP3    H239935   2.540   5.455   4.147 -2.0873 -0.9029  0.5246
 6174TIP3   OH239936   2.902   0.387   5.587 -0.1964  0.0440 -0.7604
 6174TIP3    H139937   2.850   0.466   5.600 -0.8864 -0.4166 -0.6888
 6174TIP3    H239938   2.991   0.418   5.573 -0.2314  0.7692  0.5778
 6175TIP3   OH239939   5.122   0.685  11.365  0.1202  0.8475 -0.1982
 6175TIP3    H139940   5.036   0.728  11.368  0.2471  1.0772  0.1076
 6175TIP3    H239941   5.178   0.747  11.318  0.0981  0.6599 -0.4741
 6176TIP3   OH239942   5.047   4.109   5.477  0.5142  0.7075 -0.2304
 6176TIP3    H139943   5.125   4.084   5.527  0.4821  0.1965 -0.4287
 6176TIP3    H239944   4.974   4.069   5.526  0.4220  0.7603 -0.3251
 6177TIP3   OH239945   6.345   3.316   6.028 -0.3586  0.0826  0.2830
 6177TIP3    H139946   6.298   3.394   6.000 -0.0091  0.6765  1.3437
 6177TIP3    H239947   6.436   3.333   6.003 -0.1714  0.2997  1.0902
 6178TIP3   OH239948   5.280   2.715  11.308  0.1841 -0.2044 -0.4862
 6178TIP3    H139949   5.221   2.751  11.375  1.2796 -0.9229  0.9035
 6178TIP3    H239950   5.259   2.622  11.307  0.3513 -0.2342 -0.9617
 6179TIP3   OH239951   0.217   2.698  11.899  0.2215 -0.0538 -0.1624
 6179TIP3    H139952   0.210   2.693  11.804  0.4993  0.5048 -0.2145
 6179TIP3    H239953   0.216   2.792  11.918 -0.2204 -0.1697  0.4143
 6180TIP3   OH239954   6.454   3.521   2.916 -0.2519  0.3233 -0.3278
 6180TIP3    H139955   6.533   3.493   2.871 -1.6790  0.1827 -2.8221
 6180TIP3    H239956   6.434   3.607   2.879 -2.1160 -0.3235 -0.8757
 6181TIP3   OH239957   1.082   4.746  12.874 -0.2688  0.4698 -0.6703
 6181TIP3    H139958   1.065   4.681  12.942  1.2467 -0.0504 -0.7528
 6181TIP3    H239959   1.019   4.726  12.805 -0.6461 -0.1182 -0.1599
 6182TIP3   OH239960   2.099   1.494  11.944 -0.1418  0.1944  0.3564
 6182TIP3    H139961   2.193   1.480  11.959 -0.1440  1.1102  1.3526
 6182TIP3    H239962   2.089   1.496  11.849  0.9245  0.5524  0.2465
 6183TIP3   OH239963   4.385   6.292  11.478  0.5434  0.0415  0.0533
 6183TIP3    H139964   4.429   6.258  11.556 -0.5645  0.4675  0.8928
 6183TIP3    H239965   4.377   6.217  11.420 -0.0351 -0.6579  1.0200
 6184TIP3   OH239966   2.853   2.089   3.707  0.3891 -0.2096 -0.6620
 6184TIP3    H139967   2.902   2.007   3.697  0.4760 -0.0078 -1.9546
 6184TIP3    H239968   2.903   2.152   3.656 -1.2514 -0.0102 -2.0715
 6185TIP3   OH239969   3.589   3.595  15.239 -0.2176  0.6021 -0.2762
 6185TIP3    H139970   3.605   3.511  15.283  3.2088  1.6528  0.5896
 6185TIP3    H239971   3.660   3.603  15.176 -0.4673  2.9206 -0.2903
 6186TIP3   OH239972   0.591   3.460  17.038 -0.4128 -0.0945 -0.2491
 6186TIP3    H139973   0.524   3.528  17.047  1.1904  1.7658 -1.6883
 6186TIP3    H239974   0.591   3.414  17.122 -4.9049 -1.5524 -0.9070
 6187TIP3   OH239975   2.567   0.642  12.040  0.5283  0.0850  0.4124
 6187TIP3    H139976   2.578   0.610  11.951 -0.4702  0.8293  0.0085
 6187TIP3    H239977   2.597   0.570  12.096  0.3579 -0.7026 -0.5041
 6188TIP3   OH239978   3.100   3.913  14.168  0.1587  0.1539 -0.2534
 6188TIP3    H139979   3.186   3.944  14.198  0.2603 -1.4119  1.0942
 6188TIP3    H239980   3.103   3.818  14.180 -1.6481  0.0515 -0.5040
 6189TIP3   OH239981   1.330   4.736  12.382  0.4981  0.0025  0.9535
 6189TIP3    H139982   1.341   4.649  12.343  0.7453  0.4847 -0.0736
 6189TIP3    H239983   1.415   4.778  12.369 -0.6487  1.6405 -1.6661
 6190TIP3   OH239984   1.723   4.605   1.690 -0.3802 -0.3181 -0.6414
 6190TIP3    H139985   1.719   4.665   1.764  0.2520 -0.3382 -0.5866
 6190TIP3    H239986   1.633   4.599   1.658 -0.5719  0.0530 -0.1647
 6191TIP3   OH239987   6.440   5.334   3.151  0.3837 -0.2984 -0.0814
 6191TIP3    H139988   6.498   5.404   3.181  1.6285 -1.4841  0.2864
 6191TIP3    H239989   6.425   5.353   3.058 -0.3635  1.1925  0.3223
 6192TIP3   OH239990   2.817   6.624  12.824  0.1053  0.0015 -0.2880
 6192TIP3    H139991   2.886   6.589  12.881 -0.2510  0.9364  0.7251
 6192TIP3    H239992   2.862   6.688  12.768  0.0054  0.8173  0.5665
 6193TIP3   OH239993   0.212   0.397   4.770  0.1561 -0.1929 -0.7154
 6193TIP3    H139994   0.265   0.381   4.848  1.3814 -1.2636 -1.7394
 6193TIP3    H239995   0.154   0.469   4.794  0.2339 -0.7803  1.3054
 6194TIP3   OH239996   3.673   3.322  11.715 -0.1770 -0.5700  0.2587
 6194TIP3    H139997   3.738   3.300  11.648  0.5948  0.3886  0.6846
 6194TIP3    H239998   3.611   3.250  11.712  1.0955 -1.6772  0.0873
 6195TIP3   OH239999   4.650   4.005  12.185 -0.5120  0.5191 -0.6324
 6195TIP3    H140000   4.560   4.029  12.164 -0.7390 -0.0459 -0.3370
 6195TIP3    H240001   4.648   3.909  12.188  0.0155  0.5225 -0.2616
 6196TIP3   OH240002   1.311   3.526   5.607  0.1910 -0.5529 -0.1331
 6196TIP3    H140003   1.353   3.607   5.578 -1.3646  0.0577 -0.7491
 6196TIP3    H240004   1.356   3.503   5.688  1.2438  0.4456 -0.4280
 6197TIP3   OH240005   3.380   3.422   1.941 -0.1888 -0.6558  0.0098
 6197TIP3    H140006   3.398   3.373   1.861 -0.2061  0.2851 -0.5798
 6197TIP3    H240007   3.286   3.437   1.940 -0.0049  0.5544 -0.5111
 6198TIP3   OH240008   3.417   0.717  12.866  0.1326 -0.2767  0.2589
 6198TIP3    H140009   3.404   0.629  12.901  0.0490 -0.3144  0.1344
 6198TIP3    H240010   3.421   0.774  12.943 -1.9904 -0.1011  0.2606
 6199TIP3   OH240011   2.422   0.182   1.666 -0.2939  0.0888  0.5265
 6199TIP3    H140012   2.351   0.217   1.612  2.1043  1.9045 -1.5604
 6199TIP3    H240013   2.437   0.094   1.631 -0.2242  0.4280 -0.3044
 6200TIP3   OH240014   3.127   3.521  13.688 -0.1636 -0.1517  0.2019
 6200TIP3    H140015   3.185   3.580  13.736 -0.7299 -1.5958  2.7763
 6200TIP3    H240016   3.183   3.476  13.625  0.6628  1.5682 -0.3085
 6201TIP3   OH240017   6.492   6.776  15.301  0.0896 -0.4493 -0.6710
 6201TIP3    H140018   6.470   6.842  15.235 -0.7393 -0.9403 -0.9015
 6201TIP3    H240019   6.422   6.710  15.293 -0.4941 -0.1071  1.2692
 6202TIP3   OH240020   5.320   2.916   3.524  0.1131 -0.1717  0.8202
 6202TIP3    H140021   5.360   2.985   3.471  0.4834 -0.7753  0.3110
 6202TIP3    H240022   5.243   2.889   3.474 -0.3597  0.2787  1.3030
 6203TIP3   OH240023   1.537   1.999  14.594 -0.3275 -0.0338  0.0111
 6203TIP3    H140024   1.505   2.089  14.599 -1.0670 -0.3038  0.2381
 6203TIP3    H240025   1.460   1.945  14.611  0.5365 -0.6799  2.0523
 6204TIP3   OH240026   3.871   1.931  14.689 -0.6603 -0.0380 -0.2147
 6204TIP3    H140027   3.885   1.967  14.602  0.1685 -1.2964 -0.6185
 6204TIP3    H240028   3.942   1.967  14.742 -0.4633 -0.2063 -0.3602
 6205TIP3   OH240029   6.556   6.135  17.114 -0.1663 -0.0341  0.3634
 6205TIP3    H140030   6.632   6.182  17.149  1.5653 -3.0436  0.9206
 6205TIP3    H240031   6.511   6.101  17.192 -2.6740  2.4927  0.0806
 6206TIP3   OH240032   2.738   2.738  13.994 -0.1725 -0.5050 -0.0266
 6206TIP3    H140033   2.821   2.786  13.984 -0.2519 -0.4904 -0.6012
 6206TIP3    H240034   2.684   2.767  13.921  0.2060 -2.3510 -1.0770
 6207TIP3   OH240035   4.645   5.572  10.455 -0.4808  0.1035 -0.6951
 6207TIP3    H140036   4.556   5.577  10.490 -0.0939  0.6649  0.2142
 6207TIP3    H240037   4.647   5.489  10.406 -0.4483 -1.7146  2.2548
 6208TIP3   OH240038   5.302   0.956  13.173  0.1910 -0.0334 -0.0574
 6208TIP3    H140039   5.206   0.960  13.168  0.1997  0.4251  0.1826
 6208TIP3    H240040   5.331   0.990  13.088  0.1206 -1.3000 -0.6029
 6209TIP3   OH240041   3.562   4.999   0.788 -0.2389 -0.2078  0.1289
 6209TIP3    H140042   3.576   5.008   0.694  0.8489  0.5238  0.3581
 6209TIP3    H240043   3.642   4.958   0.821 -1.3857 -2.2900  0.4700
 6210TIP3   OH240044   1.319   4.202  15.496 -0.0052  0.2853  0.0461
 6210TIP3    H140045   1.247   4.160  15.448 -0.0355  0.2419  0.1277
 6210TIP3    H240046   1.342   4.137  15.563  0.5196  0.0435 -0.3644
 6211TIP3   OH240047   1.369   0.130   3.579  0.5684  0.6366  0.1442
 6211TIP3    H140048   1.282   0.148   3.616  0.4905  2.0477 -0.7034
 6211TIP3    H240049   1.366   0.038   3.554 -1.0830  0.9776 -0.9450
 6212TIP3   OH240050   5.799   2.185  10.897 -0.1940  0.5295  0.0461
 6212TIP3    H140051   5.736   2.257  10.890 -1.1582 -0.4252 -1.4573
 6212TIP3    H240052   5.881   2.220  10.864 -0.2416  1.4048  0.8360
 6213TIP3   OH240053   5.870   1.938  16.661  0.3076 -0.7135  0.1078
 6213TIP3    H140054   5.873   2.032  16.678  0.6051 -0.9149  1.1602
 6213TIP3    H240055   5.960   1.915  16.637  0.8518 -1.2387  2.5784
 6214TIP3   OH240056   4.593   2.197  17.170  0.2230  0.4713 -0.4886
 6214TIP3    H140057   4.591   2.289  17.199 -0.5086  0.2588  0.1552
 6214TIP3    H240058   4.681   2.185  17.135  0.5726  1.2096  0.1174
 6215TIP3   OH240059   4.873   3.044   4.158  0.2370 -0.2854 -0.1847
 6215TIP3    H140060   4.784   3.076   4.142  0.0950 -0.4998  0.1877
 6215TIP3    H240061   4.861   2.961   4.203  0.6313 -0.2735 -0.0609
 6216TIP3   OH240062   5.458   0.079  15.630 -0.1165  0.5009 -0.2880
 6216TIP3    H140063   5.501   0.024  15.565 -0.0972 -0.9232  0.8778
 6216TIP3    H240064   5.478   0.037  15.714 -0.1957  2.2514  0.6354
 6217TIP3   OH240065   3.742   3.331   6.039 -0.5243  0.2921 -0.1740
 6217TIP3    H140066   3.740   3.259   6.101 -1.3505 -0.4267 -1.0225
 6217TIP3    H240067   3.734   3.410   6.093 -0.6629 -0.3018  0.6728
 6218TIP3   OH240068   6.717   1.686  11.270  0.0482  0.0481 -0.5011
 6218TIP3    H140069   6.680   1.598  11.262 -0.1951  0.0153  0.7559
 6218TIP3    H240070   6.677   1.721  11.350 -0.7995  1.7794 -1.6662
 6219TIP3   OH240071   4.249   4.112   3.539  0.0246  0.2121 -0.1947
 6219TIP3    H140072   4.228   4.138   3.629  1.3396  0.0407  0.1700
 6219TIP3    H240073   4.195   4.034   3.524  1.5675 -1.2170  1.3229
 6220TIP3   OH240074   4.794   1.909   2.123 -0.2087  0.5924 -0.0573
 6220TIP3    H140075   4.830   1.998   2.131 -1.8081  1.3377 -0.9858
 6220TIP3    H240076   4.848   1.867   2.057  1.5470  0.3581  1.5047
 6221TIP3   OH240077   6.655   3.359   5.079  0.5393 -0.2028 -0.4142
 6221TIP3    H140078   6.639   3.281   5.133  2.5468 -1.1253 -1.1216
 6221TIP3    H240079   6.721   3.409   5.127 -0.6809  1.0552 -0.0016
 6222TIP3   OH240080   3.633   0.387   2.358  0.2991 -0.1531  0.2399
 6222TIP3    H140081   3.724   0.419   2.354  0.3654 -0.3033  0.5528
 6222TIP3    H240082   3.638   0.309   2.414  0.3304 -1.3647 -1.3910
 6223TIP3   OH240083   6.745   2.742  14.891  0.1200  0.3162 -0.3220
 6223TIP3    H140084   6.757   2.662  14.839  1.8499 -0.8012  1.7272
 6223TIP3    H240085   6.664   2.727  14.940  0.4258 -0.1866  0.0376
 6224TIP3   OH240086   6.642   4.822   5.926 -0.4017 -0.1480 -0.2525
 6224TIP3    H140087   6.653   4.747   5.867 -2.3112 -0.0080 -0.8213
 6224TIP3    H240088   6.651   4.785   6.014  2.1608 -0.4086 -0.5860
 6225TIP3   OH240089   1.086   2.854   1.982  0.3950 -0.0915  0.5231
 6225TIP3    H140090   1.121   2.937   1.951 -0.7384  0.5094  0.8252
 6225TIP3    H240091   0.993   2.857   1.959 -0.4415  0.2843  3.7387
 6226TIP3   OH240092   4.072   3.183   6.095  0.0451  0.5534 -0.3466
 6226TIP3    H140093   4.002   3.146   6.042  1.4590 -0.0363 -1.8346
 6226TIP3    H240094   4.097   3.264   6.051 -0.2142  1.1662  0.6102
 6227TIP3   OH240095   5.709   4.914   3.172 -0.0362  0.3263  0.2118
 6227TIP3    H140096   5.706   4.970   3.095  1.4840 -0.0201 -0.1044
 6227TIP3    H240097   5.778   4.951   3.226 -0.1908 -0.2349  0.7993
 6228TIP3   OH240098   4.886   5.740   2.824 -0.0047 -0.0468 -0.2993
 6228TIP3    H140099   4.846   5.713   2.741  0.0786  0.1512 -0.4039
 6228TIP3    H240100   4.979   5.723   2.812 -0.3167 -2.9822  0.8842
 6229TIP3   OH240101   3.600   4.917   1.645  0.3105 -0.2748  0.2302
 6229TIP3    H140102   3.515   4.925   1.687  0.5847 -0.9254  0.9177
 6229TIP3    H240103   3.641   5.003   1.658  0.0538 -0.1976  0.5321
 6230TIP3   OH240104   4.540   2.948   4.343 -0.3268 -0.0970 -0.1539
 6230TIP3    H140105   4.593   2.875   4.376 -0.2953  0.3137  0.7130
 6230TIP3    H240106   4.457   2.907   4.318  0.8514 -0.9723 -2.8011
 6231TIP3   OH240107   0.238   4.090  11.165  0.2677 -0.4301  0.0442
 6231TIP3    H140108   0.297   4.024  11.128  1.2045 -0.6938  1.9247
 6231TIP3    H240109   0.231   4.065  11.258 -0.1716  1.5308  0.5483
 6232TIP3   OH240110   4.275   6.476  12.568  0.0847 -0.2177  0.5369
 6232TIP3    H140111   4.223   6.550  12.600 -1.1904 -1.7903  2.2177
 6232TIP3    H240112   4.235   6.454  12.484  0.8326  1.3275 -0.2507
 6233TIP3   OH240113   6.272   0.032  11.833 -0.2494 -0.0639  0.4710
 6233TIP3    H140114   6.312  -0.044  11.789 -1.0354 -0.6224  0.7073
 6233TIP3    H240115   6.213  -0.006  11.898  1.2172  0.7518  2.3424
 6234TIP3   OH240116   2.470   1.148  15.782 -0.2323 -0.3317  0.6190
 6234TIP3    H140117   2.515   1.069  15.812  1.5261  0.3997 -0.0174
 6234TIP3    H240118   2.518   1.174  15.703 -3.4594 -1.0391 -1.6678
 6235TIP3   OH240119   3.756   1.727  13.412 -0.0493 -0.4263  0.1254
 6235TIP3    H140120   3.719   1.712  13.499 -0.3007  0.2681  0.1396
 6235TIP3    H240121   3.705   1.671  13.354  0.3821 -1.2005  0.4796
 6236TIP3   OH240122   2.945   4.948  16.250  0.2029  0.2374 -0.4258
 6236TIP3    H140123   2.887   4.921  16.179 -1.0264 -0.2883  0.7778
 6236TIP3    H240124   2.908   5.030  16.282  1.3264  0.9966 -1.0363
 6237TIP3   OH240125   5.575   0.431   2.324 -0.0634 -0.3033 -0.1490
 6237TIP3    H140126   5.539   0.519   2.338 -0.3460 -0.3127 -0.7702
 6237TIP3    H240127   5.522   0.374   2.380  0.0382 -0.0916  0.1604
 6238TIP3   OH240128   2.951   0.938   0.145 -0.4178 -0.4460  0.4683
 6238TIP3    H140129   3.003   0.878   0.198 -0.1318  0.4754  1.2430
 6238TIP3    H240130   2.860   0.915   0.164 -0.3065 -0.9675  0.3695
 6239TIP3   OH240131   3.029   5.921  15.967 -0.2985 -0.1213 -0.1681
 6239TIP3    H140132   3.000   5.870  15.892  0.8445 -0.6614 -0.2644
 6239TIP3    H240133   3.091   5.984  15.931 -2.3181  1.9243 -0.1813
 6240TIP3   OH240134   1.331   1.655  12.728  0.4497  0.1534 -0.3119
 6240TIP3    H140135   1.409   1.680  12.777  0.3784  0.5564 -0.4023
 6240TIP3    H240136   1.359   1.652  12.637  0.6978 -1.0514 -0.2119
 6241TIP3   OH240137   3.039   4.769   2.016  0.0491  0.5942  0.0664
 6241TIP3    H140138   3.064   4.679   1.994 -2.3703  0.4418 -2.3735
 6241TIP3    H240139   3.068   4.780   2.106  0.3960 -2.6512  0.4408
 6242TIP3   OH240140   0.516   2.827  13.770  0.2356  0.2198 -0.7163
 6242TIP3    H140141   0.491   2.754  13.826  1.0080 -0.0386 -0.7013
 6242TIP3    H240142   0.601   2.802  13.734  1.3036  1.8225  0.5775
 6243TIP3   OH240143   1.597   5.733   5.268  0.5934 -0.0986  0.2232
 6243TIP3    H140144   1.649   5.690   5.200  1.4352 -0.8810  1.3449
 6243TIP3    H240145   1.571   5.816   5.228  4.0069  1.0236  0.1222
 6244TIP3   OH240146   0.344   3.058  16.371  0.4136 -0.2705  0.1679
 6244TIP3    H140147   0.297   3.097  16.444 -0.9680  1.2067 -1.4713
 6244TIP3    H240148   0.386   2.981  16.409 -1.4813 -0.3803  2.1981
 6245TIP3   OH240149   6.411   2.571  16.234  1.5665 -0.4169 -0.3273
 6245TIP3    H140150   6.377   2.488  16.202  1.3236 -0.5898  0.3748
 6245TIP3    H240151   6.498   2.578  16.196  0.7001  0.1174 -2.3053
 6246TIP3   OH240152   5.712   6.547  13.120  0.2216 -0.2773  0.2852
 6246TIP3    H140153   5.696   6.629  13.072 -2.3298 -0.1602  1.2285
 6246TIP3    H240154   5.722   6.575  13.211  0.5524 -0.9137  0.4430
 6247TIP3   OH240155   0.221   1.533  15.246  1.3302  0.5520  0.3779
 6247TIP3    H140156   0.302   1.584  15.245  1.3010  0.5985  0.4060
 6247TIP3    H240157   0.249   1.446  15.273  1.1181  1.0084  2.1188
 6248TIP3   OH240158   2.333   2.314  13.135  0.3943 -0.2088 -0.7448
 6248TIP3    H140159   2.342   2.267  13.052  1.5349  2.1071 -2.0068
 6248TIP3    H240160   2.414   2.297  13.181  1.1176  1.0652 -1.5187
 6249TIP3   OH240161   6.519   4.823   2.455 -0.1056 -0.5683  0.5893
 6249TIP3    H140162   6.580   4.750   2.444 -1.0562 -1.3617  0.4790
 6249TIP3    H240163   6.472   4.827   2.372 -1.8445 -1.5077  1.5044
 6250TIP3   OH240164   1.900   0.534  15.393  0.3011 -0.3026  0.7875
 6250TIP3    H140165   1.962   0.497  15.330  2.3098  1.2460  1.8246
 6250TIP3    H240166   1.890   0.625  15.366  0.7386  0.2218  2.3596
 6251TIP3   OH240167   4.878   2.368   1.308  0.1406 -0.5857  0.0686
 6251TIP3    H140168   4.895   2.419   1.229  1.0557 -0.3448  0.4169
 6251TIP3    H240169   4.879   2.277   1.279  0.9820 -0.5199 -0.1057
 6252TIP3   OH240170   5.016   5.511   1.881 -0.2673  0.7624 -0.1243
 6252TIP3    H140171   5.024   5.435   1.823 -0.6991  0.5698  0.0671
 6252TIP3    H240172   4.948   5.565   1.841  0.1854  1.1552 -0.3733
 6253TIP3   OH240173   6.382   4.319  15.777  0.8166 -0.4316  0.0198
 6253TIP3    H140174   6.476   4.304  15.765  1.0528  0.6709  0.3409
 6253TIP3    H240175   6.371   4.413  15.759 -1.0642 -1.4672 -5.0182
 6254TIP3   OH240176   4.973   6.078   3.098 -0.3945 -0.3747  0.3680
 6254TIP3    H140177   4.910   6.046   3.163 -2.0456 -0.5478 -1.2667
 6254TIP3    H240178   4.980   6.007   3.034  0.0760  0.3668 -0.4151
 6255TIP3   OH240179   1.214   4.683   0.668  0.5265  0.6595  0.3500
 6255TIP3    H140180   1.247   4.620   0.732 -1.7445 -1.1797 -0.1864
 6255TIP3    H240181   1.278   4.680   0.596  0.7996 -0.5521  0.6305
 6256TIP3   OH240182   2.809   4.016   4.310  0.1875  0.4878  0.6740
 6256TIP3    H140183   2.799   3.946   4.245  1.5932  0.2136  0.7358
 6256TIP3    H240184   2.750   3.991   4.381 -0.1629 -0.0457  0.2023
 6257TIP3   OH240185   4.481   0.146  10.218 -0.1207 -0.2795 -0.3263
 6257TIP3    H140186   4.499   0.240  10.225 -1.9268  0.1469 -1.3347
 6257TIP3    H240187   4.413   0.130  10.284 -2.3457 -0.1864 -2.5443
 6258TIP3   OH240188   6.459   0.412  16.058  0.0153  0.5958  0.3072
 6258TIP3    H140189   6.454   0.496  16.103  0.0789  0.4033  0.6776
 6258TIP3    H240190   6.551   0.387  16.063  0.0473  0.6381 -0.0535
 6259TIP3   OH240191   1.901   1.882   0.291  0.1172 -0.1928  0.4732
 6259TIP3    H140192   1.944   1.798   0.275  0.1259  0.2344 -1.8976
 6259TIP3    H240193   1.968   1.947   0.270 -0.1819  0.4130  1.3980
 6260TIP3   OH240194   2.136   0.960  11.016  0.2650 -0.8131  0.1394
 6260TIP3    H140195   2.222   1.000  11.002  0.3281 -0.6785  0.8849
 6260TIP3    H240196   2.090   0.972  10.933  0.2088  1.0203  0.4204
 6261TIP3   OH240197   2.190   1.396   0.912 -0.2513  0.2477  0.1886
 6261TIP3    H140198   2.179   1.477   0.961 -0.0905  0.4649 -0.1295
 6261TIP3    H240199   2.246   1.341   0.967 -0.2187  0.4200  0.3244
 6262TIP3   OH240200   4.368   2.243   2.909  0.5633 -0.4020 -0.2303
 6262TIP3    H140201   4.401   2.199   2.988 -0.2097 -3.3138 -1.4860
 6262TIP3    H240202   4.424   2.212   2.839 -0.3060  0.2383 -1.2161
 6263TIP3   OH240203   5.119   5.209   4.122  0.1410  0.1764  0.0897
 6263TIP3    H140204   5.167   5.238   4.044 -0.9218  1.0812 -0.2507
 6263TIP3    H240205   5.090   5.120   4.101  0.1156  0.3076 -0.4339
 6264TIP3   OH240206   4.335   2.776  16.754 -0.1970 -0.0872  0.4742
 6264TIP3    H140207   4.342   2.777  16.658 -0.8210  0.6764  0.4328
 6264TIP3    H240208   4.314   2.866  16.777 -0.0862 -0.2800  1.3314
 6265TIP3   OH240209   5.471   1.265   2.878  0.3600  0.2188 -0.2907
 6265TIP3    H140210   5.566   1.262   2.893  0.5419  3.5889 -0.4486
 6265TIP3    H240211   5.433   1.267   2.966  0.6194  2.4122 -0.2128
 6266TIP3   OH240212   4.863   5.193   1.979 -0.1507  0.3004  0.2799
 6266TIP3    H140213   4.816   5.274   2.001  0.7090  0.8354  0.1716
 6266TIP3    H240214   4.913   5.215   1.901  0.7393 -0.0848  0.7318
 6267TIP3   OH240215   5.922   5.948   0.597  1.0443 -0.1493  0.0382
 6267TIP3    H140216   5.980   5.878   0.626  1.0180 -0.3665 -0.4222
 6267TIP3    H240217   5.934   5.951   0.502 -0.3215 -0.7749 -0.1732
 6268TIP3   OH240218   6.481   1.490   5.239 -0.5246 -0.1790  0.4107
 6268TIP3    H140219   6.558   1.527   5.195 -0.6894 -0.1072  0.1843
 6268TIP3    H240220   6.429   1.566   5.263 -1.1973 -0.2888 -0.6619
 6269TIP3   OH240221   0.919   2.038   4.352  0.8373  0.1370  0.0109
 6269TIP3    H140222   0.939   2.082   4.270  2.2814 -2.6004 -1.1937
 6269TIP3    H240223   0.828   2.010   4.344  1.6884 -2.3118 -1.7979
 6270TIP3   OH240224   5.530   4.739   0.582 -0.1315  0.0840  0.0712
 6270TIP3    H140225   5.458   4.796   0.557  0.1665  0.1905 -0.5528
 6270TIP3    H240226   5.494   4.650   0.572  0.2235  0.1126 -1.4644
 6271TIP3   OH240227   5.533   3.170   5.877 -0.1582 -0.0815 -0.2882
 6271TIP3    H140228   5.511   3.237   5.811  0.4616 -0.3075 -0.7283
 6271TIP3    H240229   5.572   3.220   5.949  1.1772 -0.0599 -1.0134
 6272TIP3   OH240230   5.769   0.715   3.477  0.2064  0.2930 -0.2409
 6272TIP3    H140231   5.721   0.728   3.396 -2.9436  0.8019  1.6251
 6272TIP3    H240232   5.832   0.787   3.480  1.9681 -1.0145 -3.2550
 6273TIP3   OH240233   3.404   5.288   5.769  0.9419 -0.2466  0.0016
 6273TIP3    H140234   3.377   5.379   5.764 -0.1014 -0.3971  2.1341
 6273TIP3    H240235   3.322   5.239   5.772  1.4930 -1.2794 -1.2243
 6274TIP3   OH240236   6.785   4.229  16.959  0.1519  0.1607  0.0442
 6274TIP3    H140237   6.816   4.161  16.899  0.4495  0.8160 -0.5464
 6274TIP3    H240238   6.770   4.305  16.903 -1.2338  0.2686  0.5283
 6275TIP3   OH240239   4.262   0.817  14.994 -0.1211 -0.0786 -0.2751
 6275TIP3    H140240   4.351   0.781  14.991 -0.6305 -1.5480  1.3075
 6275TIP3    H240241   4.205   0.742  14.979 -1.1910  0.1695  2.3152
 6276TIP3   OH240242   2.797   3.176  11.562 -0.0638 -0.4612 -0.0857
 6276TIP3    H140243   2.738   3.250  11.555  1.2237  0.7733  1.7921
 6276TIP3    H240244   2.791   3.132  11.477 -1.7340  1.0869 -0.7842
 6277TIP3   OH240245   5.822   3.247   1.484  0.2716 -0.7561  0.3420
 6277TIP3    H140246   5.871   3.177   1.527 -1.2767 -1.6084  0.7543
 6277TIP3    H240247   5.767   3.203   1.419  0.0344  0.1814 -0.1114
 6278TIP3   OH240248   0.486   6.405  16.593 -0.2988 -0.3657  0.2668
 6278TIP3    H140249   0.502   6.435  16.682 -1.0440 -0.0605  0.2995
 6278TIP3    H240250   0.404   6.446  16.568 -0.9990 -1.8354  0.0728
 6279TIP3   OH240251   4.908   5.103  14.379 -0.0691 -0.1389  0.2593
 6279TIP3    H140252   4.822   5.098  14.421 -0.7612 -1.5818 -1.2491
 6279TIP3    H240253   4.955   5.025  14.411  0.2988  0.0890  0.2823
 6280TIP3   OH240254   2.961   3.721  13.625  0.3723 -0.6205  0.1180
 6280TIP3    H140255   2.872   3.713  13.657  0.2421  0.7054  0.1461
 6280TIP3    H240256   3.010   3.653  13.671 -0.0896  0.3526  2.1184
 6281TIP3   OH240257   6.221   3.801  12.358  0.9337  0.0412  0.4426
 6281TIP3    H140258   6.203   3.729  12.418 -0.5083 -0.4046 -0.4882
 6281TIP3    H240259   6.135   3.840  12.341  1.2127 -0.2027 -1.7595
 6282TIP3   OH240260   5.374   6.035   1.827 -0.1522 -0.1080  0.4557
 6282TIP3    H140261   5.309   5.964   1.827 -0.9696  0.5825 -2.6930
 6282TIP3    H240262   5.332   6.106   1.874 -0.3066 -0.8258  1.4258
 6283TIP3   OH240263   3.666   4.956   0.054 -0.5063 -0.0744  0.3636
 6283TIP3    H140264   3.587   4.902   0.054 -1.3390  1.1050  0.3889
 6283TIP3    H240265   3.637   5.039   0.015  0.4630  0.7389  1.3589
 6284TIP3   OH240266   1.277   2.769   0.416 -0.3447  0.1274 -0.0654
 6284TIP3    H140267   1.194   2.791   0.372  1.3367  4.1920 -1.3943
 6284TIP3    H240268   1.334   2.739   0.345 -0.2557 -1.5023  0.6731
 6285TIP3   OH240269   3.277   1.801  11.588 -0.0691  0.4095  0.0221
 6285TIP3    H140270   3.292   1.819  11.495 -1.8724  0.9461 -0.1819
 6285TIP3    H240271   3.364   1.777  11.621  0.9528  1.9744 -1.3909
 6286TIP3   OH240272   1.976   0.549   3.847  0.0605  0.1310 -0.3332
 6286TIP3    H140273   1.984   0.499   3.766  0.2360  0.7383 -0.6973
 6286TIP3    H240274   1.883   0.571   3.853 -0.3999 -2.0782  0.9511
 6287TIP3   OH240275   4.984   0.149   0.306 -0.5999 -0.1423  0.6023
 6287TIP3    H140276   5.006   0.171   0.215  0.4259  0.2547  0.9497
 6287TIP3    H240277   5.064   0.164   0.355 -0.8749 -1.2765  1.4288
 6288TIP3   OH240278   2.779   1.558   4.856 -0.1981  0.4309 -0.3679
 6288TIP3    H140279   2.801   1.647   4.884  0.9385  1.0327 -3.0322
 6288TIP3    H240280   2.851   1.504   4.891 -1.0005  0.4796  1.4334
 6289TIP3   OH240281   5.020   4.719  12.182 -0.1211  0.0532  0.5175
 6289TIP3    H140282   5.109   4.742  12.207  0.0146  0.3053 -0.1696
 6289TIP3    H240283   5.026   4.628  12.154 -0.1014  0.0335  0.5884
 6290TIP3   OH240284   6.021   5.603  12.839 -0.0771  0.2658 -0.4409
 6290TIP3    H140285   5.949   5.656  12.874  0.0140  1.1379 -1.5134
 6290TIP3    H240286   6.080   5.667  12.800  0.7959 -0.5274 -0.4207
 6291TIP3   OH240287   6.360   6.207   2.475 -0.0546 -0.5311 -0.4935
 6291TIP3    H140288   6.277   6.198   2.521 -0.1568  0.5283 -0.4702
 6291TIP3    H240289   6.414   6.261   2.533 -1.2095  3.4222 -2.9138
 6292TIP3   OH240290   2.160   6.161   4.772 -0.5079  0.4252 -0.2536
 6292TIP3    H140291   2.130   6.207   4.694 -0.5791 -2.5687 -2.0901
 6292TIP3    H240292   2.082   6.155   4.827 -0.8823  1.1073 -0.7002
 6293TIP3   OH240293   2.173   2.947  16.013 -0.5880 -0.2082 -0.4922
 6293TIP3    H140294   2.221   3.030  16.010 -0.0316 -0.5494 -1.4971
 6293TIP3    H240295   2.093   2.964  15.964 -2.5893  1.0179  3.1063
 6294TIP3   OH240296   4.093   0.433  12.519 -0.1791  0.0018  0.0635
 6294TIP3    H140297   4.057   0.346  12.535 -0.5784 -0.0420 -1.0504
 6294TIP3    H240298   4.026   0.494  12.551 -0.0242 -0.0933  0.5718
 6295TIP3   OH240299   2.092   0.648   4.464  0.5468 -0.2337 -0.1508
 6295TIP3    H140300   2.081   0.677   4.373 -1.5854  0.5065  0.3173
 6295TIP3    H240301   2.101   0.728   4.514  1.9971 -0.6535  0.2875
 6296TIP3   OH240302   6.555   2.418  11.161 -0.3531  0.2677 -0.5343
 6296TIP3    H140303   6.549   2.378  11.248 -0.3143  1.9920  0.2791
 6296TIP3    H240304   6.478   2.386  11.115 -0.6344 -0.2853  0.3015
 6297TIP3   OH240305   5.800   5.642   5.147 -0.4596 -0.2263 -0.5715
 6297TIP3    H140306   5.884   5.637   5.193 -1.1467 -2.1571  0.5300
 6297TIP3    H240307   5.823   5.661   5.056  1.2175 -1.5300 -0.4448
 6298TIP3   OH240308   5.064   0.706   5.083  0.0745  0.0309  0.3181
 6298TIP3    H140309   5.079   0.619   5.119  0.7186  0.1552  0.3520
 6298TIP3    H240310   5.034   0.690   4.993 -1.0779 -0.2638  0.7453
 6299TIP3   OH240311   0.311   0.912   2.946  0.3789  0.0019 -0.2556
 6299TIP3    H140312   0.219   0.926   2.922  0.9632  0.9125 -2.0670
 6299TIP3    H240313   0.313   0.919   3.041 -1.9769 -3.2686  0.1420
 6300TIP3   OH240314   0.973   3.443   5.055 -0.6632 -0.1122 -0.5534
 6300TIP3    H140315   0.950   3.409   5.142 -1.5781 -1.7232 -1.4092
 6300TIP3    H240316   0.893   3.486   5.025  0.2778  2.3063  0.2375
 6301TIP3   OH240317   0.111   3.325  15.874 -0.3638  0.3261 -0.2859
 6301TIP3    H140318   0.200   3.291  15.874  0.0111  1.2933  0.7278
 6301TIP3    H240319   0.097   3.354  15.783 -0.0207 -0.7502 -0.6918
 6302TIP3   OH240320   3.025   4.146  12.732 -0.0297 -0.0121  0.7768
 6302TIP3    H140321   3.054   4.055  12.738 -1.4705 -0.4746  0.8626
 6302TIP3    H240322   3.006   4.171  12.822  0.6447  0.4845  0.7906
 6303TIP3   OH240323   1.491   2.726  12.072 -0.3001 -0.2550  0.7296
 6303TIP3    H140324   1.579   2.695  12.093 -1.9855 -2.9652  4.2086
 6303TIP3    H240325   1.471   2.687  11.987  1.3731 -0.5806  0.4782
 6304TIP3   OH240326   6.092   5.901  15.397 -0.3097 -0.5518 -0.1096
 6304TIP3    H140327   6.166   5.932  15.345 -0.6421 -0.3478 -0.4696
 6304TIP3    H240328   6.101   5.944  15.482 -0.5491  0.2235 -0.4770
 6305TIP3   OH240329   6.547   0.011   3.446 -0.1840  0.3402 -0.0221
 6305TIP3    H140330   6.466   0.061   3.445  0.0104  0.7119  1.3729
 6305TIP3    H240331   6.530  -0.061   3.508 -0.5192 -1.4463 -2.1125
 6306TIP3   OH240332   6.032   2.430   5.280 -0.3174  0.3819 -0.1370
 6306TIP3    H140333   6.066   2.421   5.191  0.3269 -1.7895  0.2965
 6306TIP3    H240334   5.942   2.398   5.275 -0.0042 -0.5896  0.1342
 6307TIP3   OH240335   4.919   2.895  10.781  0.4116 -0.3659 -0.1246
 6307TIP3    H140336   4.917   2.809  10.823  0.6645 -0.4279 -0.2374
 6307TIP3    H240337   5.011   2.906  10.755 -0.0251 -0.9521 -1.9608
 6308TIP3   OH240338   5.541   4.031  16.427  0.2685  0.1911  0.3540
 6308TIP3    H140339   5.536   3.941  16.394  1.3574  0.6304 -1.0414
 6308TIP3    H240340   5.634   4.055  16.418  0.2105  1.0509  1.8207
 6309TIP3   OH240341   5.577   5.817   2.081  0.0997  0.3434 -0.5400
 6309TIP3    H140342   5.523   5.778   2.149  0.6207  1.6782  0.6814
 6309TIP3    H240343   5.549   5.774   2.000 -2.5767  0.7834  0.0872
 6310TIP3   OH240344   6.100   2.898   6.118 -0.1576  0.5690 -0.3908
 6310TIP3    H140345   6.045   2.960   6.071  3.8405  3.1265 -1.8985
 6310TIP3    H240346   6.126   2.944   6.198  2.0971  0.5855 -1.0871
 6311TIP3   OH240347   5.036   1.131   5.671  1.0366  0.7738 -0.0176
 6311TIP3    H140348   4.990   1.093   5.746  0.8488  1.8985  0.4446
 6311TIP3    H240349   5.005   1.081   5.596  2.3525 -1.3808  0.8145
 6312TIP3   OH240350   0.219   6.680  15.702 -0.3792  0.0897 -0.6379
 6312TIP3    H140351   0.138   6.727  15.722  1.3044  4.4324 -3.1554
 6312TIP3    H240352   0.201   6.636  15.619 -0.2522  0.8243 -1.0558
 6313TIP3   OH240353   3.229   1.661  13.303  0.1909  0.3409  0.1101
 6313TIP3    H140354   3.150   1.697  13.262  0.1050  0.0319 -0.0039
 6313TIP3    H240355   3.286   1.736  13.318  0.6135  0.3326 -1.4326
 6314TIP3   OH240356   6.279   6.450   5.103 -0.0054 -0.2656 -0.5006
 6314TIP3    H140357   6.215   6.381   5.120  1.4900 -1.2730  1.1686
 6314TIP3    H240358   6.362   6.404   5.094  0.7640  1.1781 -1.0167
 6315TIP3   OH240359   4.641   0.987   2.304  0.0322 -0.0414  0.0748
 6315TIP3    H140360   4.617   0.905   2.262  1.7671  0.6010 -2.2967
 6315TIP3    H240361   4.657   1.047   2.231  1.4468  1.6120  1.7025
 6316TIP3   OH240362   0.657   2.279  12.656  0.3097 -0.3804  0.4791
 6316TIP3    H140363   0.588   2.320  12.604  1.0642 -1.1816 -1.2013
 6316TIP3    H240364   0.706   2.226  12.593  2.8174  0.6228  1.5070
 6317TIP3   OH240365   3.440   2.926  15.604 -0.6145 -0.1856  0.1654
 6317TIP3    H140366   3.481   2.967  15.528  0.7218  0.5149  1.2188
 6317TIP3    H240367   3.427   2.835  15.579 -2.0312  0.4692 -1.5986
 6318TIP3   OH240368   5.956   6.354  13.173  0.4384 -0.3913  0.4498
 6318TIP3    H140369   6.029   6.414  13.163  0.5961 -0.7877 -0.9550
 6318TIP3    H240370   5.882   6.400  13.133 -0.2591  0.2720  2.4198
 6319TIP3   OH240371   6.670   5.768   0.959  0.5950  0.8213  0.3204
 6319TIP3    H140372   6.619   5.850   0.955 -0.0429  0.4554  0.8931
 6319TIP3    H240373   6.761   5.797   0.961  0.3327  1.6356  3.1660
 6320TIP3   OH240374   2.658   6.041  11.963  0.7832  0.0099  0.5982
 6320TIP3    H140375   2.587   5.997  11.916  1.7171 -1.1874  0.2958
 6320TIP3    H240376   2.693   5.975  12.022  2.6091  0.1334 -0.3006
 6321TIP3   OH240377   3.805   6.394  17.064  0.3347 -0.1627  0.6284
 6321TIP3    H140378   3.838   6.370  16.977 -1.7373  0.1374 -0.2630
 6321TIP3    H240379   3.712   6.373  17.061  0.2568 -0.2409  2.8318
 6322TIP3   OH240380   0.219   5.413   3.642  0.2210 -0.2750 -0.2397
 6322TIP3    H140381   0.212   5.384   3.551 -0.3296 -0.0097 -0.2866
 6322TIP3    H240382   0.129   5.408   3.675  0.2025  0.8342 -0.0875
 6323TIP3   OH240383   0.330   2.461  11.590  0.3292  0.2324  0.2779
 6323TIP3    H140384   0.302   2.540  11.544 -1.3483 -0.6595 -0.2504
 6323TIP3    H240385   0.426   2.467  11.591  0.2033  2.6550  0.9436
 6324TIP3   OH240386   1.050   5.050   2.066 -0.1164 -0.2971  0.3835
 6324TIP3    H140387   1.131   4.999   2.075 -0.2071 -0.7088 -1.0976
 6324TIP3    H240388   0.989   5.009   2.128  1.3119  1.0868  2.7802
 6325TIP3   OH240389   4.761   2.827   2.567  0.1864  0.2072  0.1883
 6325TIP3    H140390   4.755   2.921   2.547  0.8162  0.1295 -0.4022
 6325TIP3    H240391   4.671   2.801   2.587  0.0366  0.9759  0.5387
 6326TIP3   OH240392   1.873   2.486   4.200 -0.0114 -0.1237 -0.6876
 6326TIP3    H140393   1.893   2.411   4.144 -1.3190  0.0585 -1.4325
 6326TIP3    H240394   1.817   2.543   4.146  0.4089  1.0642  0.0901
 6327TIP3   OH240395   0.896   4.224  13.998 -0.6103  0.3387  0.0416
 6327TIP3    H140396   0.851   4.219  13.913 -0.9369  0.1092  0.2253
 6327TIP3    H240397   0.839   4.176  14.058  0.5001 -1.0235  0.0144
 6328TIP3   OH240398   1.215   6.427  12.253  0.2779  0.1505  0.2068
 6328TIP3    H140399   1.309   6.432  12.270  0.1391  0.5673  0.8344
 6328TIP3    H240400   1.204   6.342  12.210  0.7599 -0.4307  1.2296
 6329TIP3   OH240401   2.919   0.611  12.430  0.0679  0.0824  0.1198
 6329TIP3    H140402   2.853   0.550  12.398  0.6176 -0.4593  0.0130
 6329TIP3    H240403   2.907   0.610  12.525 -0.0894 -0.0047  0.1005
 6330TIP3   OH240404   5.802   3.773  12.144 -0.1276 -0.1472 -0.1372
 6330TIP3    H140405   5.718   3.785  12.186 -1.4088 -0.2800 -2.5563
 6330TIP3    H240406   5.789   3.804  12.054  3.1694  2.4585  0.1602
 6331TIP3   OH240407   1.571   2.281   1.848  0.5116 -0.1412  0.0943
 6331TIP3    H140408   1.666   2.278   1.844  0.6606  2.2107  1.0104
 6331TIP3    H240409   1.550   2.252   1.937  0.3641 -0.4872 -0.0504
 6332TIP3   OH240410   4.813   4.701   5.148  0.6045  0.3360  0.0358
 6332TIP3    H140411   4.868   4.624   5.136 -1.6062 -1.2157 -0.6513
 6332TIP3    H240412   4.799   4.735   5.059 -0.5892 -0.0938  0.0386
 6333TIP3   OH240413   6.441   2.434   3.249 -0.1992  0.8256  0.4523
 6333TIP3    H140414   6.391   2.490   3.190  1.6869  2.0449 -0.0085
 6333TIP3    H240415   6.473   2.363   3.193  0.2895  1.1486  0.3179
 6334TIP3   OH240416   0.530   2.177  16.779 -0.3700  0.3095 -0.2086
 6334TIP3    H140417   0.613   2.151  16.739 -0.1148 -0.4849  0.8165
 6334TIP3    H240418   0.549   2.260  16.823 -0.2262  0.3302 -0.3098
 6335TIP3   OH240419   2.082   0.896   5.684 -0.0056 -0.1948 -0.0083
 6335TIP3    H140420   1.996   0.861   5.707  1.5159 -2.8308  2.0357
 6335TIP3    H240421   2.106   0.849   5.604 -0.1990  0.0670 -0.2201
 6336TIP3   OH240422   5.652   2.809   3.275  0.1859 -0.0958  0.1744
 6336TIP3    H140423   5.698   2.767   3.348  1.1624  2.3847  1.0618
 6336TIP3    H240424   5.589   2.744   3.246  2.2685 -2.5169  0.8469
 6337TIP3   OH240425   5.196   3.025  17.220 -0.1640 -0.1685 -0.3073
 6337TIP3    H140426   5.107   2.994  17.236 -0.9245  2.9060  1.7517
 6337TIP3    H240427   5.185   3.113  17.184  2.0385  0.3944  0.2942
 6338TIP3   OH240428   1.336   1.057  12.243 -0.5395  0.1614 -0.5256
 6338TIP3    H140429   1.359   1.148  12.261 -0.5872 -0.0658  0.6782
 6338TIP3    H240430   1.283   1.061  12.163  0.4771  1.0624 -1.1736
 6339TIP3   OH240431   0.307   0.078  11.827 -0.0309  0.0709  0.6170
 6339TIP3    H140432   0.247   0.044  11.760 -0.3980 -0.9679  1.4547
 6339TIP3    H240433   0.383   0.110  11.778 -0.9623  0.7582 -0.4077
 6340TIP3   OH240434   6.468   6.062  13.320  0.1815 -0.2003 -0.0830
 6340TIP3    H140435   6.384   6.045  13.278 -0.2947 -0.9926  1.1662
 6340TIP3    H240436   6.454   6.140  13.373 -0.1702 -1.0944  1.1762
 6341TIP3   OH240437   0.091   4.451   4.372  0.4374 -0.0880  0.4890
 6341TIP3    H140438   0.151   4.435   4.445  1.9624 -0.9027 -0.9170
 6341TIP3    H240439   0.054   4.364   4.352 -0.0130  0.1414  0.3150
 6342TIP3   OH240440   6.491   6.539  10.728 -0.0471 -0.2929  0.0282
 6342TIP3    H140441   6.452   6.453  10.711 -0.5095  0.0341 -0.6047
 6342TIP3    H240442   6.418   6.600  10.719 -0.0751  0.0099  2.1405
 6343TIP3   OH240443   2.263   5.201   3.686 -0.4059 -0.2336  0.3959
 6343TIP3    H140444   2.247   5.251   3.605 -0.3477 -0.1072  0.4622
 6343TIP3    H240445   2.233   5.259   3.756 -0.4987 -0.3622  0.4621
 6344TIP3   OH240446   4.644   5.235  12.091  0.3030  0.5048 -0.2774
 6344TIP3    H140447   4.655   5.141  12.085 -0.4038  0.5686 -4.1760
 6344TIP3    H240448   4.590   5.248  12.169 -1.0554 -2.4744 -0.6459
 6345TIP3   OH240449   1.529   0.935   1.762  0.0166 -0.1663  0.0500
 6345TIP3    H140450   1.471   0.938   1.686  1.7304 -0.7851 -1.3232
 6345TIP3    H240451   1.515   0.848   1.799  0.5266 -0.5624 -0.6701
 6346TIP3   OH240452   4.022   2.233   0.684  0.5854  0.3347  0.3080
 6346TIP3    H140453   4.055   2.200   0.600 -0.0571 -1.6226  0.8096
 6346TIP3    H240454   3.980   2.158   0.725 -0.3262  1.6152  1.7921
 6347TIP3   OH240455   3.768   6.616   1.199  0.1090  0.8048  0.1376
 6347TIP3    H140456   3.739   6.706   1.189 -1.0221  0.5473  1.0653
 6347TIP3    H240457   3.752   6.575   1.114 -2.9727  0.4713  0.8325
 6348TIP3   OH240458   4.443   4.351   6.080 -0.1907 -0.4776 -0.0295
 6348TIP3    H140459   4.512   4.387   6.135 -0.3061 -0.5209  0.1431
 6348TIP3    H240460   4.367   4.342   6.138  0.1742 -2.0961  0.2246
 6349TIP3   OH240461   1.743   0.542   0.801 -0.3523 -0.6677 -0.6001
 6349TIP3    H140462   1.676   0.610   0.801 -0.8725 -1.1790  0.3112
 6349TIP3    H240463   1.799   0.564   0.876 -0.6503 -1.3629 -0.1667
 6350TIP3   OH240464   4.436   0.884   0.789  0.2943 -0.1292 -0.5644
 6350TIP3    H140465   4.471   0.970   0.813  0.8936 -0.4751 -0.1892
 6350TIP3    H240466   4.506   0.843   0.740  0.1873 -0.6003 -0.3207
 6351TIP3   OH240467   6.566   4.586   2.088  0.9375  0.8808 -0.2030
 6351TIP3    H140468   6.545   4.658   2.028 -2.4850 -0.1945 -0.4040
 6351TIP3    H240469   6.618   4.526   2.035 -0.3893  0.8736 -1.5477
 6352TIP3   OH240470   6.382   4.571   5.278 -0.4746  0.2018 -0.3391
 6352TIP3    H140471   6.436   4.516   5.222 -0.0372  0.9981 -0.7053
 6352TIP3    H240472   6.423   4.565   5.365 -0.4361 -0.0646 -0.3763
 6353TIP3   OH240473   2.470   0.234  15.002 -0.7530  0.0623 -0.3945
 6353TIP3    H140474   2.512   0.168  14.946  2.4141  0.1570  1.7549
 6353TIP3    H240475   2.397   0.187  15.043 -0.3955 -1.2324 -1.1940
 6354TIP3   OH240476   4.060   3.065  12.504 -0.2502  0.2187  0.4728
 6354TIP3    H140477   4.087   2.980  12.470 -1.7395 -0.2509  0.3898
 6354TIP3    H240478   4.082   3.127  12.436  0.2697 -0.1965  0.2622
 6355TIP3   OH240479   0.476   6.261  14.585 -0.0239  0.2013  0.1981
 6355TIP3    H140480   0.559   6.230  14.623 -0.1313 -0.6818 -0.2692
 6355TIP3    H240481   0.409   6.204  14.624 -0.2935  0.2332 -0.2151
 6356TIP3   OH240482   3.809   1.863   2.326  0.4190 -0.0687 -0.5012
 6356TIP3    H140483   3.854   1.851   2.243 -0.9339  1.9446 -1.5658
 6356TIP3    H240484   3.725   1.819   2.315 -0.0692  0.8409 -0.4771
 6357TIP3   OH240485   0.054   5.925   3.402  0.1789 -0.1756 -0.4949
 6357TIP3    H140486   0.067   5.954   3.492  0.0388 -0.6092 -0.3290
 6357TIP3    H240487   0.142   5.905   3.370  0.2863  0.5309 -0.6494
 6358TIP3   OH240488   5.434   2.095  11.596 -0.2948  0.0189  0.7301
 6358TIP3    H140489   5.439   2.037  11.520  0.3176  1.7109 -0.5462
 6358TIP3    H240490   5.342   2.122  11.600 -0.4006 -0.3446  0.8180
 6359TIP3   OH240491   3.675   4.845  16.860 -0.2349 -0.3260 -0.1821
 6359TIP3    H140492   3.614   4.858  16.787 -0.3862  1.1018  0.1736
 6359TIP3    H240493   3.702   4.934  16.884 -2.3701 -0.5247  3.3213
 6360TIP3   OH240494   5.869   4.005  14.146  0.2823 -0.6621  0.5307
 6360TIP3    H140495   5.864   3.935  14.081 -2.5224 -0.9110  0.9858
 6360TIP3    H240496   5.929   3.971  14.212  2.0305 -1.0028 -1.1584
 6361TIP3   OH240497   5.130   6.398  12.624 -0.7103 -0.1699  0.1560
 6361TIP3    H140498   5.054   6.456  12.634  1.4275  2.4155  1.9548
 6361TIP3    H240499   5.129   6.345  12.703 -0.2853  0.3190  0.4924
 6362TIP3   OH240500   0.944   1.385  15.494  0.1677 -0.2683 -0.5463
 6362TIP3    H140501   0.941   1.338  15.577 -1.0770  0.2404 -0.3005
 6362TIP3    H240502   1.018   1.446  15.504  0.6825 -0.9376 -0.2225
 6363TIP3   OH240503   2.166   6.483   4.955 -0.6408  1.0200 -0.2221
 6363TIP3    H140504   2.113   6.545   5.006  0.5402  2.2173 -0.4100
 6363TIP3    H240505   2.183   6.411   5.016 -3.8376 -0.2150 -0.6533
 6364TIP3   OH240506   4.933   4.048   3.056 -0.3308  0.3577 -0.6469
 6364TIP3    H140507   4.966   4.132   3.025  0.9186  0.5333  1.0927
 6364TIP3    H240508   4.917   4.061   3.149  0.8597 -1.6087 -0.1300
 6365TIP3   OH240509   6.031   0.495   0.268 -0.2629  0.2211  0.1935
 6365TIP3    H140510   5.936   0.504   0.278 -0.2430  2.4233 -1.1292
 6365TIP3    H240511   6.065   0.583   0.285  1.5383 -0.5273  0.5636
 6366TIP3   OH240512   2.415   2.335  12.380  0.5075  0.2109  0.3362
 6366TIP3    H140513   2.414   2.421  12.420  0.3035  0.6374 -0.5693
 6366TIP3    H240514   2.430   2.351  12.287 -1.1777 -0.6016 -0.1095
 6367TIP3   OH240515   5.120   2.372   1.835 -0.1484 -0.1848 -0.3963
 6367TIP3    H140516   5.093   2.439   1.772 -0.6571  0.2715  0.2989
 6367TIP3    H240517   5.049   2.308   1.834 -0.0714 -0.2714 -0.4042
 6368TIP3   OH240518   5.651   1.365  15.670  0.1229 -0.3102 -0.2622
 6368TIP3    H140519   5.609   1.416  15.601 -2.3601  0.6647  1.8764
 6368TIP3    H240520   5.660   1.426  15.743  0.9106 -1.8262  0.9392
 6369TIP3   OH240521   3.613   3.534  11.055  0.5207  0.3131  0.2438
 6369TIP3    H140522   3.639   3.527  10.964  0.5069  1.1830  0.1726
 6369TIP3    H240523   3.603   3.443  11.084  1.3934  0.0255 -0.3605
 6370TIP3   OH240524   6.570   3.405   1.802  0.0986 -0.3599  0.1861
 6370TIP3    H140525   6.579   3.494   1.767 -1.4752 -0.1677  0.2064
 6370TIP3    H240526   6.627   3.403   1.879 -0.2077  0.7856  0.4567
 6371TIP3   OH240527   4.897   1.425   2.532  0.2850 -0.0587 -0.6804
 6371TIP3    H140528   4.866   1.433   2.442 -0.2990 -0.2348 -0.4957
 6371TIP3    H240529   4.833   1.368   2.575  0.0326  0.8098  0.1055
 6372TIP3   OH240530   3.294   5.541  13.728  0.0916 -0.6589 -0.1880
 6372TIP3    H140531   3.320   5.617  13.676 -1.6949 -0.4728 -0.8208
 6372TIP3    H240532   3.334   5.556  13.814 -2.3985  2.3175  0.5043
 6373TIP3   OH240533   0.429   3.696   5.985 -0.5891  0.3851 -0.1539
 6373TIP3    H140534   0.516   3.693   5.946 -0.6207  0.3695 -0.2249
 6373TIP3    H240535   0.438   3.651   6.069 -1.1707 -2.2601 -1.4503
 6374TIP3   OH240536   6.053   2.955  13.858  0.1914  0.6731  0.4157
 6374TIP3    H140537   6.019   2.937  13.771 -0.3319 -0.9545  0.9478
 6374TIP3    H240538   5.999   3.027  13.891 -2.1360 -1.2675  0.8874
 6375TIP3   OH240539   3.336   1.093   2.594 -0.2846 -0.4054 -0.2407
 6375TIP3    H140540   3.353   1.011   2.640  0.4773 -0.6165 -0.8956
 6375TIP3    H240541   3.337   1.070   2.501 -1.0548  0.1640 -0.4058
 6376TIP3   OH240542   2.172   1.197   5.079  0.1461  0.2278  0.5678
 6376TIP3    H140543   2.098   1.192   5.140  0.5248  0.2648  1.0291
 6376TIP3    H240544   2.176   1.289   5.053 -0.3675  0.1110  0.0423
 6377TIP3   OH240545   6.754   2.981  14.970 -0.3317 -0.8124 -0.1579
 6377TIP3    H140546   6.826   2.986  15.033  0.1064 -1.5400 -0.5910
 6377TIP3    H240547   6.766   2.897  14.926 -0.1340  0.0368 -1.7927
 6378TIP3   OH240548   0.217   5.744   1.203  0.2265  0.1600  0.2908
 6378TIP3    H140549   0.165   5.672   1.238 -0.0078  0.2086  0.0465
 6378TIP3    H240550   0.201   5.817   1.263 -0.4564  0.3491 -0.1163
 6379TIP3   OH240551   4.765   5.220   5.658 -0.2946  0.1775 -0.7457
 6379TIP3    H140552   4.703   5.211   5.585 -1.5679  1.6140  0.1533
 6379TIP3    H240553   4.711   5.227   5.736  0.9682  1.9726  0.0060
 6380TIP3   OH240554   6.450   1.490   4.214 -0.0440 -0.4659 -0.1365
 6380TIP3    H140555   6.359   1.473   4.236  0.3908 -1.2723  1.0851
 6380TIP3    H240556   6.490   1.520   4.296  1.2005 -1.8469 -0.2010
 6381TIP3   OH240557   0.031   3.374   4.800 -0.0220  0.4550 -0.9567
 6381TIP3    H140558   0.094   3.391   4.730 -0.7367  0.9719 -1.4822
 6381TIP3    H240559   0.082   3.332   4.869  1.0062  1.3027 -1.1865
 6382TIP3   OH240560   5.208   5.755  16.487  0.4061 -0.2162 -0.7949
 6382TIP3    H140561   5.224   5.841  16.449 -0.8296 -0.2303 -1.3438
 6382TIP3    H240562   5.118   5.733  16.463  0.4338 -1.3063  0.0295
 6383TIP3   OH240563   2.598   6.372  14.166  0.1296 -0.1107 -0.3963
 6383TIP3    H140564   2.525   6.372  14.229  1.6932 -1.1796  1.4579
 6383TIP3    H240565   2.601   6.461  14.132 -0.9536  0.3851  0.7836
 6384TIP3   OH240566   4.047   1.573  16.634  0.6285  0.1955 -0.2090
 6384TIP3    H140567   3.990   1.502  16.604  0.0145  0.4100  0.4360
 6384TIP3    H240568   4.017   1.650  16.586  0.6955  0.2100 -0.2271
 6385TIP3   OH240569   0.110   3.955   2.294  0.4795  0.0463 -0.3745
 6385TIP3    H140570   0.128   3.954   2.388 -1.4068  0.6605  0.0131
 6385TIP3    H240571   0.195   3.939   2.253  1.6948  1.9130  1.3691
 6386TIP3   OH240572   3.264   1.336  14.019 -0.4934  0.0283 -0.2279
 6386TIP3    H140573   3.307   1.405  13.968 -0.0367 -0.9813 -1.2327
 6386TIP3    H240574   3.239   1.270  13.954  1.8854 -2.2104  1.0119
 6387TIP3   OH240575   4.147   0.822  12.944  0.5448  0.3570  0.5941
 6387TIP3    H140576   4.152   0.730  12.920  0.7307  0.6716 -0.5806
 6387TIP3    H240577   4.238   0.848  12.961  0.6416  0.6752 -0.4042
 6388TIP3   OH240578   1.338   6.009   1.240  0.1192 -0.0990 -0.0159
 6388TIP3    H140579   1.360   5.916   1.232 -0.6136 -0.3041  0.2565
 6388TIP3    H240580   1.250   6.009   1.277  0.3607  0.7184  0.5602
 6389TIP3   OH240581   2.573   4.634   4.127  0.1589  0.1146  0.1288
 6389TIP3    H140582   2.623   4.709   4.094 -1.3566  1.8217  1.6476
 6389TIP3    H240583   2.488   4.640   4.083 -0.0068 -0.6843  0.3265
 6390TIP3   OH240584   3.815   3.799  11.577  0.0964  0.3013 -0.3680
 6390TIP3    H140585   3.860   3.728  11.623  0.6268  0.9554  0.1413
 6390TIP3    H240586   3.812   3.870  11.641 -1.0595  0.5013 -0.6349
 6391TIP3   OH240587   0.941   5.741   2.286  0.1778  0.1452 -0.0132
 6391TIP3    H140588   0.921   5.735   2.380 -0.3074  0.1772 -0.1124
 6391TIP3    H240589   0.857   5.760   2.245  0.5682  1.1747 -0.3509
 6392TIP3   OH240590   4.479   1.650   3.822  0.1471 -0.3067  1.1020
 6392TIP3    H140591   4.477   1.561   3.857 -3.1199  0.6480  3.5676
 6392TIP3    H240592   4.571   1.676   3.828  0.9061 -2.9673  1.7328
 6393TIP3   OH240593   3.402   0.884   0.930  0.4781 -0.4210 -0.3326
 6393TIP3    H140594   3.451   0.837   0.863  1.3663  1.1700 -0.8274
 6393TIP3    H240595   3.330   0.926   0.882 -1.4029 -2.7366  0.3846
 6394TIP3   OH240596   0.446   0.185  15.303  0.1837  0.2134  0.0540
 6394TIP3    H140597   0.541   0.191  15.316  0.0387 -0.2297  1.3866
 6394TIP3    H240598   0.415   0.135  15.378 -1.3557  1.9284  0.5727
 6395TIP3   OH240599   6.003   2.178   4.819  0.5057 -0.5711 -0.0721
 6395TIP3    H140600   5.914   2.195   4.788  0.2615 -0.8786  0.4650
 6395TIP3    H240601   6.038   2.114   4.757  1.1405  1.2021 -1.6079
 6396TIP3   OH240602   4.566   6.521  12.571 -0.3081 -0.3083 -0.4089
 6396TIP3    H140603   4.487   6.468  12.560 -1.7135  1.6018  0.1318
 6396TIP3    H240604   4.570   6.537  12.665  0.9664 -0.7582 -0.3898
 6397TIP3   OH240605   4.472   5.746  11.364 -0.2651  0.9566 -0.3991
 6397TIP3    H140606   4.561   5.780  11.353  0.0290 -0.0723 -1.2380
 6397TIP3    H240607   4.467   5.671  11.305 -0.9025 -0.4518  1.3910
 6398TIP3   OH240608   2.961   6.332  13.348  0.2384 -0.1897  0.3477
 6398TIP3    H140609   2.913   6.386  13.410 -1.9850 -1.4274 -0.2557
 6398TIP3    H240610   3.025   6.285  13.401 -0.0518  0.5306  1.3439
 6399TIP3   OH240611   5.803   4.043   1.811  0.3993  0.3981 -0.5602
 6399TIP3    H140612   5.856   3.990   1.871 -0.8454 -0.0331  0.2043
 6399TIP3    H240613   5.842   4.130   1.815  0.4094  0.3533  0.8253
 6400TIP3   OH240614   4.395   6.229  16.316 -0.1047 -0.6460  0.2000
 6400TIP3    H140615   4.320   6.200  16.264  0.7223  1.5612 -2.3485
 6400TIP3    H240616   4.468   6.177  16.283 -0.1733 -1.6478  1.5696
 6401TIP3   OH240617   0.561   6.368  10.811  0.2483 -0.4863  0.6143
 6401TIP3    H140618   0.608   6.321  10.742 -0.4314 -0.6100  0.2246
 6401TIP3    H240619   0.518   6.441  10.766 -2.2501 -1.9978  0.4247
 6402TIP3   OH240620   1.357   0.655   4.300 -0.5780  0.5022 -0.5244
 6402TIP3    H140621   1.410   0.733   4.313  0.5320 -0.3410  0.0575
 6402TIP3    H240622   1.367   0.605   4.381 -0.1776 -0.8891 -1.4110
 6403TIP3   OH240623   1.801   6.255  12.538  0.5429 -0.2350 -0.2675
 6403TIP3    H140624   1.867   6.260  12.607 -0.5047  1.4032  0.6664
 6403TIP3    H240625   1.850   6.268  12.457  1.5547 -0.4650  0.2981
 6404TIP3   OH240626   0.035   1.507  12.092  0.0691 -0.1271 -0.3075
 6404TIP3    H140627  -0.032   1.465  12.038 -2.8800  0.1633  2.8926
 6404TIP3    H240628   0.025   1.600  12.074 -1.2446  0.0091  0.9881
 6405TIP3   OH240629   3.295   2.844  12.674 -0.3518 -0.0473 -0.1827
 6405TIP3    H140630   3.314   2.936  12.690 -0.2372 -0.0119 -0.5227
 6405TIP3    H240631   3.301   2.834  12.579 -1.4495 -0.1698 -0.2515
 6406TIP3   OH240632   2.189   5.685  17.036 -0.3415 -0.1371 -0.3104
 6406TIP3    H140633   2.170   5.728  17.119 -0.9578 -1.8676  0.4694
 6406TIP3    H240634   2.179   5.754  16.971 -0.6083  1.0621  0.9726
 6407TIP3   OH240635   0.384   5.862   6.027 -0.5126 -0.0511  0.1218
 6407TIP3    H140636   0.413   5.878   5.938 -2.4549  1.5134 -0.2771
 6407TIP3    H240637   0.446   5.911   6.082 -1.1425  1.5869 -0.5861
 6408TIP3   OH240638   3.328   4.885  13.152  0.3624 -0.3941 -0.2139
 6408TIP3    H140639   3.281   4.819  13.100  0.4601  0.3024 -1.2009
 6408TIP3    H240640   3.393   4.920  13.092  0.6989  0.1899  0.4924
 6409TIP3   OH240641   3.348   0.831   1.528 -0.7174  0.1771  0.3902
 6409TIP3    H140642   3.314   0.867   1.610  0.6676  0.1376  0.9964
 6409TIP3    H240643   3.435   0.797   1.551  0.1583  1.1821 -1.3348
 6410TIP3   OH240644   5.087   4.369   5.539 -0.7710  0.4040 -0.0411
 6410TIP3    H140645   5.041   4.285   5.535  0.6888 -0.4049 -0.0159
 6410TIP3    H240646   5.135   4.374   5.457 -1.7063  1.7203 -0.5184
 6411TIP3   OH240647   4.298   3.381  11.661 -0.4929  0.1137 -0.0288
 6411TIP3    H140648   4.357   3.453  11.685 -1.2479  0.2773  1.3646
 6411TIP3    H240649   4.308   3.373  11.566  1.2228  0.6267  0.0900
 6412TIP3   OH240650   3.538   4.769  13.512 -0.1172  0.0085 -0.3894
 6412TIP3    H140651   3.610   4.806  13.461  0.0265 -0.4255 -0.5044
 6412TIP3    H240652   3.494   4.709  13.453  0.9613 -1.6342  0.4235
 6413TIP3   OH240653   1.274   3.681   3.152  0.1228  0.2512  0.2347
 6413TIP3    H140654   1.345   3.628   3.116 -0.9627 -1.8461  1.1161
 6413TIP3    H240655   1.315   3.732   3.222  0.7840 -0.9271  0.7228
 6414TIP3   OH240656   5.493   4.302   0.776  0.1903  0.0140 -0.3479
 6414TIP3    H140657   5.556   4.251   0.726  0.3749 -0.2133  0.1126
 6414TIP3    H240658   5.540   4.329   0.855  0.0281  0.7136 -0.4837
 6415TIP3   OH240659   0.958   2.033   1.455  0.0962  0.2642 -0.3458
 6415TIP3    H140660   0.924   2.008   1.370 -0.0669 -0.3725 -0.0994
 6415TIP3    H240661   0.886   2.014   1.516 -0.5151  2.6127 -0.3191
 6416TIP3   OH240662   3.722   1.535   0.689  0.1729 -0.1624  0.2283
 6416TIP3    H140663   3.785   1.588   0.738  0.4652  0.0131 -0.3243
 6416TIP3    H240664   3.761   1.529   0.601  0.2928 -1.5304  0.3664
 6417TIP3   OH240665   3.167   5.224  13.431  0.6652 -0.4400 -0.5092
 6417TIP3    H140666   3.076   5.196  13.419  0.7215 -0.6979 -0.3517
 6417TIP3    H240667   3.171   5.254  13.522  0.3980  0.8961 -0.9314
 6418TIP3   OH240668   0.152   2.480   4.548  0.2053  0.3557 -0.2800
 6418TIP3    H140669   0.058   2.476   4.528  0.1244  1.0438 -0.0708
 6418TIP3    H240670   0.168   2.408   4.608 -0.2300  0.3428 -0.1788
 6419TIP3   OH240671   6.499   0.043   6.377  0.9060  0.6228 -0.6341
 6419TIP3    H140672   6.440  -0.015   6.427  2.4501 -0.8162 -0.4433
 6419TIP3    H240673   6.445   0.076   6.306 -0.2130 -0.4941 -0.3271
 6420TIP3   OH240674   2.547   6.755   0.877 -0.2073  0.4864 -0.0167
 6420TIP3    H140675   2.610   6.699   0.923 -1.5716 -0.2461  0.9967
 6420TIP3    H240676   2.570   6.744   0.784 -1.1919 -2.7997  0.0339
 6421TIP3   OH240677   1.992   3.886  16.563  0.1506 -0.4877 -0.4171
 6421TIP3    H140678   2.070   3.933  16.594  0.1841 -0.9187  0.1684
 6421TIP3    H240679   1.931   3.955  16.537  0.3185 -0.1263  0.1398
 6422TIP3   OH240680   5.455   6.179   2.628  0.3003  0.2413 -0.2511
 6422TIP3    H140681   5.540   6.162   2.669 -1.0277 -1.9500  1.7419
 6422TIP3    H240682   5.399   6.207   2.701 -1.3906 -1.0487 -1.0121
 6423TIP3   OH240683   2.397   6.099  13.053  1.1565 -0.3275  0.1245
 6423TIP3    H140684   2.467   6.044  13.089 -0.6484 -1.8377  1.4007
 6423TIP3    H240685   2.342   6.039  13.003  1.0494  0.9498 -1.3282
 6424TIP3   OH240686   6.749   0.345  16.082 -0.6918  0.3980  0.1436
 6424TIP3    H140687   6.840   0.316  16.084 -1.0643 -0.7772  0.7213
 6424TIP3    H240688   6.750   0.423  16.027  0.5598  0.0402 -0.3704
 6425TIP3   OH240689   3.198   4.774  12.541  0.2827  0.5491 -0.7270
 6425TIP3    H140690   3.129   4.753  12.604  0.3897 -0.6171 -0.9792
 6425TIP3    H240691   3.178   4.863  12.511 -0.9807  0.3042 -0.6426
 6426TIP3   OH240692   6.015   4.181   3.073  0.0499 -0.4811  0.1769
 6426TIP3    H140693   6.079   4.220   3.012 -2.0925 -1.4871 -2.8408
 6426TIP3    H240694   5.973   4.257   3.114 -0.0002  0.2938 -1.2539
 6427TIP3   OH240695   1.863   6.252  10.592  0.2355  0.0582 -0.1052
 6427TIP3    H140696   1.914   6.331  10.577 -0.8752  0.9149  0.5099
 6427TIP3    H240697   1.920   6.195  10.645  1.6366 -0.2365 -1.8797
 6428TIP3   OH240698   3.273   4.239   4.371  0.4959 -0.5717 -0.5680
 6428TIP3    H140699   3.245   4.157   4.332 -2.0309 -0.3636  0.6722
 6428TIP3    H240700   3.301   4.215   4.460  1.2630 -0.3060 -0.7312
 6429TIP3   OH240701   4.167   4.903  16.346  0.2077  0.4483  0.0513
 6429TIP3    H140702   4.090   4.851  16.328 -0.3605  1.5061 -0.6301
 6429TIP3    H240703   4.181   4.955  16.267  1.1908  0.7907  0.4302
 6430TIP3   OH240704   2.210   1.809   5.255  0.6741 -0.4604 -0.1294
 6430TIP3    H140705   2.160   1.798   5.336  1.3040 -1.2727  0.1576
 6430TIP3    H240706   2.286   1.861   5.281  0.1565  0.5023 -0.4995
 6431TIP3   OH240707   5.975   2.395  13.504  0.1399 -0.9575 -0.1558
 6431TIP3    H140708   5.905   2.334  13.529 -0.6810  0.2188  0.4650
 6431TIP3    H240709   5.939   2.482  13.524  1.8828 -0.3533  0.4065
 6432TIP3   OH240710   2.909   1.858   1.730 -0.4796  0.1660 -0.4452
 6432TIP3    H140711   2.992   1.814   1.749 -0.7149 -0.5727 -1.0951
 6432TIP3    H240712   2.853   1.836   1.804  0.4295  2.0411  0.8152
 6433TIP3   OH240713   5.572   3.793  11.253 -0.6129 -0.0647 -0.1592
 6433TIP3    H140714   5.542   3.733  11.184 -1.6172 -1.8726  1.7720
 6433TIP3    H240715   5.491   3.824  11.294 -0.0219  0.8476  0.3245
 6434TIP3   OH240716   6.379   5.900  12.630 -0.3029 -0.0889 -0.0667
 6434TIP3    H140717   6.377   5.989  12.663  0.0136 -0.5971  1.3606
 6434TIP3    H240718   6.472   5.880  12.620 -0.4071  0.4695 -2.4551
 6435TIP3   OH240719   1.768   3.780   4.833  1.1070 -0.0409 -0.4651
 6435TIP3    H140720   1.802   3.769   4.921 -0.7663 -2.0979  0.0339
 6435TIP3    H240721   1.757   3.875   4.823  2.3977  0.2881  1.0724
 6436TIP3   OH240722   4.739   4.974  12.159 -0.5800  0.4318  0.1674
 6436TIP3    H140723   4.734   4.878  12.164 -0.9868  0.5468  2.8730
 6436TIP3    H240724   4.736   5.002  12.250  2.2595  2.9042 -0.4233
 6437TIP3   OH240725   0.022   6.652   1.104  0.0219 -0.9453  0.1713
 6437TIP3    H140726   0.003   6.711   1.031 -0.6049 -0.2928  0.8559
 6437TIP3    H240727  -0.056   6.657   1.160  1.0355 -0.4058  1.5648
 6438TIP3   OH240728   5.254   4.235   0.101  0.0033  0.0494 -0.0847
 6438TIP3    H140729   5.329   4.176   0.096  0.0783  0.2699 -1.8187
 6438TIP3    H240730   5.288   4.314   0.143  0.3607 -0.4507  0.5614
 6439TIP3   OH240731   4.061   3.487   6.635  0.2358 -0.8056  0.0415
 6439TIP3    H140732   4.144   3.535   6.637 -0.2721  0.2291 -2.0751
 6439TIP3    H240733   4.086   3.396   6.651  1.7648 -0.4669 -0.2797
 6440TIP3   OH240734   4.437   2.260   1.598 -0.0532 -0.3734 -0.1767
 6440TIP3    H140735   4.434   2.188   1.535 -0.8511  0.0222 -0.5986
 6440TIP3    H240736   4.529   2.266   1.623  0.1068 -1.1894 -0.5455
 6441TIP3   OH240737   2.786   6.001   3.003 -0.5664 -0.0607  1.2056
 6441TIP3    H140738   2.756   5.918   2.967  0.3401 -0.2276  0.8085
 6441TIP3    H240739   2.881   6.000   2.989 -0.5246  0.9503  1.3819
 6442TIP3   OH240740   2.793   5.516  15.315 -0.6100 -0.1126  0.3742
 6442TIP3    H140741   2.844   5.479  15.243 -1.9839 -0.0511 -0.6444
 6442TIP3    H240742   2.859   5.554  15.373  0.6385 -1.7293  0.0680
 6443TIP3   OH240743   3.195   3.247  11.858  0.9523 -0.3783 -0.1605
 6443TIP3    H140744   3.157   3.258  11.771 -1.6104  0.9427  1.0862
 6443TIP3    H240745   3.267   3.310  11.861  0.4044  0.2908 -0.9465
 6444TIP3   OH240746   3.313   1.034   1.830 -0.7038  0.1758  0.4959
 6444TIP3    H140747   3.244   1.075   1.778 -1.3305  1.2747  2.1499
 6444TIP3    H240748   3.392   1.082   1.807 -0.5155 -0.9141 -1.2094
 6445TIP3   OH240749   3.087   0.358   4.230 -0.0830  0.1435  0.2375
 6445TIP3    H140750   3.113   0.405   4.151 -0.0502  0.2311  0.3004
 6445TIP3    H240751   3.093   0.423   4.300 -1.0358  0.3330  0.1583
 6446TIP3   OH240752   3.062   4.080   0.727 -0.1216 -0.0811  0.0212
 6446TIP3    H140753   3.041   4.169   0.699 -1.7470 -0.1981  0.7984
 6446TIP3    H240754   2.977   4.035   0.730  0.6948 -1.7357 -0.5987
 6447TIP3   OH240755   4.100   4.639  15.252  0.5776 -0.4656 -0.2390
 6447TIP3    H140756   4.118   4.725  15.214 -0.2275 -0.1397  0.1214
 6447TIP3    H240757   4.181   4.616  15.298  1.5014 -0.7704 -1.9300
 6448TIP3   OH240758   2.465   2.698   6.496 -0.4296 -0.1969  0.3117
 6448TIP3    H140759   2.538   2.723   6.438  0.5392  0.0654  1.6119
 6448TIP3    H240760   2.463   2.603   6.492 -0.8698 -0.1397 -0.7668
 6449TIP3   OH240761   4.038   0.841   6.072  0.4182  0.1159 -0.0099
 6449TIP3    H140762   4.009   0.910   6.132  0.7194 -1.6343  2.2164
 6449TIP3    H240763   4.119   0.874   6.034  0.8781  0.7664  1.4998
 6450TIP3   OH240764   3.813   0.582  15.307  0.2117 -0.2006  0.1720
 6450TIP3    H140765   3.807   0.504  15.253  0.9787  0.7703 -1.3704
 6450TIP3    H240766   3.875   0.558  15.376 -0.6941 -1.4208  0.5721
 6451TIP3   OH240767   4.578   5.701  12.427 -0.1383  0.0468 -0.2303
 6451TIP3    H140768   4.574   5.615  12.469  0.6152 -0.6082 -1.4683
 6451TIP3    H240769   4.489   5.717  12.397 -0.4247 -0.0087  0.5809
 6452TIP3   OH240770   4.249   2.249   3.367 -0.5446  0.1120 -0.5382
 6452TIP3    H140771   4.273   2.212   3.452 -0.4313 -0.4154 -0.7982
 6452TIP3    H240772   4.314   2.215   3.306  1.1176  2.8018 -0.3333
 6453TIP3   OH240773   0.281   2.025  11.518 -0.5612 -1.4305  0.1778
 6453TIP3    H140774   0.259   2.098  11.575 -0.1342 -1.5677  0.5130
 6453TIP3    H240775   0.245   2.050  11.433 -0.0844 -0.6641  0.2021
 6454TIP3   OH240776   4.934   4.249  13.571  0.2020 -0.8308 -0.2501
 6454TIP3    H140777   5.009   4.232  13.628  0.3770  2.4322  0.6170
 6454TIP3    H240778   4.859   4.253  13.630 -0.1412 -0.8131 -0.6862
 6455TIP3   OH240779   0.738   1.363   3.762  0.4813 -0.4518  0.2218
 6455TIP3    H140780   0.750   1.397   3.851  0.5188 -0.2395  0.1341
 6455TIP3    H240781   0.773   1.274   3.767  1.4341 -0.0851  0.1552
 6456TIP3   OH240782   4.639   4.718  16.540 -0.2050 -0.1520 -0.2818
 6456TIP3    H140783   4.634   4.624  16.524 -3.3670  0.0059 -0.4924
 6456TIP3    H240784   4.624   4.757  16.454 -2.4488  0.5598  0.4086
 6457TIP3   OH240785   6.256   2.127   1.258 -0.2439 -0.5568  0.4378
 6457TIP3    H140786   6.181   2.111   1.200 -0.3686 -3.0776  1.2133
 6457TIP3    H240787   6.221   2.182   1.328 -1.0461 -0.5959  0.0792
 6458TIP3   OH240788   5.848   4.037  15.431 -0.1917  0.1842 -0.3283
 6458TIP3    H140789   5.805   3.952  15.430  1.0147 -0.4510  0.4463
 6458TIP3    H240790   5.829   4.073  15.517  0.3449  0.1425 -0.1878
 6459TIP3   OH240791   3.605   3.737  13.116  0.2097 -0.4086 -0.0930
 6459TIP3    H140792   3.541   3.807  13.114 -0.4850 -1.0470 -0.5727
 6459TIP3    H240793   3.584   3.687  13.196  0.7209 -0.0562  0.2642
 6460TIP3   OH240794   2.338   0.244  11.787 -0.6871  0.3569 -0.3427
 6460TIP3    H140795   2.361   0.290  11.707 -1.2317  3.3903  1.1770
 6460TIP3    H240796   2.261   0.290  11.820 -0.3360 -0.6906  2.0401
 6461TIP3   OH240797   2.458   4.742   0.850 -0.3209  0.2787  0.4848
 6461TIP3    H140798   2.517   4.715   0.780 -1.8903  0.1854 -0.8218
 6461TIP3    H240799   2.399   4.804   0.808  0.0708  1.9056  2.2491
 6462TIP3   OH240800   0.923   3.569   5.373 -0.6078 -0.2637  0.2664
 6462TIP3    H140801   0.894   3.582   5.463  1.1731 -0.9014  0.9743
 6462TIP3    H240802   0.914   3.654   5.331  1.3349  0.7904  1.9101
 6463TIP3   OH240803   1.047   5.067   0.043 -0.0353 -0.2320  0.4311
 6463TIP3    H140804   1.083   5.080   0.131 -2.1920 -0.0407  1.3065
 6463TIP3    H240805   1.111   5.011  -0.001  2.3541  1.7522  1.2438
 6464TIP3   OH240806   5.386   2.367   2.937 -0.0585 -0.6607 -0.9666
 6464TIP3    H140807   5.398   2.412   2.854 -0.3111 -1.3977 -1.4143
 6464TIP3    H240808   5.330   2.292   2.915  1.1160 -1.7228 -0.4363
 6465TIP3   OH240809   0.001   2.884  11.556  0.4329 -0.5632 -0.1171
 6465TIP3    H140810  -0.029   2.895  11.646 -4.2631  0.8662 -1.7208
 6465TIP3    H240811  -0.023   2.794  11.533  3.8837 -1.7816  0.7495
 6466TIP3   OH240812   1.830   6.391   0.665 -0.1579  0.9454  0.0930
 6466TIP3    H140813   1.760   6.442   0.707 -0.7454 -0.0869  0.4054
 6466TIP3    H240814   1.911   6.429   0.699 -0.6119  0.3963  1.8846
 6467TIP3   OH240815   1.998   1.369  14.970 -0.6786 -0.1646  0.4271
 6467TIP3    H140816   2.006   1.300  14.904  0.1284  0.0975  0.2476
 6467TIP3    H240817   2.082   1.415  14.968 -1.7644  1.8280 -0.5625
 6468TIP3   OH240818   0.956   0.615  13.171 -0.7837  0.2571 -0.4596
 6468TIP3    H140819   0.969   0.642  13.080  0.8571 -0.5921 -0.5105
 6468TIP3    H240820   0.970   0.695  13.223 -0.9994  0.5880 -0.9158
 6469TIP3   OH240821   6.300   0.569   4.694 -0.1160 -0.6744  0.0578
 6469TIP3    H140822   6.327   0.650   4.652  0.8396 -0.2814  1.3958
 6469TIP3    H240823   6.382   0.526   4.719 -0.6246 -1.7896 -0.1329
 6470TIP3   OH240824   5.547   3.583   1.717 -0.6218 -0.3182 -0.0154
 6470TIP3    H140825   5.452   3.577   1.710 -0.5415 -1.0044 -0.6903
 6470TIP3    H240826   5.563   3.649   1.784 -1.5691  0.1661 -0.2643
 6471TIP3   OH240827   4.979   1.382   5.604  0.3744  0.3166 -0.0458
 6471TIP3    H140828   5.043   1.435   5.651  0.7422 -0.1582 -0.0022
 6471TIP3    H240829   4.997   1.292   5.632 -0.1345  0.1529 -0.2411
 6472TIP3   OH240830   1.494   5.046   0.125  0.2732 -0.3510 -0.5656
 6472TIP3    H140831   1.528   4.987   0.192 -1.2089 -2.1502 -1.3752
 6472TIP3    H240832   1.561   5.114   0.118  0.5402 -0.1752  2.6311
 6473TIP3   OH240833   6.633   0.834  15.190 -0.0630  0.3742 -0.1279
 6473TIP3    H140834   6.588   0.798  15.113  0.5969  0.6394 -0.6524
 6473TIP3    H240835   6.615   0.928  15.185 -0.3339  0.3405  0.2553
 6474TIP3   OH240836   6.343   3.634   5.295 -0.7060 -0.0744 -0.4584
 6474TIP3    H140837   6.352   3.715   5.245 -1.3810  1.2752  1.5539
 6474TIP3    H240838   6.369   3.565   5.234  1.7938  1.7973 -1.6084
 6475TIP3   OH240839   4.566   6.773  15.548 -0.0518  0.1941  0.9221
 6475TIP3    H140840   4.639   6.809  15.497 -0.4504  0.5560  0.6057
 6475TIP3    H240841   4.608   6.719  15.615  0.4903  0.0881  0.4986
 6476TIP3   OH240842   2.402   3.081  13.203  0.0496  0.0752  0.6547
 6476TIP3    H140843   2.414   3.141  13.276  1.2722 -0.1214  0.6258
 6476TIP3    H240844   2.466   3.110  13.137 -2.5128  1.5987 -1.2369
 6477TIP3   OH240845   2.123   3.918   4.473  0.4426  0.1890  0.3346
 6477TIP3    H140846   2.165   3.968   4.542  0.7993 -0.5526  0.6641
 6477TIP3    H240847   2.170   3.834   4.472  0.0049 -0.0554 -0.3529
 6478TIP3   OH240848   0.726   5.638  13.617  0.2660  0.0054 -0.2646
 6478TIP3    H140849   0.763   5.724  13.638  1.3852 -0.3016 -0.9161
 6478TIP3    H240850   0.650   5.631  13.673  0.7961  0.9635  0.6075
 6479TIP3   OH240851   3.322   3.312   5.302  0.2755  0.7340 -0.0063
 6479TIP3    H140852   3.325   3.373   5.376 -0.2879  1.2012 -0.3589
 6479TIP3    H240853   3.229   3.291   5.293  0.4559 -0.0659  0.0222
 6480TIP3   OH240854   4.121   3.753   4.706 -0.2084 -0.4361 -0.0771
 6480TIP3    H140855   4.040   3.740   4.754  0.6454 -1.2314  1.1641
 6480TIP3    H240856   4.182   3.689   4.742  1.1491  0.5191 -0.6010
 6481TIP3   OH240857   2.436   5.581  15.340 -0.0439  0.0513  0.0104
 6481TIP3    H140858   2.480   5.641  15.400 -1.7551  0.1055  1.2754
 6481TIP3    H240859   2.478   5.497  15.355  0.8865  0.4796 -0.1693
 6482TIP3   OH240860   5.264   3.884   4.059  0.7454  0.0526  0.1711
 6482TIP3    H140861   5.242   3.867   3.967  0.8156 -1.7069  0.4735
 6482TIP3    H240862   5.198   3.946   4.088  2.2092  2.6514 -1.7847
 6483TIP3   OH240863   2.162   3.713  13.534 -0.0042 -0.2021  0.2299
 6483TIP3    H140864   2.086   3.713  13.593 -0.6271  0.4739 -0.5554
 6483TIP3    H240865   2.127   3.679  13.451  0.9770 -1.6369  0.3792
 6484TIP3   OH240866   0.747   3.557   4.952 -0.1565 -0.5169 -0.2521
 6484TIP3    H140867   0.810   3.604   4.897  0.0672 -0.0917  0.3585
 6484TIP3    H240868   0.714   3.623   5.013  0.6119 -1.2862  1.0131
 6485TIP3   OH240869   1.514   2.301   1.563  0.1105 -0.2082  0.3405
 6485TIP3    H140870   1.507   2.282   1.657 -1.3576 -1.7440 -0.0616
 6485TIP3    H240871   1.451   2.371   1.548  1.6792  1.3613  0.8124
 6486TIP3   OH240872   5.367   3.464   2.305  0.6997  0.1279 -0.2645
 6486TIP3    H140873   5.348   3.521   2.230 -1.9620 -1.4201 -0.8373
 6486TIP3    H240874   5.349   3.517   2.382  0.5437  0.8130 -0.7752
 6487TIP3   OH240875   5.418   3.447   0.245 -0.1572 -0.1392  0.0458
 6487TIP3    H140876   5.333   3.465   0.285 -1.0913 -0.3646 -1.7953
 6487TIP3    H240877   5.434   3.523   0.188  0.1212 -0.8385 -0.8191
 6488TIP3   OH240878   5.220   1.636   4.486  0.3455 -0.3969 -0.2456
 6488TIP3    H140879   5.211   1.665   4.395 -0.4494 -0.2793 -0.1383
 6488TIP3    H240880   5.212   1.541   4.482 -0.4028 -0.3375 -0.2211
 6489TIP3   OH240881   0.351   2.791  14.770 -0.4003  0.3816 -0.3506
 6489TIP3    H140882   0.362   2.870  14.822  1.0127  0.6388 -1.0227
 6489TIP3    H240883   0.440   2.762  14.751 -0.8578 -2.5190  1.6190
 6490TIP3   OH240884   5.501   5.241   4.738 -0.1568  0.0654 -0.5691
 6490TIP3    H140885   5.551   5.207   4.812 -0.4943 -0.6443 -0.6604
 6490TIP3    H240886   5.540   5.327   4.721  0.8387 -0.3491 -0.4597
 6491TIP3   OH240887   2.823   5.847  16.703  0.1529  0.0864  0.2757
 6491TIP3    H140888   2.888   5.910  16.672 -0.0607 -0.8236 -2.0889
 6491TIP3    H240889   2.876   5.774  16.735  0.3424  0.4922  0.9064
 6492TIP3   OH240890   2.822   2.885  13.569  0.3839 -0.1936 -0.3661
 6492TIP3    H140891   2.809   2.854  13.480 -1.4309 -0.0584 -0.1778
 6492TIP3    H240892   2.733   2.898  13.603  1.0600  1.0199  1.0121
 6493TIP3   OH240893   4.510   0.362   4.907  0.0482 -0.4564  0.2043
 6493TIP3    H140894   4.578   0.390   4.969  0.2590  0.2465 -0.3454
 6493TIP3    H240895   4.534   0.401   4.824 -1.3789  0.3449  0.1409
 6494TIP3   OH240896   1.569   0.835  11.746  0.0579  0.0885 -0.3504
 6494TIP3    H140897   1.544   0.896  11.815  0.2840  0.8179 -0.9149
 6494TIP3    H240898   1.492   0.827  11.691 -0.5619 -1.4899  0.6851
 6495TIP3   OH240899   1.116   2.333  15.797 -0.5103  0.0635 -0.0268
 6495TIP3    H140900   1.040   2.354  15.851 -0.4908 -0.0264  0.0362
 6495TIP3    H240901   1.090   2.358  15.708 -1.4686 -2.0533 -0.3871
 6496TIP3   OH240902   1.221   5.394  15.488  0.2186  0.2145 -0.5666
 6496TIP3    H140903   1.259   5.355  15.567 -0.0926  1.1337  0.0373
 6496TIP3    H240904   1.133   5.358  15.483 -0.7661  2.3142  1.0715
 6497TIP3   OH240905   4.136   3.776   5.254  0.1847 -0.0568  0.7078
 6497TIP3    H140906   4.112   3.839   5.323 -1.3732  0.0645  0.0635
 6497TIP3    H240907   4.103   3.815   5.173  0.1791 -1.1792  0.1602
 6498TIP3   OH240908   6.692   4.182  14.424  0.0480  0.3273  0.6607
 6498TIP3    H140909   6.738   4.250  14.473 -1.3412  1.4217  0.4866
 6498TIP3    H240910   6.728   4.100  14.457  0.9055  1.1161  1.7158
 6499TIP3   OH240911   0.830   4.230   3.909  0.0339  0.2734  0.1836
 6499TIP3    H140912   0.766   4.291   3.945 -0.4899 -0.2942  0.2216
 6499TIP3    H240913   0.786   4.188   3.835  0.4970  0.1604 -0.0374
 6500TIP3   OH240914   4.438   6.103  15.457  0.2216 -0.5844  0.1385
 6500TIP3    H140915   4.476   6.105  15.369  1.1399 -0.3117  0.5352
 6500TIP3    H240916   4.369   6.037  15.452 -0.9358  0.6909 -1.2656
 6501TIP3   OH240917   4.154   2.763   5.591 -0.4271  0.4844  0.1415
 6501TIP3    H140918   4.082   2.700   5.591 -0.5339  0.6033 -0.6234
 6501TIP3    H240919   4.166   2.786   5.499 -0.1899  1.3552  0.3856
 6502TIP3   OH240920   4.383   0.325  12.194  0.3757  0.2502  0.4791
 6502TIP3    H140921   4.412   0.389  12.259 -0.5666  1.5008 -0.2924
 6502TIP3    H240922   4.319   0.270  12.240 -2.1170  2.6487  0.0159
 6503TIP3   OH240923   4.347   3.753  14.656 -0.0236 -0.0239  0.6794
 6503TIP3    H140924   4.306   3.690  14.715 -3.4068  1.4337 -0.0030
 6503TIP3    H240925   4.350   3.708  14.571 -1.6982  0.4009  0.3775
 6504TIP3   OH240926   4.877   4.062  16.456 -0.6311  0.4867  0.3435
 6504TIP3    H140927   4.797   4.055  16.404 -0.5721 -0.4058  0.3628
 6504TIP3    H240928   4.904   3.972  16.471  0.5239  0.7796  0.1127
 6505TIP3   OH240929   6.388   0.077  13.183 -0.6341  0.2159  0.3682
 6505TIP3    H140930   6.455   0.102  13.246 -0.5518 -0.6135  0.6196
 6505TIP3    H240931   6.352  -0.005  13.218 -1.4994  0.4501  0.0295
 6506TIP3   OH240932   4.808   2.915   0.030 -0.5078  0.2733  1.0814
 6506TIP3    H140933   4.880   2.853   0.021  0.7569  1.8681  0.0984
 6506TIP3    H240934   4.751   2.895  -0.044  0.2099  0.6939  0.4100
 6507TIP3   OH240935   4.187   6.624  16.688 -0.6199 -0.3539 -0.2519
 6507TIP3    H140936   4.112   6.621  16.628  0.2495 -0.8361 -1.3361
 6507TIP3    H240937   4.168   6.557  16.754 -0.5471 -1.3870 -1.2611
 6508TIP3   OH240938   5.110   4.159  16.837  0.2695 -0.4048  0.0910
 6508TIP3    H140939   5.125   4.253  16.822  1.3641 -0.4529  0.8568
 6508TIP3    H240940   5.125   4.147  16.931 -0.8765 -1.1649  0.1833
 6509TIP3   OH240941   2.822   2.021  12.575  0.0002 -0.1726 -0.2922
 6509TIP3    H140942   2.772   2.085  12.523  1.9355  0.4622 -1.4003
 6509TIP3    H240943   2.805   1.937  12.533 -2.1479 -0.3607  0.8659
 6510TIP3   OH240944   5.546   2.071   5.381 -0.4104  0.1661 -0.4416
 6510TIP3    H140945   5.555   2.166   5.378  1.0410  0.0199 -0.8298
 6510TIP3    H240946   5.626   2.037   5.341  0.5997 -1.2895  2.7041
 6511TIP3   OH240947   3.856   1.025  12.093 -0.4010 -0.0409  0.3069
 6511TIP3    H140948   3.878   0.932  12.086 -0.0067  0.0690  0.0596
 6511TIP3    H240949   3.780   1.037  12.037  0.0462 -0.0527 -0.3051
 6512TIP3   OH240950   6.070   5.831  17.032 -0.2114  0.4479  0.1717
 6512TIP3    H140951   6.027   5.799  16.953 -0.0388 -0.0723  0.2895
 6512TIP3    H240952   6.162   5.840  17.008  0.1714 -1.4713  0.8519
 6513TIP3   OH240953   2.702   3.699   0.471  0.1111  0.1633 -0.0154
 6513TIP3    H140954   2.651   3.646   0.409 -0.4437 -0.2515  0.7888
 6513TIP3    H240955   2.661   3.683   0.556  0.9098  0.6795  0.4746
 6514TIP3   OH240956   4.468   0.407   6.212 -0.0064  0.3345 -0.1174
 6514TIP3    H140957   4.448   0.409   6.119 -1.9982 -2.0122  0.2296
 6514TIP3    H240958   4.541   0.468   6.222  0.3541  0.4716 -3.2175
 6515TIP3   OH240959   4.005   6.387  15.748 -0.2477  0.2444  0.1330
 6515TIP3    H140960   4.076   6.436  15.707 -0.2259  0.6053  0.5907
 6515TIP3    H240961   4.024   6.296  15.729  1.0316  0.2484  1.3242
 6516TIP3   OH240962   0.113   6.487  16.503  0.4488 -0.2128  0.3612
 6516TIP3    H140963   0.125   6.433  16.425  0.5944 -0.7707  0.7611
 6516TIP3    H240964   0.081   6.425  16.569 -3.4223  0.9704 -0.2781
 6517TIP3   OH240965   0.056   5.301   6.633  0.0931  0.5506 -0.3192
 6517TIP3    H140966   0.016   5.318   6.548 -0.7778 -3.7482 -0.8638
 6517TIP3    H240967  -0.018   5.300   6.694  0.4765  1.4339  0.1841
 6518TIP3   OH240968   6.781   2.446  16.971 -0.1385 -0.4569  0.0286
 6518TIP3    H140969   6.693   2.464  16.936 -0.1505 -0.7392 -0.0900
 6518TIP3    H240970   6.766   2.416  17.061 -0.1418 -0.2078  0.1089
 6519TIP3   OH240971   2.353   2.814   4.259 -0.2926 -0.3060 -0.1698
 6519TIP3    H140972   2.365   2.843   4.169 -0.5001 -0.8494 -0.3774
 6519TIP3    H240973   2.298   2.881   4.299  1.3261  0.8852  0.0791
 6520TIP3   OH240974   4.315   1.689   5.515 -0.2601  0.0182 -0.1734
 6520TIP3    H140975   4.379   1.620   5.525 -0.2925 -0.3931 -2.4524
 6520TIP3    H240976   4.351   1.763   5.564  1.1659 -0.7181 -0.0845
 6521TIP3   OH240977   4.374   0.362   4.370 -0.0142  0.2154  0.0457
 6521TIP3    H140978   4.331   0.284   4.334  1.8777 -0.3432 -1.0738
 6521TIP3    H240979   4.463   0.359   4.335  0.2037  2.6987  0.2675
 6522TIP3   OH240980   1.695   2.568   1.725  0.2831  0.3211 -0.4712
 6522TIP3    H140981   1.715   2.615   1.805  0.0513  0.1393 -0.3070
 6522TIP3    H240982   1.719   2.628   1.655  1.4418  0.0976 -0.2817
 6523TIP3   OH240983   2.994   2.606   1.780 -0.6618  0.1530  0.2313
 6523TIP3    H140984   2.959   2.638   1.864 -1.9427  1.6054 -0.8224
 6523TIP3    H240985   2.929   2.542   1.750  0.2443 -1.0202  0.7642
 6524TIP3   OH240986   3.772   4.643  14.510 -0.1820  0.4770 -0.0013
 6524TIP3    H140987   3.731   4.633  14.595 -0.9208  2.7003 -0.0570
 6524TIP3    H240988   3.820   4.561  14.496  0.4961  0.3378  2.8372
 6525TIP3   OH240989   5.509   0.678   2.334 -0.5264 -0.6294  0.3866
 6525TIP3    H140990   5.439   0.729   2.293 -0.3379 -0.0207  0.8057
 6525TIP3    H240991   5.587   0.731   2.322 -0.1542 -1.2476  0.0372
 6526TIP3   OH240992   1.656   1.712   6.191  0.1471  0.4869  0.6456
 6526TIP3    H140993   1.591   1.709   6.261 -1.2040 -0.4257 -0.6091
 6526TIP3    H240994   1.735   1.675   6.230 -0.8640 -0.9186  1.4085
 6527TIP3   OH240995   3.490   0.279  16.990  0.2853  0.1236  0.2597
 6527TIP3    H140996   3.540   0.277  17.072  1.3815  0.6050 -0.3900
 6527TIP3    H240997   3.472   0.372  16.975  2.6366  0.3343 -1.5520
 6528TIP3   OH240998   1.336   0.820   2.758 -0.1253  0.1381 -0.2081
 6528TIP3    H140999   1.276   0.832   2.684 -0.6452  1.4051  0.4060
 6528TIP3    H241000   1.300   0.744   2.805 -0.7623  0.3598 -0.3279
 6529TIP3   OH241001   2.351   1.758   1.874 -0.1448 -0.6146  0.4128
 6529TIP3    H141002   2.342   1.812   1.796  0.5660  0.3413  0.9753
 6529TIP3    H241003   2.379   1.819   1.942 -0.6195 -1.4566  1.3828
 6530TIP3   OH241004   2.342   3.696   3.780  0.1961 -0.9073  0.3583
 6530TIP3    H141005   2.324   3.606   3.804  2.8077 -0.6620  3.4974
 6530TIP3    H241006   2.421   3.691   3.727  1.9891 -0.2652  2.8989
 6531TIP3   OH241007   1.033   4.245  15.570  0.5144 -0.2161 -0.4921
 6531TIP3    H141008   1.056   4.321  15.516  0.2091  0.4792  0.3359
 6531TIP3    H241009   1.072   4.265  15.656 -1.5896  0.1233  0.4101
 6532TIP3   OH241010   4.026   1.309   1.869  0.6143 -0.1121  0.0779
 6532TIP3    H141011   4.096   1.295   1.933  1.5687  0.0738 -0.9114
 6532TIP3    H241012   4.071   1.341   1.791 -0.4395 -1.2323 -1.0072
 6533TIP3   OH241013   3.000   0.619   4.059  0.1282 -0.7948 -0.6050
 6533TIP3    H141014   3.059   0.682   4.018 -0.9730  0.7949  0.1792
 6533TIP3    H241015   2.926   0.613   3.997  0.2975 -1.4137 -0.7435
 6534TIP3   OH241016   5.719   0.201   5.655  0.3598  0.3982 -0.2881
 6534TIP3    H141017   5.784   0.135   5.677  1.7710  1.0120 -2.4534
 6534TIP3    H241018   5.724   0.265   5.726  1.5388  0.0285 -0.0322
 6535TIP3   OH241019   1.825   6.156   1.120 -0.1837  0.1000 -0.3746
 6535TIP3    H141020   1.746   6.179   1.071 -1.7679  0.2916  2.1472
 6535TIP3    H241021   1.889   6.223   1.097 -1.2173  0.7245 -1.4173
 6536TIP3   OH241022   3.880   2.840   5.795 -0.1641 -0.2105 -0.0960
 6536TIP3    H141023   3.793   2.803   5.779 -0.5735  0.4909  0.4391
 6536TIP3    H241024   3.898   2.893   5.718  0.0470 -0.8311 -0.4745
 6537TIP3   OH241025   1.543   4.030  10.798 -0.4075 -0.1357 -0.1536
 6537TIP3    H141026   1.566   4.013  10.707  0.6148 -0.7087  0.2048
 6537TIP3    H241027   1.537   3.943  10.838  3.7331  0.2079  1.4220
 6538TIP3   OH241028   6.663   3.640   3.602  0.1472 -0.1400  0.0051
 6538TIP3    H141029   6.642   3.732   3.614 -0.0211 -0.4664  2.2747
 6538TIP3    H241030   6.604   3.611   3.532 -0.5439  1.1865  0.0289
 6539TIP3   OH241031   5.682   0.504  11.407  0.0657  0.8012 -0.3889
 6539TIP3    H141032   5.704   0.456  11.327 -0.0397  0.6061 -0.2996
 6539TIP3    H241033   5.712   0.448  11.478 -3.9815 -1.1884 -0.1185
 6540TIP3   OH241034   2.421   2.977   5.393  0.2895  0.2024 -0.7754
 6540TIP3    H141035   2.465   2.980   5.477 -0.9805 -1.8472 -0.0033
 6540TIP3    H241036   2.447   2.893   5.354 -0.0410  0.6024 -1.9037
 6541TIP3   OH241037   1.776   5.707   2.809  0.0090  0.4887  0.3987
 6541TIP3    H141038   1.771   5.702   2.904 -2.0972 -0.1454  0.2668
 6541TIP3    H241039   1.806   5.620   2.782  0.2670  0.5604  0.4482
 6542TIP3   OH241040   0.022   0.549  14.463  0.4682  0.0438  0.2759
 6542TIP3    H141041   0.109   0.515  14.483  0.8741  0.8098 -0.1383
 6542TIP3    H241042   0.032   0.591  14.377  0.4005  2.5556  1.4324
 6543TIP3   OH241043   3.331   3.365  14.815  0.1013 -0.5150 -0.4384
 6543TIP3    H141044   3.413   3.319  14.835 -0.4700 -0.9390  0.9669
 6543TIP3    H241045   3.342   3.451  14.853 -0.3538 -0.7816  0.2972
 6544TIP3   OH241046   1.966   5.433  11.274  0.5004 -0.6097 -0.4691
 6544TIP3    H141047   1.934   5.412  11.186 -0.5455 -1.7300  0.1577
 6544TIP3    H241048   1.924   5.368  11.330  0.3361  0.7547  1.0008
 6545TIP3   OH241049   2.476   3.626  13.690 -0.2532 -0.3548 -0.4369
 6545TIP3    H141050   2.416   3.698  13.710 -0.6811 -0.2639 -1.9192
 6545TIP3    H241051   2.422   3.547  13.699 -0.1963 -0.3746 -0.2794
 6546TIP3   OH241052   5.332   0.045   1.618 -0.2821 -0.1823 -0.5672
 6546TIP3    H141053   5.358  -0.000   1.697 -0.1611  0.9050  0.0215
 6546TIP3    H241054   5.399   0.112   1.605 -0.1156 -0.5625 -1.7764
 6547TIP3   OH241055   2.678   5.340   0.437  0.2270 -0.4917 -0.8558
 6547TIP3    H141056   2.717   5.427   0.424  0.1280 -0.7761 -3.4410
 6547TIP3    H241057   2.674   5.303   0.349  1.1281 -3.5057  0.3053
 6548TIP3   OH241058   3.185   3.927  10.680 -0.3991 -0.3971  0.4702
 6548TIP3    H141059   3.135   3.991  10.630  0.4397 -0.0237  0.1015
 6548TIP3    H241060   3.139   3.844  10.665 -0.5254 -0.1753 -0.3997
 6549TIP3   OH241061   5.037   2.967   5.748  0.3185 -0.0497 -0.0841
 6549TIP3    H141062   5.036   2.887   5.695  1.0549  1.0958 -1.8790
 6549TIP3    H241063   4.996   2.942   5.831  1.0970 -2.4510 -0.3851
 6550TIP3   OH241064   0.479   3.008  14.573  0.1214 -0.1700 -0.5112
 6550TIP3    H141065   0.572   2.988  14.570  0.1210 -0.0772 -1.4791
 6550TIP3    H241066   0.436   2.923  14.567  0.1482 -0.1909 -0.3921
 6551TIP3   OH241067   3.513   2.275  16.130 -0.5879 -0.6523 -0.3868
 6551TIP3    H141068   3.557   2.332  16.066 -0.3370  0.6053  0.8851
 6551TIP3    H241069   3.432   2.249  16.087 -0.4793  0.2779 -1.1756
 6552TIP3   OH241070   2.658   1.067   1.605 -0.7747  0.1623  0.6573
 6552TIP3    H141071   2.651   0.976   1.634 -0.7582 -0.3091 -0.7781
 6552TIP3    H241072   2.750   1.089   1.618 -0.0820 -1.0641 -1.9503
 6553TIP3   OH241073   2.574   5.313  15.356 -0.5265  0.0422  0.1190
 6553TIP3    H141074   2.623   5.310  15.439  0.8596  0.3533 -0.6821
 6553TIP3    H241075   2.635   5.282  15.290 -1.7926 -0.7026 -0.7332
 6554TIP3   OH241076   0.312   5.390   1.371  0.7235 -0.1970 -0.2054
 6554TIP3    H141077   0.300   5.370   1.278  1.0882  3.7464 -1.2104
 6554TIP3    H241078   0.240   5.450   1.392  2.3807  1.3463  1.2174
 6555TIP3   OH241079   3.308   3.473   0.293  0.0256 -0.3256  0.0762
 6555TIP3    H141080   3.387   3.494   0.342 -1.4852  0.4403  2.2614
 6555TIP3    H241081   3.243   3.453   0.360 -1.3453 -1.9914 -1.7221
 6556TIP3   OH241082   5.262   6.150  14.618 -0.3011 -0.3912  0.3161
 6556TIP3    H141083   5.236   6.082  14.681 -0.6384  0.8086  1.4832
 6556TIP3    H241084   5.352   6.127  14.595 -0.2576 -0.9834  1.0419
 6557TIP3   OH241085   0.497   4.621  14.558  0.0095  0.2310 -0.0758
 6557TIP3    H141086   0.527   4.660  14.639 -0.6062 -0.5255  0.5276
 6557TIP3    H241087   0.404   4.645  14.552  0.1927  0.7766 -0.8492
 6558TIP3   OH241088   3.340   4.432   2.786  0.0318 -0.0185 -0.9287
 6558TIP3    H141089   3.262   4.474   2.820 -0.8795 -2.7235  0.4917
 6558TIP3    H241090   3.383   4.499   2.732 -2.0911  2.1736  0.0503
 6559TIP3   OH241091   0.696   5.078  14.561  0.4418 -0.0462 -0.4794
 6559TIP3    H141092   0.766   5.040  14.613  0.7558  0.0346 -0.8426
 6559TIP3    H241093   0.673   5.011  14.497 -0.1110 -0.2378 -0.0881
 6560TIP3   OH241094   2.782   3.336   2.781 -0.4911 -1.0683 -0.3386
 6560TIP3    H141095   2.843   3.265   2.802  0.5913  0.4434  1.8794
 6560TIP3    H241096   2.754   3.370   2.866 -1.7941  0.4955 -1.3496
 6561TIP3   OH241097   6.551   4.401  16.433 -0.1551 -0.1944 -0.2295
 6561TIP3    H141098   6.528   4.309  16.450 -1.8666  0.1408 -0.6089
 6561TIP3    H241099   6.469   4.449  16.446  0.2268  1.0174 -2.0606
 6562TIP3   OH241100   5.363   3.018  16.271 -0.4911  0.2875 -0.1959
 6562TIP3    H141101   5.327   3.102  16.245  0.4629  1.1514  1.2109
 6562TIP3    H241102   5.454   3.021  16.244  0.3994  1.0262  2.6952
 6563TIP3   OH241103   4.185   1.158   0.019  0.3759  0.0796  0.2409
 6563TIP3    H141104   4.245   1.085   0.002 -0.0868 -0.1145 -0.5825
 6563TIP3    H241105   4.110   1.118   0.064  0.6969  0.2658  0.9533
 6564TIP3   OH241106   6.670   2.732  14.127  0.2114  0.0494 -0.4347
 6564TIP3    H141107   6.758   2.770  14.126  0.1061  0.2730 -1.4359
 6564TIP3    H241108   6.680   2.643  14.094  0.0097  0.1892 -0.8776
 6565TIP3   OH241109   3.984   6.472  15.337 -0.5409  0.9514 -0.0734
 6565TIP3    H141110   4.076   6.444  15.334 -0.1368  2.3045 -0.6716
 6565TIP3    H241111   3.945   6.435  15.257 -0.0436  1.9378 -0.7900
 6566TIP3   OH241112   3.174   6.521  13.235 -0.4270  0.0614  0.0128
 6566TIP3    H141113   3.170   6.606  13.278  0.7849 -0.7413  1.7446
 6566TIP3    H241114   3.086   6.485  13.242 -0.7733  0.8803 -0.1470
 6567TIP3   OH241115   5.569   1.656   2.553  0.0078 -0.2375  0.1098
 6567TIP3    H141116   5.545   1.684   2.464  0.8524  0.4621  0.0915
 6567TIP3    H241117   5.665   1.646   2.549 -0.1688 -2.2185  0.3819
 6568TIP3   OH241118   5.443   4.548   3.471 -0.1029 -0.3157 -0.3913
 6568TIP3    H141119   5.395   4.541   3.553  0.1900 -1.7576 -0.3206
 6568TIP3    H241120   5.379   4.580   3.407 -0.7783 -0.8343  0.0210
 6569TIP3   OH241121   6.407   5.200   5.257 -0.6901 -0.5454  0.1822
 6569TIP3    H141122   6.438   5.149   5.332 -1.6773  0.8086  1.5649
 6569TIP3    H241123   6.313   5.210   5.273 -0.5558  1.5091 -0.1345
 6570TIP3   OH241124   6.101   4.490   3.239  0.4542  0.2114  0.4843
 6570TIP3    H141125   6.042   4.555   3.199 -0.6543  0.1842  1.9969
 6570TIP3    H241126   6.182   4.497   3.189 -0.4339  1.1198 -0.8728
 6571TIP3   OH241127   5.432   4.450   3.157  0.2157 -0.2538  0.2665
 6571TIP3    H141128   5.494   4.467   3.228 -1.7743  1.1515  1.7089
 6571TIP3    H241129   5.486   4.446   3.078  1.7491  4.8356  0.9178
 6572TIP3   OH241130   1.734   4.622   0.086  0.0182 -0.1215 -0.0553
 6572TIP3    H141131   1.728   4.530   0.063  2.1041 -1.2445  3.5265
 6572TIP3    H241132   1.826   4.645   0.071  0.1484  0.5856  1.6427
 6573TIP3   OH241133   1.887   3.294   5.075 -0.2229 -0.4556 -0.3552
 6573TIP3    H141134   1.863   3.372   5.126  0.4667 -0.3181 -0.2389
 6573TIP3    H241135   1.945   3.328   5.007  0.1853 -0.8901 -0.2210
 6574TIP3   OH241136   1.247   6.269   1.403 -0.4466 -0.2274  0.1436
 6574TIP3    H141137   1.202   6.185   1.412 -1.1220  0.1476  0.2740
 6574TIP3    H241138   1.304   6.275   1.479 -0.1788 -0.7083 -0.0232
 6575TIP3   OH241139   2.749   2.299   3.485 -0.0943 -0.0416 -0.5155
 6575TIP3    H141140   2.689   2.352   3.535 -1.3729 -1.8308 -0.0928
 6575TIP3    H241141   2.832   2.304   3.532 -1.5153 -2.4675  2.3794
 6576TIP3   OH241142   4.628   0.347   1.743  0.1535 -0.1791 -0.3589
 6576TIP3    H141143   4.649   0.324   1.834  0.9466 -2.0423 -0.9865
 6576TIP3    H241144   4.575   0.274   1.712 -0.5042  0.6810 -1.2544
 6577TIP3   OH241145   1.007   0.827   4.402  0.1289 -0.1992 -0.2232
 6577TIP3    H141146   1.076   0.866   4.455 -2.3533  4.7978 -0.3021
 6577TIP3    H241147   1.038   0.836   4.312  0.4033 -0.2142 -0.1303
 6578TIP3   OH241148   6.000   0.341   1.904  0.2801  0.1510 -0.2796
 6578TIP3    H141149   5.971   0.250   1.908 -1.6179  0.7911  1.8059
 6578TIP3    H241150   5.933   0.385   1.852  1.1985  0.3490 -1.2949
 6579TIP3   OH241151   4.845   3.825   5.005 -0.5984  0.7989  0.4108
 6579TIP3    H141152   4.773   3.887   4.993 -0.1657  1.3169  0.4819
 6579TIP3    H241153   4.911   3.874   5.055 -0.9909 -0.2711  2.0405
 6580TIP3   OH241154   1.213   2.956  14.421  0.5686  0.4676  0.0800
 6580TIP3    H141155   1.176   2.895  14.486 -0.2697 -0.6339 -1.4088
 6580TIP3    H241156   1.306   2.961  14.444  0.5868 -1.1323  0.4314
 6581TIP3   OH241157   0.886   4.541   4.073 -0.1700 -0.0249 -0.4908
 6581TIP3    H141158   0.938   4.493   4.009  0.9445  2.0642 -1.2079
 6581TIP3    H241159   0.796   4.514   4.056  0.2569 -0.5449 -2.0200
 6582TIP3   OH241160   0.282   5.726   2.915 -0.2463 -0.7064  0.1664
 6582TIP3    H141161   0.200   5.774   2.930  0.0746 -0.1415  0.1562
 6582TIP3    H241162   0.310   5.754   2.828 -0.1188 -1.0142  0.1080
 6583TIP3   OH241163   2.741   5.416   6.029 -0.2233 -0.0425  0.1831
 6583TIP3    H141164   2.662   5.442   6.075 -0.8203 -1.1547 -0.2052
 6583TIP3    H241165   2.724   5.327   5.999  0.9462 -0.0809 -0.4165
 6584TIP3   OH241166   0.421   6.678  16.465  0.3513 -0.1259 -0.5997
 6584TIP3    H141167   0.329   6.705  16.461  0.5269  0.5976  0.0234
 6584TIP3    H241168   0.441   6.645  16.377 -0.8587 -1.4589 -0.3846
 6585TIP3   OH241169   1.593   5.439   0.505 -0.1143  0.1798  0.4357
 6585TIP3    H141170   1.659   5.468   0.569 -0.8077 -0.4791  1.4702
 6585TIP3    H241171   1.539   5.376   0.553 -1.7753  1.0334 -0.2514
 6586TIP3   OH241172   3.385   5.591  15.504  0.3280 -0.0663  0.0530
 6586TIP3    H141173   3.382   5.587  15.409  0.5071 -0.9025  0.0742
 6586TIP3    H241174   3.430   5.673  15.524  1.1013 -0.3227 -0.5998
 6587TIP3   OH241175   1.143   5.390  12.239  0.3432  0.3971  0.1318
 6587TIP3    H141176   1.069   5.347  12.195 -1.3020  1.4097  1.8074
 6587TIP3    H241177   1.158   5.469  12.187  0.5629 -0.0643 -0.5042
 6588TIP3   OH241178   1.638   0.845  16.824 -0.3222 -0.3544  0.1140
 6588TIP3    H141179   1.647   0.926  16.774  1.7781 -0.7822 -0.2477
 6588TIP3    H241180   1.720   0.839  16.874 -1.8353 -0.5882  2.6222
 6589TIP3   OH241181   0.218   5.085   1.119  0.4364 -0.1234 -0.2782
 6589TIP3    H141182   0.170   5.085   1.036 -0.3086 -0.3959  0.1475
 6589TIP3    H241183   0.275   5.161   1.114 -0.4335  0.5209 -0.5682
 6590TIP3   OH241184   3.799   6.264  12.577  0.1056  0.1846  0.2602
 6590TIP3    H141185   3.854   6.258  12.498  1.2801 -0.0573  1.0756
 6590TIP3    H241186   3.824   6.187  12.629 -2.2901 -0.8896 -0.1299
 6591TIP3   OH241187   3.830   3.264  12.381 -0.3768  0.7678 -0.4884
 6591TIP3    H141188   3.886   3.340  12.369  0.6635  0.2225  0.7909
 6591TIP3    H241189   3.780   3.284  12.460  1.1745 -0.6200  0.8717
 6592TIP3   OH241190   2.688   5.848   4.030 -0.6948  0.2263  0.0142
 6592TIP3    H141191   2.647   5.870   4.113  0.1435 -1.1037  0.8040
 6592TIP3    H241192   2.734   5.928   4.004  0.7206  0.0444  1.8520
 6593TIP3   OH241193   5.637   3.661   1.350 -0.0606 -0.0972  0.4099
 6593TIP3    H141194   5.564   3.600   1.364 -0.8268  0.5875 -0.5220
 6593TIP3    H241195   5.636   3.718   1.426 -1.9873  1.3899 -0.6764
 6594TIP3   OH241196   0.971   4.800  15.667  0.1063 -0.0188 -0.2873
 6594TIP3    H141197   1.006   4.844  15.744  0.9834 -0.5621 -0.3672
 6594TIP3    H241198   0.910   4.734  15.703 -1.6356  1.6126 -0.1963
 6595TIP3   OH241199   3.866   4.769  13.617  0.0982  0.2156 -0.5313
 6595TIP3    H141200   3.932   4.822  13.571 -0.1421  1.1843  0.2352
 6595TIP3    H241201   3.794   4.829  13.634 -0.4325 -0.5098 -0.1915
 6596TIP3   OH241202   6.274   5.124   4.304 -0.0550 -0.1059 -0.2812
 6596TIP3    H141203   6.253   5.121   4.398  2.0175  3.8472  0.3889
 6596TIP3    H241204   6.333   5.050   4.291 -0.0366 -0.4619  1.6215
 6597TIP3   OH241205   1.159   3.873   5.426  0.2961 -0.0427  0.1031
 6597TIP3    H141206   1.114   3.873   5.342  0.2482  1.2057  0.1185
 6597TIP3    H241207   1.100   3.918   5.486  1.1710  0.8609  0.3200
 6598TIP3   OH241208   3.721   4.294  16.988  0.0072 -0.0449  0.1754
 6598TIP3    H141209   3.705   4.387  16.976  1.8662  0.6222  2.6262
 6598TIP3    H241210   3.815   4.287  17.002 -0.1602 -2.2534  0.3890
 6599TIP3   OH241211   2.777   2.073  13.326 -0.2992 -0.3260  0.5827
 6599TIP3    H141212   2.757   2.166  13.326  0.0195 -0.2555  0.0366
 6599TIP3    H241213   2.806   2.055  13.236 -0.2297 -0.9189  0.7249
 6600TIP3   OH241214   1.928   5.879  12.123 -0.3933  0.4392 -0.3536
 6600TIP3    H141215   2.007   5.894  12.071  0.9015 -1.3658  1.0440
 6600TIP3    H241216   1.897   5.967  12.145  0.0701  1.1937 -2.5992
 6601TIP3   OH241217   5.508   4.604  13.732 -0.3794  0.3102 -0.2454
 6601TIP3    H141218   5.532   4.546  13.660  0.5217 -1.0910  1.1325
 6601TIP3    H241219   5.538   4.691  13.705 -0.8337 -0.0516 -1.9083
 6602TIP3   OH241220   4.491   4.482  12.765 -0.1737  0.2381  0.6750
 6602TIP3    H141221   4.558   4.529  12.715 -1.8303  0.6843 -1.1606
 6602TIP3    H241222   4.480   4.534  12.845  0.6434  0.9399  0.3382
 6603TIP3   OH241223   0.341   0.065   3.830 -0.1377  0.6947 -0.9389
 6603TIP3    H141224   0.358  -0.021   3.791  1.5396  0.9827 -0.8510
 6603TIP3    H241225   0.319   0.046   3.921  1.0025  0.4123 -0.7190
 6604TIP3   OH241226   1.923   6.559  15.506 -0.4583 -0.1304  0.5186
 6604TIP3    H141227   1.947   6.601  15.588 -0.4277  0.5519  0.1687
 6604TIP3    H241228   1.836   6.592  15.486 -0.4349 -0.2338  0.2379
 6605TIP3   OH241229   2.224   6.104   3.650 -0.1371  0.2501 -0.3613
 6605TIP3    H141230   2.292   6.041   3.625 -1.0517 -0.9232  0.0270
 6605TIP3    H241231   2.152   6.086   3.589  0.3880  2.4003 -1.6615
 6606TIP3   OH241232   6.226   3.221   1.389 -0.1129  0.4435  0.3907
 6606TIP3    H141233   6.146   3.176   1.360  0.6404 -0.5265 -0.2068
 6606TIP3    H241234   6.196   3.283   1.456 -1.0653 -1.4673  1.7765
 6607TIP3   OH241235   2.474   4.895   5.373 -0.1463  0.2121  0.2564
 6607TIP3    H141236   2.440   4.984   5.362  1.4981  0.9140  0.6864
 6607TIP3    H241237   2.458   4.875   5.465 -0.4566  0.0996  0.1758
 6608TIP3   OH241238   0.087   2.717  12.344  0.1024 -0.0310 -0.9806
 6608TIP3    H141239   0.070   2.811  12.344 -1.4610 -0.2918 -3.0077
 6608TIP3    H241240   0.018   2.680  12.290  0.6823 -2.3679 -0.1822
 6609TIP3   OH241241   0.704   4.602   4.562 -0.4344 -0.5125 -0.0451
 6609TIP3    H141242   0.687   4.574   4.472 -0.2620 -0.3319 -0.1343
 6609TIP3    H241243   0.682   4.695   4.563  2.2667  0.1770 -0.6371
 6610TIP3   OH241244   4.834   2.854   3.476  0.3795  0.0782  0.1201
 6610TIP3    H141245   4.869   2.922   3.533  1.0345  1.1517 -1.5608
 6610TIP3    H241246   4.907   2.831   3.418 -0.4975 -0.5051 -0.7615
 6611TIP3   OH241247   3.558   5.915  16.865  0.2386  0.6423  0.3579
 6611TIP3    H141248   3.505   5.880  16.936 -1.0821 -1.0435 -1.4165
 6611TIP3    H241249   3.644   5.875  16.878  0.0975  0.5926  1.1713
 6612TIP3   OH241250   1.699   0.058   0.758 -0.4070  0.3524  0.1491
 6612TIP3    H141251   1.723   0.142   0.796  1.2852 -1.2860  2.9256
 6612TIP3    H241252   1.609   0.070   0.728  0.1366  3.4115 -0.4238
 6613TIP3   OH241253   0.620   0.209   2.817 -0.1349 -0.1073  0.7259
 6613TIP3    H141254   0.538   0.248   2.848  0.3202  2.2496 -0.8720
 6613TIP3    H241255   0.592   0.136   2.762 -1.2069  0.9427 -0.1529
 6614TIP3   OH241256   0.956   4.735  13.950 -0.9005  0.0284  0.0310
 6614TIP3    H141257   1.007   4.658  13.974 -0.5759 -0.0198 -0.7770
 6614TIP3    H241258   0.907   4.708  13.872 -2.4303 -0.0293  1.0086
 6615TIP3   OH241259   6.255   4.713   3.103  0.2412  0.0896 -0.2552
 6615TIP3    H141260   6.163   4.735   3.117  0.2639  0.2843 -0.3994
 6615TIP3    H241261   6.255   4.661   3.023  0.4960  1.9243 -1.4646
 6616TIP3   OH241262   2.558   3.840   4.756 -0.3683  0.0384 -0.7240
 6616TIP3    H141263   2.534   3.932   4.744  0.5992  0.0142 -2.9332
 6616TIP3    H241264   2.564   3.830   4.851 -3.2395  1.5415 -0.3168
 6617TIP3   OH241265   0.736   2.099   2.870 -0.0348  0.2247 -0.2420
 6617TIP3    H141266   0.670   2.063   2.929  0.0395 -0.8712 -0.8256
 6617TIP3    H241267   0.820   2.077   2.910 -0.0016  0.7619 -0.0077
 6618TIP3   OH241268   3.900   5.220   0.939 -0.0197  0.0094 -0.2848
 6618TIP3    H141269   3.880   5.128   0.957 -3.1773  0.3860 -1.4759
 6618TIP3    H241270   3.932   5.220   0.849 -1.1469  0.1895 -0.6946
 6619TIP3   OH241271   3.384   5.015  16.289 -0.5918  0.0957 -0.0911
 6619TIP3    H141272   3.430   5.039  16.208 -0.4333  0.5383  0.1260
 6619TIP3    H241273   3.452   5.013  16.356 -0.4095 -2.1434 -0.3246
 6620TIP3   OH241274   6.440   2.643   1.719  0.1933 -0.4049 -0.0220
 6620TIP3    H141275   6.513   2.693   1.755 -0.2192  1.2307 -1.3482
 6620TIP3    H241276   6.442   2.560   1.765  2.5542 -0.1738  0.3563
 6621TIP3   OH241277   2.674   3.943   5.188  1.0780 -0.3650 -0.0601
 6621TIP3    H141278   2.741   3.971   5.125  0.3399  1.4052 -0.1041
 6621TIP3    H241279   2.684   3.848   5.193  3.6809 -0.1156  0.0619
 6622TIP3   OH241280   5.020   0.314   4.299  0.0813 -0.0424  0.1890
 6622TIP3    H141281   5.025   0.221   4.322 -1.3938 -0.0810  0.4272
 6622TIP3    H241282   4.936   0.323   4.255  1.1206  0.8006 -1.6933
 6623TIP3   OH241283   6.413   2.087  12.598  0.0315 -0.4221  0.2859
 6623TIP3    H141284   6.331   2.072  12.552 -0.2040  1.1361  0.1634
 6623TIP3    H241285   6.387   2.111  12.687  0.3963 -0.8334  0.5095
 6624TIP3   OH241286   3.131   4.098  15.082  0.2621 -0.2704  0.0524
 6624TIP3    H141287   3.115   4.033  15.013  0.5263 -0.2437 -0.0356
 6624TIP3    H241288   3.054   4.155  15.080 -0.2780 -0.9730  0.5691
 6625TIP3   OH241289   0.934   5.222  12.920  0.1182  0.1164  0.4267
 6625TIP3    H141290   0.991   5.247  12.847  0.9720 -1.2879  0.5873
 6625TIP3    H241291   0.871   5.294  12.927  1.0666  1.0750 -0.5984
 6626TIP3   OH241292   5.704   5.682  16.419 -0.3613  0.0938 -0.2563
 6626TIP3    H141293   5.637   5.676  16.486  1.0045 -1.0759  1.0271
 6626TIP3    H241294   5.681   5.614  16.355 -1.1605  0.6231 -0.5445
 6627TIP3   OH241295   5.016   0.018  10.604 -0.3097 -0.7097  0.4112
 6627TIP3    H141296   5.047   0.102  10.572 -2.4049 -0.3133 -0.6677
 6627TIP3    H241297   5.047   0.013  10.694 -0.3837  1.3325  0.5656
 6628TIP3   OH241298   4.107   6.656   2.132 -0.3052  0.2487 -0.7590
 6628TIP3    H141299   4.056   6.638   2.211 -2.0224 -1.0691 -2.1136
 6628TIP3    H241300   4.090   6.748   2.112 -1.8128 -0.0531 -0.9207
 6629TIP3   OH241301   6.569   3.078  14.183 -0.2752 -1.0529 -0.3154
 6629TIP3    H141302   6.600   3.023  14.256 -0.0492 -1.1397 -0.4740
 6629TIP3    H241303   6.516   3.018  14.130 -2.4958 -0.3893  1.0849
 6630TIP3   OH241304   2.711   1.539  13.298  0.0144 -0.2933 -0.8778
 6630TIP3    H141305   2.705   1.445  13.282 -2.1190 -0.2855 -0.2574
 6630TIP3    H241306   2.763   1.573  13.225 -0.1731 -1.7939 -1.7186
 6631TIP3   OH241307   4.879   3.562   0.957 -0.2663  0.0835 -0.3873
 6631TIP3    H141308   4.918   3.618   1.024 -1.6689 -0.0820  0.5822
 6631TIP3    H241309   4.835   3.492   1.006 -1.1641 -0.1345 -1.4823
 6632TIP3   OH241310   4.507   3.925   4.260  0.1179 -0.2033  0.7005
 6632TIP3    H141311   4.589   3.974   4.268  0.8413 -1.5463  1.6146
 6632TIP3    H241312   4.442   3.992   4.234  1.1243  1.1960  1.7103
 6633TIP3   OH241313   0.036   1.157   0.438 -0.0446  0.1915  0.2199
 6633TIP3    H141314   0.047   1.234   0.494  0.2995 -0.4446  1.0249
 6633TIP3    H241315   0.113   1.103   0.454  0.1520  0.0857 -1.0080
 6634TIP3   OH241316   4.554   5.104  17.205  0.2583 -0.2452  0.2484
 6634TIP3    H141317   4.545   5.058  17.289  2.1806 -0.8028  0.1532
 6634TIP3    H241318   4.554   5.197  17.229 -1.0028 -0.3357  0.6744
 6635TIP3   OH241319   3.278   2.110  11.545  0.0326 -0.1758  0.1686
 6635TIP3    H141320   3.218   2.158  11.601  1.1919  0.0914  1.1934
 6635TIP3    H241321   3.230   2.030  11.522 -1.6379  1.1374 -1.0004
 6636TIP3   OH241322   1.059   0.092  10.380 -0.1470 -0.4509 -0.6211
 6636TIP3    H141323   1.102   0.123  10.460 -0.6347  0.3030 -0.6494
 6636TIP3    H241324   1.021   0.007  10.405 -0.3135 -0.2119 -0.0532
 6637TIP3   OH241325   6.721   3.639   2.529 -0.7149  0.4662  0.0730
 6637TIP3    H141326   6.790   3.690   2.486 -1.1210  0.3574 -0.7120
 6637TIP3    H241327   6.708   3.563   2.472 -1.0917  0.1955  0.5170
 6638TIP3   OH241328   3.176   0.362  14.993  0.0569 -0.0973  0.6076
 6638TIP3    H141329   3.084   0.371  14.971  0.1216 -2.8271 -1.0362
 6638TIP3    H241330   3.212   0.306  14.923  2.8508  0.6030  1.4232
 6639TIP3   OH241331   3.760   4.418  12.617 -0.0678 -0.5194  0.0792
 6639TIP3    H141332   3.771   4.348  12.681  0.6415 -0.5914 -0.1114
 6639TIP3    H241333   3.667   4.416  12.594 -0.9468  1.3210  3.1920
 6640TIP3   OH241334   1.157   4.779   5.857 -0.3510  0.0953 -0.2353
 6640TIP3    H141335   1.074   4.824   5.839 -0.2813  0.7929  1.1528
 6640TIP3    H241336   1.138   4.687   5.838 -0.8002  0.5413 -2.0615
 6641TIP3   OH241337   5.386   3.023   3.286 -0.0462  0.7176 -0.4666
 6641TIP3    H141338   5.388   2.970   3.207 -0.5104  0.1906 -0.1224
 6641TIP3    H241339   5.419   3.109   3.258  0.2789  0.3816 -1.1149
 6642TIP3   OH241340   5.069   0.800   3.376 -0.6373  0.1473  0.6086
 6642TIP3    H141341   5.065   0.887   3.415 -0.2286 -0.0715  1.1444
 6642TIP3    H241342   5.106   0.744   3.444  1.9908  0.1601 -0.7524
 6643TIP3   OH241343   4.019   0.766   1.764 -0.3753 -0.4011  0.2741
 6643TIP3    H141344   3.943   0.709   1.775 -0.0971 -0.1586  4.3952
 6643TIP3    H241345   3.983   0.855   1.768 -0.0150 -0.2944  1.4945
 6644TIP3   OH241346   1.737   5.897   5.436 -0.2256 -0.2763  0.0513
 6644TIP3    H141347   1.646   5.868   5.430  0.1482 -1.5520  0.6054
 6644TIP3    H241348   1.785   5.821   5.465  1.0940  0.2915 -0.6088
 6645TIP3   OH241349   6.606   1.123   2.442 -0.5846 -0.3043  0.3214
 6645TIP3    H141350   6.559   1.073   2.510  0.7513 -0.3290  1.2376
 6645TIP3    H241351   6.668   1.177   2.490  0.4245 -0.3617 -0.8857
 6646TIP3   OH241352   5.476   0.984  14.335 -0.4014  0.4644  0.0717
 6646TIP3    H141353   5.449   0.925  14.406 -2.3218 -0.7013 -1.5772
 6646TIP3    H241354   5.536   0.932  14.282 -0.3477  0.7537 -0.1510
 6647TIP3   OH241355   0.050   5.541   4.244 -0.0968  0.1854 -0.1458
 6647TIP3    H141356   0.103   5.567   4.169  0.4719 -1.6149 -0.4086
 6647TIP3    H241357  -0.023   5.493   4.205  1.1525 -2.3445  0.5130
 6648TIP3   OH241358   6.621   5.564   5.804  0.0573 -0.4575  0.2981
 6648TIP3    H141359   6.574   5.578   5.886 -0.6652 -1.5224  0.0724
 6648TIP3    H241360   6.706   5.529   5.831  0.0473 -0.2179  0.6297
 6649TIP3   OH241361   6.114   0.707   4.932 -0.6646  0.1577  0.7875
 6649TIP3    H141362   6.113   0.646   4.859 -1.1380  1.0246  0.0613
 6649TIP3    H241363   6.207   0.713   4.957 -0.2164  1.4266 -1.0873
 6650TIP3   OH241364   0.049   0.050   0.417  0.2704 -0.4895  0.7952
 6650TIP3    H141365   0.130   0.103   0.417  0.1391 -0.2867  0.8817
 6650TIP3    H241366   0.062  -0.014   0.347  0.7443 -0.8203  1.1847
 6651TIP3   OH241367   2.985   5.335   5.810 -0.3530  0.2026 -0.4149
 6651TIP3    H141368   3.009   5.256   5.858 -0.3221  0.4501 -0.0229
 6651TIP3    H241369   2.890   5.335   5.809 -0.3769  0.9292  0.8702
 6652TIP3   OH241370   5.427   1.749  11.970 -0.0977  0.4240  0.0525
 6652TIP3    H141371   5.352   1.693  11.950 -1.0201  1.0172  1.7639
 6652TIP3    H241372   5.464   1.771  11.884 -0.6590 -1.5045 -0.7140
 6653TIP3   OH241373   1.626   2.414  12.155  0.5115 -0.0414  0.0054
 6653TIP3    H141374   1.581   2.474  12.214  1.6316  2.4378 -1.5927
 6653TIP3    H241375   1.694   2.467  12.114  0.0813 -1.8187 -3.1627
 6654TIP3   OH241376   5.562   1.878  13.814  0.4569 -0.0230 -0.0051
 6654TIP3    H141377   5.472   1.899  13.838  1.1351 -0.3233  3.0176
 6654TIP3    H241378   5.555   1.801  13.758 -1.0818 -0.8416  1.2852
 6655TIP3   OH241379   4.289   3.970  14.145  0.4572 -0.2674  0.0899
 6655TIP3    H141380   4.221   4.037  14.146 -0.0406 -0.7634 -0.5779
 6655TIP3    H241381   4.310   3.958  14.053  1.0104 -0.5547  0.2531
 6656TIP3   OH241382   4.500   0.943  12.567  0.4712 -0.0332 -0.0319
 6656TIP3    H141383   4.513   1.008  12.497  0.1407 -0.2635 -0.3093
 6656TIP3    H241384   4.415   0.904  12.548  0.4909 -0.2700  0.3628
 6657TIP3   OH241385   6.598   5.679   4.599  0.5807 -0.0114 -0.5292
 6657TIP3    H141386   6.534   5.723   4.656  0.6504  1.5545 -1.6283
 6657TIP3    H241387   6.680   5.684   4.648  0.2305 -0.4559  0.1138
 6658TIP3   OH241388   0.880   2.741  14.079  0.1145 -0.2807 -0.3254
 6658TIP3    H141389   0.793   2.753  14.118  0.7049  1.6583  0.4179
 6658TIP3    H241390   0.915   2.664  14.124 -0.7892 -0.4368  0.1366
 6659TIP3   OH241391   1.880   4.435  17.128  0.4086 -0.6510 -0.2643
 6659TIP3    H141392   1.947   4.367  17.120  1.5645  0.3969  0.3295
 6659TIP3    H241393   1.899   4.495  17.056  0.8250  0.2475  0.5865
 6660TIP3   OH241394   4.071   4.687   2.897 -0.0949 -0.1573 -0.5741
 6660TIP3    H141395   4.032   4.617   2.845  0.7466 -0.4756 -0.7776
 6660TIP3    H241396   4.113   4.641   2.971 -0.7825  0.2429  0.0698
 6661TIP3   OH241397   1.319   0.800   0.512 -0.2277 -0.4178 -0.3789
 6661TIP3    H141398   1.264   0.835   0.582 -1.2269 -0.4668 -1.1302
 6661TIP3    H241399   1.278   0.717   0.487  0.4139 -0.6539 -0.6720
 6662TIP3   OH241400   2.014   4.603   1.712 -0.1853  0.2021 -0.7330
 6662TIP3    H141401   1.944   4.638   1.657 -1.4896  1.4957  1.6420
 6662TIP3    H241402   1.988   4.626   1.801  1.3747 -2.6626  0.5361
 6663TIP3   OH241403   2.387   1.837  15.328 -0.0901  0.0384 -0.0960
 6663TIP3    H141404   2.462   1.892  15.350  1.1663 -0.8175 -2.1302
 6663TIP3    H241405   2.346   1.880  15.253  0.2283 -1.1600 -0.9701
 6664TIP3   OH241406   0.583   1.609  11.474 -0.5711 -0.3104  0.1861
 6664TIP3    H141407   0.566   1.692  11.520 -0.6463  0.2538 -0.8547
 6664TIP3    H241408   0.559   1.627  11.383 -0.5831 -1.4791 -0.0441
 6665TIP3   OH241409   4.613   0.613  13.979  0.1627  0.3351 -0.0425
 6665TIP3    H141410   4.562   0.692  13.997  0.9065  0.5028  1.4724
 6665TIP3    H241411   4.555   0.558  13.927 -1.6870  0.3813  1.9039
 6666TIP3   OH241412   4.766   2.642   2.924  0.0111  0.0016 -0.4798
 6666TIP3    H141413   4.800   2.628   2.835 -0.1420  1.2143 -0.7377
 6666TIP3    H241414   4.763   2.555   2.962  0.5024 -0.4820 -1.5182
 6667TIP3   OH241415   0.957   5.440   1.930 -0.1214  0.1827  0.3254
 6667TIP3    H141416   0.920   5.405   1.849  0.7078 -0.8810  0.3945
 6667TIP3    H241417   0.906   5.518   1.948  0.6618  1.2712 -2.0390
 6668TIP3   OH241418   5.335   1.989   5.237 -0.1443 -0.3774 -0.5318
 6668TIP3    H141419   5.295   1.957   5.318 -0.3283 -1.3204 -0.9909
 6668TIP3    H241420   5.416   2.031   5.266 -1.0525  0.8108  0.3133
 6669TIP3   OH241421   5.885   6.738   2.809  0.5750  0.5423  0.4016
 6669TIP3    H141422   5.815   6.677   2.832  1.6567 -0.0403  2.2783
 6669TIP3    H241423   5.859   6.821   2.849  0.1463  0.7481 -0.3116
 6670TIP3   OH241424   6.322   6.140   1.726  0.0041  0.3809  0.5257
 6670TIP3    H141425   6.323   6.202   1.799 -2.5109  1.5027 -0.3232
 6670TIP3    H241426   6.391   6.077   1.746 -0.7741  0.5501  3.9555
 6671TIP3   OH241427   4.696   5.715   3.682 -0.5108 -0.1580  0.0976
 6671TIP3    H141428   4.620   5.673   3.721 -1.2364  1.5128  0.5054
 6671TIP3    H241429   4.771   5.673   3.725 -1.2425 -0.5216  1.0348
 6672TIP3   OH241430   3.279   0.214  16.089  0.0846 -0.5810  0.1235
 6672TIP3    H141431   3.340   0.153  16.132  0.4614  0.5189  1.1651
 6672TIP3    H241432   3.292   0.297  16.135 -1.4401 -0.0670 -0.3607
 6673TIP3   OH241433   5.675   2.953  12.488 -0.1252  0.1798  0.0659
 6673TIP3    H141434   5.721   2.970  12.406 -1.1811  1.1364 -0.3408
 6673TIP3    H241435   5.631   3.035  12.509  0.8482  0.2400  2.0740
 6674TIP3   OH241436   1.506   5.743   1.206  0.6185  0.1551 -0.3232
 6674TIP3    H141437   1.450   5.668   1.188  0.6709 -0.0043  0.1604
 6674TIP3    H241438   1.587   5.705   1.240  0.3049  0.4606  0.7937
 6675TIP3   OH241439   6.340   6.692  14.983  0.1835  0.4638 -0.1429
 6675TIP3    H141440   6.296   6.686  15.067  0.7144 -1.2685  0.0277
 6675TIP3    H241441   6.389   6.775  14.988  1.5545 -0.4258  1.9123
 6676TIP3   OH241442   6.127   6.192  15.664 -0.0779  0.7258  0.0499
 6676TIP3    H141443   6.041   6.162  15.695  0.4184  0.9444  1.7083
 6676TIP3    H241444   6.114   6.285  15.646 -0.6496  0.3688 -1.4975
 6677TIP3   OH241445   5.803   3.780  14.848 -0.3991  0.0902  0.1189
 6677TIP3    H141446   5.820   3.868  14.883  0.5944 -0.1631  0.2912
 6677TIP3    H241447   5.731   3.746  14.901  0.9837 -0.2370  1.8360
 6678TIP3   OH241448   3.027   0.969   1.804  0.1283 -0.4194  0.0968
 6678TIP3    H141449   2.966   1.041   1.791 -0.2798 -0.6490  0.7096
 6678TIP3    H241450   3.082   0.995   1.877  0.2372 -0.5634  0.0686
 6679TIP3   OH241451   4.305   4.198   4.660 -0.1188  0.0306 -0.0829
 6679TIP3    H141452   4.323   4.247   4.740  1.5368 -0.6911  0.0132
 6679TIP3    H241453   4.331   4.257   4.589  1.3094 -0.4512  0.0165
 6680TIP3   OH241454   4.868   3.088  11.337 -0.2294 -0.1692  0.1618
 6680TIP3    H141455   4.831   3.044  11.414  0.8890  0.4308  1.0628
 6680TIP3    H241456   4.800   3.081  11.270 -1.2115 -0.7206  1.1975
 6681TIP3   OH241457   1.013   3.134  10.828  0.0080  0.4482  0.6072
 6681TIP3    H141458   1.062   3.211  10.858  1.8228 -0.4990  0.1516
 6681TIP3    H241459   1.033   3.128  10.735  0.8996 -1.3080  0.9000
 6682TIP3   OH241460   2.529   5.673  11.554  0.0630  0.5654  0.0445
 6682TIP3    H141461   2.593   5.663  11.625  0.0412  2.5337  0.3886
 6682TIP3    H241462   2.458   5.613  11.577  0.5735  0.3547  1.1020
 6683TIP3   OH241463   3.367   0.093  14.193 -0.6500  0.3531 -0.2012
 6683TIP3    H141464   3.445   0.096  14.138 -2.6756  0.3312 -3.1408
 6683TIP3    H241465   3.347   0.185  14.211  0.0839  0.3550  0.6611
 6684TIP3   OH241466   3.110   4.195   2.865  1.0563  0.2420  0.6020
 6684TIP3    H141467   3.167   4.252   2.814 -1.1670  0.3468 -1.8593
 6684TIP3    H241468   3.029   4.245   2.876 -0.9136 -2.3286 -1.5162
 6685TIP3   OH241469   0.182   4.792  13.366  0.5002  0.4816  0.6803
 6685TIP3    H141470   0.262   4.843  13.352  0.3529  0.8138  1.0555
 6685TIP3    H241471   0.186   4.723  13.299  0.2900  1.4740 -0.3725
 6686TIP3   OH241472   4.915   4.604  16.356 -0.2710  0.0107 -0.1042
 6686TIP3    H141473   4.822   4.583  16.357 -0.2445 -0.1276 -0.3500
 6686TIP3    H241474   4.958   4.521  16.377 -0.2173  0.1632  0.3955
 6687TIP3   OH241475   0.687   6.484  14.150  0.1902  0.3025 -0.5612
 6687TIP3    H141476   0.650   6.484  14.238  2.1362  1.9838  0.3000
 6687TIP3    H241477   0.772   6.441  14.160 -0.4530 -1.4019 -2.0597
 6688TIP3   OH241478   5.470   2.999  13.684  0.2431  0.3665  0.5121
 6688TIP3    H141479   5.390   2.946  13.685 -0.0741  0.8446  0.8920
 6688TIP3    H241480   5.439   3.087  13.660  0.9705  0.0417 -1.7723
 6689TIP3   OH241481   5.478   0.782  15.922  0.1176 -0.1872  0.9335
 6689TIP3    H141482   5.440   0.697  15.900 -0.4013 -0.2595  2.0679
 6689TIP3    H241483   5.564   0.782  15.881 -0.5495 -0.5883 -0.4862
 6690TIP3   OH241484   0.121   0.510   2.584 -0.5167  0.1304 -0.3528
 6690TIP3    H141485   0.127   0.426   2.629  0.7572 -0.0985 -0.9268
 6690TIP3    H241486   0.034   0.543   2.606  0.0502  0.0225  2.2638
 6691TIP3   OH241487   6.025   5.388  15.822 -0.3547 -0.1026 -0.0968
 6691TIP3    H141488   6.097   5.325  15.816 -0.3441 -0.2235  1.1985
 6691TIP3    H241489   6.019   5.425  15.734  0.7294 -0.7142 -0.4444
 6692TIP3   OH241490   2.400   4.409  16.282 -0.2511 -0.0823  0.3572
 6692TIP3    H141491   2.342   4.407  16.358 -1.2162 -1.3256 -0.3930
 6692TIP3    H241492   2.412   4.317  16.258 -1.0249  0.3418 -1.7889
 6693TIP3   OH241493   6.553   1.155   0.716  0.1150  0.2012 -0.4222
 6693TIP3    H141494   6.647   1.140   0.729  0.1282  1.8739  1.6253
 6693TIP3    H241495   6.512   1.121   0.795 -0.8394  1.0436 -0.5516
 6694TIP3   OH241496   6.373   2.666   6.527 -0.2210 -0.5129 -0.3400
 6694TIP3    H141497   6.455   2.628   6.559 -0.2919 -0.9545 -0.6817
 6694TIP3    H241498   6.312   2.656   6.599  0.4783  1.3491  0.5526
 6695TIP3   OH241499   4.272   2.826   3.844  0.1784  0.3381  0.1414
 6695TIP3    H141500   4.229   2.911   3.856  1.0941  0.7704  0.3351
 6695TIP3    H241501   4.310   2.831   3.756 -0.9428 -0.4005 -0.4170
 6696TIP3   OH241502   0.435   2.644   2.536 -0.4746  0.2312  0.1940
 6696TIP3    H141503   0.463   2.561   2.574 -1.4548  0.0502  0.5198
 6696TIP3    H241504   0.489   2.654   2.458 -0.6811 -0.9262 -0.1017
 6697TIP3   OH241505   4.823   1.712  15.600  0.1231 -0.2634  0.1731
 6697TIP3    H141506   4.865   1.765  15.667  1.3136  0.2903 -1.0037
 6697TIP3    H241507   4.830   1.622  15.633 -0.0824  0.0846  1.1973
 6698TIP3   OH241508   3.623   0.756  16.960 -0.4866 -0.2947 -0.0766
 6698TIP3    H141509   3.593   0.776  16.871 -0.5606  0.0881  0.0314
 6698TIP3    H241510   3.659   0.668  16.954  3.6728  1.4038 -1.5436
 6699TIP3   OH241511   5.513   1.420  16.970 -0.2375  0.5694 -0.1502
 6699TIP3    H141512   5.564   1.475  16.911 -1.4325 -0.6139 -2.3595
 6699TIP3    H241513   5.559   1.336  16.970 -2.1346 -0.5404 -2.2381
 6700TIP3   OH241514   2.164   3.822   2.408  0.5354 -0.3849  0.4286
 6700TIP3    H141515   2.220   3.816   2.330 -0.1470  0.9652 -0.1779
 6700TIP3    H241516   2.176   3.911   2.439 -0.8181 -0.2731  0.6560
 6701TIP3   OH241517   3.060   4.719   3.319 -0.0887  0.5824  0.5778
 6701TIP3    H141518   3.006   4.663   3.374  1.9562 -0.2588  1.7572
 6701TIP3    H241519   3.025   4.706   3.231 -0.6025 -1.3822  1.0524
 6702TIP3   OH241520   6.305   2.786   0.521  0.4577  0.0698 -0.1275
 6702TIP3    H141521   6.241   2.748   0.461  0.9717 -0.7117 -0.1774
 6702TIP3    H241522   6.346   2.712   0.564  2.0621  0.5126 -0.8462
 6703TIP3   OH241523   4.356   2.780  13.009  0.5270  0.5258  0.0980
 6703TIP3    H141524   4.348   2.825  13.093  1.3555  2.1290 -0.6763
 6703TIP3    H241525   4.304   2.832  12.948 -0.6963 -1.0562 -0.2316
 6704TIP3   OH241526   4.819   4.453   3.992 -0.1188 -0.0750  0.8565
 6704TIP3    H141527   4.795   4.389   3.926  0.6480  0.1207  0.3844
 6704TIP3    H241528   4.776   4.422   4.072 -0.8411 -0.4430  0.3296
 6705TIP3   OH241529   0.544   5.250   0.547 -0.4087 -0.4606  0.2475
 6705TIP3    H141530   0.463   5.299   0.537 -1.7162 -2.8151 -1.1972
 6705TIP3    H241531   0.577   5.240   0.458  0.3649 -1.3068  0.6276
 6706TIP3   OH241532   5.801   4.044  12.525  0.0225  0.1687 -0.1289
 6706TIP3    H141533   5.741   4.092  12.467  0.9947 -1.4202 -2.5712
 6706TIP3    H241534   5.744   3.991  12.581 -0.9820  2.6954  1.2793
 6707TIP3   OH241535   6.156   3.364  14.110 -0.3219 -0.1229  0.1622
 6707TIP3    H141536   6.171   3.429  14.180  1.5884  0.6806 -0.9644
 6707TIP3    H241537   6.240   3.320  14.100 -0.7417 -0.6112 -1.2627
 6708TIP3   OH241538   3.265   6.018  13.411 -0.4284 -0.2746 -0.1338
 6708TIP3    H141539   3.191   5.997  13.354  0.5587 -0.0592 -1.5304
 6708TIP3    H241540   3.255   5.961  13.487 -1.6968 -0.6531 -0.5836
 6709TIP3   OH241541   2.695   3.221  16.341  0.4660  0.3251  0.3867
 6709TIP3    H141542   2.781   3.198  16.304  0.7745 -0.0280  1.3226
 6709TIP3    H241543   2.696   3.185  16.430 -1.5119 -1.6498 -0.3349
 6710TIP3   OH241544   6.203   5.089   0.214 -0.0659 -0.0258 -0.2182
 6710TIP3    H141545   6.140   5.057   0.278 -0.2633  0.3662 -0.2155
 6710TIP3    H241546   6.254   5.011   0.189 -0.3584 -0.2858 -0.0056
 6711TIP3   OH241547   5.087   4.199   5.209 -0.4673  0.5447  0.2557
 6711TIP3    H141548   5.069   4.174   5.299  0.1966  1.6673  0.7120
 6711TIP3    H241549   5.099   4.116   5.163  0.3347 -0.0036  1.4388
 6712TIP3   OH241550   2.701   1.822   0.731 -0.2466 -0.3367  0.0492
 6712TIP3    H141551   2.702   1.886   0.659  1.9081 -1.3249 -0.8285
 6712TIP3    H241552   2.607   1.809   0.749 -0.7630  1.6535 -1.0153
 6713TIP3   OH241553   1.861   3.775   3.874  0.4085  0.0110 -0.5427
 6713TIP3    H141554   1.904   3.851   3.915 -1.5626  1.6484 -1.4395
 6713TIP3    H241555   1.856   3.710   3.944  0.3896  1.4241  0.8032
 6714TIP3   OH241556   4.846   6.495   3.338  0.5848  0.1982 -0.3809
 6714TIP3    H141557   4.774   6.432   3.335 -1.0797  2.1148 -3.1132
 6714TIP3    H241558   4.915   6.456   3.286  1.1568 -1.2008  1.4009
 6715TIP3   OH241559   0.222   0.850  12.322  0.1060 -0.5366 -0.5284
 6715TIP3    H141560   0.130   0.845  12.348 -0.0385  0.0023 -0.9244
 6715TIP3    H241561   0.221   0.847  12.227  0.3850  0.9898 -0.5977
 6716TIP3   OH241562   5.497   6.436  14.437 -0.2867 -0.0910  0.4316
 6716TIP3    H141563   5.526   6.502  14.500 -0.8189  0.0770  0.5033
 6716TIP3    H241564   5.438   6.379  14.487 -1.5922  0.6986 -0.1892
 6717TIP3   OH241565   3.556   2.405  14.405  0.1346  0.4991  0.1283
 6717TIP3    H141566   3.466   2.438  14.403  0.0941  0.3662 -0.2867
 6717TIP3    H241567   3.573   2.377  14.315 -0.5091 -2.4348  0.8822
 6718TIP3   OH241568   4.043   3.305   2.628  0.0382 -0.2690  0.3389
 6718TIP3    H141569   4.061   3.251   2.705 -2.3451 -0.1647  0.9955
 6718TIP3    H241570   4.101   3.381   2.638  1.5080 -1.4166  0.7467
 6719TIP3   OH241571   5.413   6.481  16.833  0.0198 -0.5041 -0.0248
 6719TIP3    H141572   5.337   6.486  16.775  0.4845 -0.0813 -0.6069
 6719TIP3    H241573   5.464   6.407  16.799  0.1683 -0.4116 -0.0041
 6720TIP3   OH241574   4.699   4.221  13.687 -0.2681  0.0502 -0.1126
 6720TIP3    H141575   4.755   4.190  13.759  0.2018 -0.4194 -0.6708
 6720TIP3    H241576   4.650   4.294  13.724  1.3109  0.9938  0.1633
 6721TIP3   OH241577   6.448   1.205   5.103 -0.4195 -0.2714 -0.6139
 6721TIP3    H141578   6.380   1.271   5.098 -0.8757 -0.7715 -1.1899
 6721TIP3    H241579   6.483   1.212   5.192  0.7025  1.8770 -1.1971
 6722TIP3   OH241580   1.177   3.004  10.581  1.0324 -0.2440 -0.1988
 6722TIP3    H141581   1.161   3.018  10.488 -0.5687 -1.7578 -0.1685
 6722TIP3    H241582   1.266   3.037  10.595  2.6123 -3.1312 -2.9683
 6723TIP3   OH241583   2.956   3.111   2.848  0.2066  0.0199 -0.7885
 6723TIP3    H141584   3.016   3.111   2.922  0.6597  3.0594 -1.1136
 6723TIP3    H241585   2.887   3.050   2.874  1.3531 -0.4373  1.3023
 6724TIP3   OH241586   3.151   5.643   2.068  0.2719 -0.1456  0.0172
 6724TIP3    H141587   3.100   5.723   2.082  0.4945  0.2277 -1.3006
 6724TIP3    H241588   3.110   5.601   1.992  1.1914 -0.4462 -0.3147
 6725TIP3   OH241589   1.688   2.511   3.862  0.4484 -0.0690 -0.1575
 6725TIP3    H141590   1.681   2.568   3.938 -0.4756 -0.5246  0.1021
 6725TIP3    H241591   1.779   2.518   3.835  0.3750  1.4061 -0.0310
 6726TIP3   OH241592   3.752   1.455  13.469 -0.7745  0.7007  0.7277
 6726TIP3    H141593   3.845   1.476  13.475 -0.7290  0.4560  0.8812
 6726TIP3    H241594   3.727   1.482  13.381  0.3209 -2.7199 -0.7113
 6727TIP3   OH241595   6.579   5.839   4.122  0.0235  0.1425  0.2639
 6727TIP3    H141596   6.644   5.789   4.072 -0.1253 -0.2533  0.4614
 6727TIP3    H241597   6.549   5.906   4.061 -0.8369 -0.9121 -0.5035
 6728TIP3   OH241598   1.028   1.612   1.432 -0.2298 -0.3889  0.3866
 6728TIP3    H141599   1.035   1.612   1.528  0.5104 -0.2071  0.3339
 6728TIP3    H241600   1.085   1.683   1.404 -1.4634  0.3985 -0.1291
 6729TIP3   OH241601   0.297   5.028  15.521  0.2113  0.2827 -0.4174
 6729TIP3    H141602   0.284   5.026  15.616 -0.6754  0.9224 -0.5230
 6729TIP3    H241603   0.378   4.978  15.507 -1.7320 -3.2232  0.2973
 6730TIP3   OH241604   5.896   4.111  11.090  0.2026 -0.5187 -0.6784
 6730TIP3    H141605   5.832   4.040  11.090 -0.1476 -0.2068  0.1362
 6730TIP3    H241606   5.882   4.156  11.007 -0.9693 -0.1643 -0.3006
 6731TIP3   OH241607   3.906   0.565   1.573 -0.1379 -0.2270  0.1520
 6731TIP3    H141608   3.840   0.536   1.510 -0.9552  0.6081  0.6218
 6731TIP3    H241609   3.856   0.585   1.652  0.9540 -1.9369  1.3120
 6732TIP3   OH241610   1.847   5.058   1.998  0.1423 -0.2564 -0.2278
 6732TIP3    H141611   1.870   5.136   2.048 -2.6560  2.3984 -2.8086
 6732TIP3    H241612   1.873   5.079   1.908  0.9672 -3.0527 -0.6961
 6733TIP3   OH241613   3.412   3.715   3.331 -0.0857 -0.2387 -0.0470
 6733TIP3    H141614   3.484   3.673   3.283  0.0792 -0.6012  0.5136
 6733TIP3    H241615   3.335   3.699   3.277  0.0005 -1.1506  0.1000
 6734TIP3   OH241616   0.805   5.568  15.558  0.0996  0.3059 -0.1771
 6734TIP3    H141617   0.862   5.588  15.483  1.0904 -0.7020  0.3045
 6734TIP3    H241618   0.746   5.500  15.525 -0.2100  0.6717 -0.3843
 6735TIP3   OH241619   3.602   2.512  13.428 -0.0375  0.2248  0.1348
 6735TIP3    H141620   3.682   2.459  13.428 -0.6513 -0.7766 -2.2041
 6735TIP3    H241621   3.632   2.600  13.407  0.4944 -0.1239 -0.6006
 6736TIP3   OH241622   1.427   0.416   4.961 -0.0183 -0.2294 -0.0909
 6736TIP3    H141623   1.509   0.369   4.974 -0.0643 -0.4278 -0.4885
 6736TIP3    H241624   1.448   0.507   4.978 -0.2435 -0.5558  2.0293
 6737TIP3   OH241625   6.506   3.188  15.908 -0.5955 -0.1042 -0.0215
 6737TIP3    H141626   6.525   3.247  15.836 -2.0360  0.6981  0.2379
 6737TIP3    H241627   6.589   3.179  15.955 -0.4724  2.1282  0.2408
 6738TIP3   OH241628   5.626   5.983   1.732 -0.8188  0.4652  0.1989
 6738TIP3    H141629   5.550   6.009   1.783 -0.6889  2.3754 -0.5451
 6738TIP3    H241630   5.677   6.063   1.720  0.6610 -0.5257 -0.4154
 6739TIP3   OH241631   3.762   1.509  12.929 -0.1464 -0.0964 -0.0669
 6739TIP3    H141632   3.686   1.567  12.928 -0.2933 -0.2841 -3.9150
 6739TIP3    H241633   3.836   1.565  12.909  0.7182 -0.0667  2.9035
 6740TIP3   OH241634   4.976   4.568   1.265  0.0427 -0.3041 -0.2641
 6740TIP3    H141635   4.906   4.578   1.200 -0.7159 -1.1251  0.4115
 6740TIP3    H241636   4.931   4.579   1.349  0.8219 -0.3313  0.1544
 6741TIP3   OH241637   1.665   5.822  16.501 -0.2838  0.0570  0.1040
 6741TIP3    H141638   1.679   5.780  16.416 -1.4504 -0.3986  0.1237
 6741TIP3    H241639   1.753   5.839  16.534  0.1858 -0.1348 -1.0085
 6742TIP3   OH241640   4.572   5.159   4.200 -0.0488  0.2339 -0.0856
 6742TIP3    H141641   4.563   5.221   4.272 -0.1010 -0.2196  0.2987
 6742TIP3    H241642   4.614   5.210   4.130 -0.1033  0.7045  0.2193
 6743TIP3   OH241643   1.472   5.630  13.323  0.3840  0.2216 -0.4212
 6743TIP3    H141644   1.549   5.613  13.269 -0.5257 -2.3502 -1.0203
 6743TIP3    H241645   1.407   5.566  13.292 -1.4617  1.3042  1.1024
 6744TIP3   OH241646   5.663   0.327   4.390  0.4616  0.1716  0.2232
 6744TIP3    H141647   5.729   0.259   4.407  0.5206 -0.2498 -1.5677
 6744TIP3    H241648   5.707   0.409   4.409  1.0733 -0.1831  0.3488
 6745TIP3   OH241649   2.705   0.662  15.324 -0.0889  0.4273  0.6175
 6745TIP3    H141650   2.782   0.704  15.361 -0.9636  3.5477 -0.9551
 6745TIP3    H241651   2.737   0.617  15.246  0.3358  0.8058  0.5720
 6746TIP3   OH241652   2.495   3.949   2.866 -0.4164  0.0191 -0.1693
 6746TIP3    H141653   2.405   3.983   2.867 -0.6762 -0.6234 -0.9023
 6746TIP3    H241654   2.515   3.932   2.958 -0.7111  1.0402  0.0855
 6747TIP3   OH241655   2.375   6.345  15.151 -0.1727 -0.1140 -0.5490
 6747TIP3    H141656   2.362   6.314  15.241 -0.8281 -0.5716 -0.7982
 6747TIP3    H241657   2.361   6.268  15.096 -0.6570  0.3563 -1.0992
 6748TIP3   OH241658   4.939   0.262   1.027  0.3477 -0.0089 -0.2914
 6748TIP3    H141659   4.960   0.351   1.056 -0.2257 -0.1257  0.5188
 6748TIP3    H241660   5.000   0.206   1.076  1.1138 -0.0152 -1.2548
 6749TIP3   OH241661   0.382   3.840  14.666 -0.0474  0.2435  0.1495
 6749TIP3    H141662   0.443   3.810  14.733 -0.3537 -1.2704 -0.2295
 6749TIP3    H241663   0.326   3.903  14.711  0.3540 -0.0373  1.0640
 6750TIP3   OH241664   4.950   5.176   6.007  0.3377 -0.1400 -0.1509
 6750TIP3    H141665   5.016   5.233   6.047 -0.9605  0.9795  0.4679
 6750TIP3    H241666   4.979   5.087   6.026  0.7951  0.3625  1.5650
 6751TIP3   OH241667   5.594   5.717  11.645  0.3593  0.8481 -0.3020
 6751TIP3    H141668   5.659   5.774  11.687  0.4459  1.7680 -1.6455
 6751TIP3    H241669   5.516   5.724  11.700  0.3199  2.4109 -0.5380
 6752TIP3   OH241670   2.609   3.469   5.165 -0.0698 -0.1296  0.2545
 6752TIP3    H141671   2.654   3.546   5.200 -0.0587  0.2295 -0.5452
 6752TIP3    H241672   2.523   3.501   5.138 -1.1240 -0.9799  2.5187
 6753TIP3   OH241673   4.250   5.636  15.797  0.6142  0.2516 -0.3944
 6753TIP3    H141674   4.242   5.641  15.892 -1.5441 -3.5896 -0.2711
 6753TIP3    H241675   4.207   5.715  15.765 -1.3316  0.0946  1.7241
 6754TIP3   OH241676   5.124   5.221   5.005  0.0971 -0.1004 -0.3567
 6754TIP3    H141677   5.042   5.233   4.957 -0.4360 -0.1809  0.4977
 6754TIP3    H241678   5.180   5.293   4.977 -0.9146  0.9923  0.3562
 6755TIP3   OH241679   4.096   4.720  12.400  0.3904  0.3643 -0.6811
 6755TIP3    H141680   4.042   4.751  12.473  1.0336 -0.6270  0.2291
 6755TIP3    H241681   4.050   4.751  12.322 -0.6501  0.8915  0.1190
 6756TIP3   OH241682   0.112   6.685   1.539 -0.6030 -0.2881  0.2834
 6756TIP3    H141683   0.123   6.761   1.483  1.4917 -0.6409  0.1943
 6756TIP3    H241684   0.087   6.614   1.479  4.2614 -1.3252 -0.6832
 6757TIP3   OH241685   5.494   1.238   4.695  0.2947  0.1940 -0.5212
 6757TIP3    H141686   5.509   1.155   4.740  1.6578  0.6183 -0.1616
 6757TIP3    H241687   5.404   1.232   4.663  0.5579 -1.6503 -0.9997
 6758TIP3   OH241688   4.836   1.934   2.589 -0.2636 -0.0147 -0.2547
 6758TIP3    H141689   4.885   1.985   2.654 -0.5845 -0.1011  0.0504
 6758TIP3    H241690   4.861   1.843   2.605  0.1288  0.0200 -0.6495
 6759TIP3   OH241691   1.428   2.219  15.236 -0.0870  0.1853  0.2507
 6759TIP3    H141692   1.512   2.174  15.242  0.1913  0.6309 -0.1842
 6759TIP3    H241693   1.419   2.240  15.143 -1.6554 -1.6660 -0.0348
 6760TIP3   OH241694   1.944   2.500  12.875  0.5205  0.5666 -0.4645
 6760TIP3    H141695   1.966   2.461  12.959 -0.9396  0.7938  0.0398
 6760TIP3    H241696   2.016   2.474  12.817  0.4480 -1.4158  0.2904
 6761TIP3   OH241697   2.708   4.685   3.552  0.1846  0.1946  0.0927
 6761TIP3    H141698   2.781   4.623   3.558  0.7434  0.8577  0.2611
 6761TIP3    H241699   2.727   4.738   3.475  0.4156  1.0309  0.7119
 6762TIP3   OH241700   5.183   2.269   4.286 -0.1642 -0.0900  0.8778
 6762TIP3    H141701   5.122   2.203   4.255 -0.0197 -0.3882  1.2199
 6762TIP3    H241702   5.228   2.227   4.360 -1.3154  1.0203  2.2239
 6763TIP3   OH241703   5.401   1.066  12.258  0.2385 -0.6792  0.5553
 6763TIP3    H141704   5.363   1.061  12.170  0.4672 -1.4139  0.5013
 6763TIP3    H241705   5.425   0.976  12.279 -2.0545 -0.9130  2.3527
 6764TIP3   OH241706   0.199   1.724  15.802  0.2606 -0.2336  0.3149
 6764TIP3    H141707   0.111   1.726  15.763  0.3860 -0.4861  0.0147
 6764TIP3    H241708   0.252   1.676  15.739  1.0175  1.3873 -0.3357
 6765TIP3   OH241709   3.737   3.658  15.002 -0.5542  0.1646  0.4750
 6765TIP3    H141710   3.796   3.705  14.942  0.3685 -1.2459  0.2211
 6765TIP3    H241711   3.720   3.575  14.957  2.1738 -2.0039  3.2071
 6766TIP3   OH241712   4.636   2.049   0.974 -0.3347 -0.1246  0.4627
 6766TIP3    H141713   4.626   2.058   1.068  1.4410 -1.9961  0.8497
 6766TIP3    H241714   4.708   1.988   0.962  0.0924  0.7897 -2.1220
 6767TIP3   OH241715   6.173   4.268  15.066  0.2868 -0.0397 -0.5932
 6767TIP3    H141716   6.227   4.321  15.007 -0.1112  0.5638 -0.4195
 6767TIP3    H241717   6.232   4.198  15.096  0.7418  0.1559 -1.0225
 6768TIP3   OH241718   6.218   4.224   4.545  0.3524  0.1922 -0.0959
 6768TIP3    H141719   6.148   4.238   4.481 -2.1359 -0.6159  2.3861
 6768TIP3    H241720   6.269   4.151   4.510  0.1617  0.9647 -2.0564
 6769TIP3   OH241721   2.795   4.705  14.409 -0.2613  0.6190  0.2715
 6769TIP3    H141722   2.779   4.644  14.481 -0.5024  0.4125  0.0398
 6769TIP3    H241723   2.751   4.786  14.435  1.6045  1.3004  1.4426
 6770TIP3   OH241724   5.305   3.315   3.209 -0.2586 -0.3496  0.6156
 6770TIP3    H141725   5.347   3.278   3.131 -0.6672 -0.7788  0.6017
 6770TIP3    H241726   5.222   3.350   3.177 -0.5784 -0.8328  0.9247
 6771TIP3   OH241727   5.667   5.684   3.696  0.4161  0.0552 -0.5812
 6771TIP3    H141728   5.664   5.589   3.685 -0.1376 -0.1265  1.0325
 6771TIP3    H241729   5.580   5.708   3.726  1.6923  0.5203  3.0382
 6772TIP3   OH241730   4.812   3.868  17.195 -0.0859  0.3978 -0.3644
 6772TIP3    H141731   4.875   3.937  17.213  0.0354  0.4511 -1.0052
 6772TIP3    H241732   4.735   3.892  17.247  0.9868 -0.5326  1.7328
 6773TIP3   OH241733   3.244   5.363  15.256  0.1068 -0.0245 -0.1275
 6773TIP3    H141734   3.304   5.329  15.189  3.2548  2.2474  1.3857
 6773TIP3    H241735   3.252   5.302  15.329  1.7726  1.0423  0.6182
 6774TIP3   OH241736   2.044   5.134   4.308  0.2935  0.3677  0.5167
 6774TIP3    H141737   1.978   5.123   4.239  1.0344 -1.4290  0.0593
 6774TIP3    H241738   2.035   5.225   4.335 -1.8744  0.3688 -0.0556
 6775TIP3   OH241739   1.907   3.047   2.403  0.5435  0.4013  0.1521
 6775TIP3    H141740   1.998   3.043   2.431  1.2370  0.0399 -2.0305
 6775TIP3    H241741   1.880   2.955   2.398  1.4860  0.2353 -3.4718
 6776TIP3   OH241742   1.033   5.251  12.591  0.4133 -0.0435 -0.0964
 6776TIP3    H141743   0.969   5.233  12.522 -1.0068  1.0647  0.9239
 6776TIP3    H241744   1.054   5.165  12.628 -1.3989 -0.2887  0.3749
 6777TIP3   OH241745   2.545   6.320  10.837 -0.2656  0.2853 -0.1441
 6777TIP3    H141746   2.596   6.377  10.896 -1.1542 -0.2042  1.1141
 6777TIP3    H241747   2.597   6.241  10.829 -0.6617 -0.0835  0.8758
 6778TIP3   OH241748   0.485   3.684  15.712 -0.6799 -0.6159 -0.2699
 6778TIP3    H141749   0.485   3.716  15.802 -0.9292 -4.7729  1.3202
 6778TIP3    H241750   0.563   3.725  15.673  0.7877 -0.5676  2.5344
 6779TIP3   OH241751   3.849   0.594   5.400 -0.7387 -0.2987 -0.1864
 6779TIP3    H141752   3.900   0.547   5.334 -0.0743 -0.5698  0.5149
 6779TIP3    H241753   3.907   0.598   5.476 -1.9462 -1.0067  0.7620
 6780TIP3   OH241754   2.997   1.197   5.008 -0.0588 -0.2466 -0.3377
 6780TIP3    H141755   2.979   1.249   4.930  0.3799  0.3771 -0.0369
 6780TIP3    H241756   3.086   1.224   5.034  0.2184 -1.2341 -0.2434
 6781TIP3   OH241757   0.799   2.304   3.488  0.7731 -0.2367  0.1460
 6781TIP3    H141758   0.736   2.245   3.529  1.1849  0.5211  1.9012
 6781TIP3    H241759   0.824   2.260   3.407 -0.8742 -1.2428  0.1626
 6782TIP3   OH241760   2.605   6.162   0.791 -0.0198  0.8736 -0.0434
 6782TIP3    H141761   2.653   6.115   0.859  0.0050  0.6255 -0.2319
 6782TIP3    H241762   2.563   6.234   0.837 -0.6541  0.2459  0.3661
 6783TIP3   OH241763   0.982   2.883  13.196  0.0026 -0.5728  0.3260
 6783TIP3    H141764   1.056   2.896  13.255  0.9989 -0.9463 -0.8143
 6783TIP3    H241765   0.942   2.970  13.188 -0.5772 -0.6592  2.0854
 6784TIP3   OH241766   0.722   2.709  12.499  0.3437 -0.5328  0.1348
 6784TIP3    H141767   0.722   2.801  12.527  0.5821 -0.2490 -0.7597
 6784TIP3    H241768   0.640   2.699  12.451  0.7928 -0.5037 -0.6526
 6785TIP3   OH241769   0.112   3.634   4.891  0.1666 -0.1300 -0.2232
 6785TIP3    H141770   0.115   3.708   4.830 -1.0884 -0.0683 -0.2157
 6785TIP3    H241771   0.048   3.574   4.853  0.6796 -0.9183  0.1220
 6786TIP3   OH241772   4.038   1.203   2.265 -0.2517  0.2146  0.1629
 6786TIP3    H141773   4.113   1.203   2.206  1.0348 -4.1151  1.5657
 6786TIP3    H241774   4.049   1.281   2.319  3.7590 -0.7386  0.8650
 6787TIP3   OH241775   0.149   0.905  15.263  0.6648  0.1503 -0.1423
 6787TIP3    H141776   0.172   0.984  15.214 -0.8600  0.3946 -0.4962
 6787TIP3    H241777   0.081   0.863  15.209 -0.3536 -0.0720  1.2983
 6788TIP3   OH241778   6.535   3.232   0.052 -0.0394 -0.7589  0.6834
 6788TIP3    H141779   6.581   3.311   0.079 -0.8335  0.4911 -1.4665
 6788TIP3    H241780   6.593   3.160   0.077  0.8525  0.5165  2.3348
 6789TIP3   OH241781   4.448   2.893  16.508  0.1503 -0.0688  0.4518
 6789TIP3    H141782   4.500   2.881  16.429  2.7342 -1.7182  2.3147
 6789TIP3    H241783   4.456   2.987  16.528 -0.9793  0.4601 -1.5079
 6790TIP3   OH241784   0.553   1.701   0.726  0.5456 -0.0058 -0.0150
 6790TIP3    H141785   0.595   1.782   0.754  0.9742 -0.5399  0.8986
 6790TIP3    H241786   0.481   1.730   0.669  2.3338  0.8901 -1.8545
 6791TIP3   OH241787   2.885   0.808  14.423 -0.2141  0.4839 -0.5234
 6791TIP3    H141788   2.828   0.831  14.497 -0.8701 -0.7785 -0.6188
 6791TIP3    H241789   2.868   0.714  14.409  0.2112  0.6294 -2.0112
 6792TIP3   OH241790   1.789   0.290   3.139  0.0942  0.6077 -0.0375
 6792TIP3    H141791   1.785   0.322   3.230  2.1043 -0.8910  0.6166
 6792TIP3    H241792   1.737   0.210   3.139 -0.2438  0.8282 -0.3018
 6793TIP3   OH241793   1.565   3.063   3.391  0.3327  0.2271  0.4025
 6793TIP3    H141794   1.519   3.039   3.472 -0.9881  0.7080 -0.2023
 6793TIP3    H241795   1.604   3.148   3.410  0.7244 -0.0435  0.8174
 6794TIP3   OH241796   5.439   3.667   0.085  0.2326  0.7061 -0.5859
 6794TIP3    H141797   5.446   3.663  -0.010 -1.3069  1.4610 -0.7468
 6794TIP3    H241798   5.439   3.761   0.105 -2.6009  0.6608 -0.1353
 6795TIP3   OH241799   1.680   6.740   0.294 -0.0742  0.3649 -0.6297
 6795TIP3    H141800   1.609   6.690   0.334 -0.1938  2.1567  1.4991
 6795TIP3    H241801   1.640   6.824   0.271  1.6406  2.0073  2.0569
 6796TIP3   OH241802   1.476   5.092   3.636 -0.1202 -0.2727 -0.0762
 6796TIP3    H141803   1.531   5.019   3.665 -0.2868 -1.3942 -2.4424
 6796TIP3    H241804   1.492   5.161   3.700  1.0631 -1.9216  1.4630
 6797TIP3   OH241805   2.990   1.683   2.113  0.3133 -0.2570 -0.2381
 6797TIP3    H141806   2.923   1.713   2.052 -1.2367 -0.1682  1.4891
 6797TIP3    H241807   2.990   1.748   2.183  0.1623 -1.8055  1.2213
 6798TIP3   OH241808   1.835   1.398   1.219 -0.3221  0.0964 -0.2690
 6798TIP3    H141809   1.879   1.412   1.303 -0.7501 -2.1499  0.3476
 6798TIP3    H241810   1.892   1.337   1.172 -0.3126  0.9992 -1.4491
 6799TIP3   OH241811   0.686   4.474  16.078  0.1283 -0.2015 -0.2212
 6799TIP3    H141812   0.733   4.442  16.156 -1.9298 -3.3437 -0.1419
 6799TIP3    H241813   0.630   4.544  16.111  0.0664 -0.7796  0.9515
 6800TIP3   OH241814   4.500   1.289   3.426  0.4746  0.3709 -0.6726
 6800TIP3    H141815   4.497   1.193   3.425 -1.8333  0.3983 -1.5805
 6800TIP3    H241816   4.488   1.312   3.518  1.1399 -0.2158 -0.4361
 6801TIP3   OH241817   1.087   3.215   4.959  0.3272  0.1890  0.0789
 6801TIP3    H141818   1.073   3.295   5.009  0.2990 -0.9050  1.8564
 6801TIP3    H241819   1.170   3.180   4.992  0.9374  0.0834 -1.5083
 6802TIP3   OH241820   6.057   5.326  14.832  0.5950  0.2459  0.0279
 6802TIP3    H141821   6.053   5.406  14.779 -0.0132  1.0567  1.2628
 6802TIP3    H241822   6.044   5.357  14.922 -2.0555 -1.4959  0.3122
 6803TIP3   OH241823   4.894   6.689  10.915 -0.0403  0.6093  0.1502
 6803TIP3    H141824   4.878   6.722  11.003 -0.4493 -0.5912  0.5380
 6803TIP3    H241825   4.969   6.631  10.925 -1.7144 -1.5952  0.2203
 6804TIP3   OH241826   6.768   6.451   4.556  0.3096 -0.2734 -0.3721
 6804TIP3    H141827   6.697   6.387   4.561 -0.1530  0.3109  0.5870
 6804TIP3    H241828   6.843   6.400   4.524  0.6273 -1.8764  2.7625
 6805TIP3   OH241829   4.381   5.498  14.359  0.2036 -0.2201 -0.3993
 6805TIP3    H141830   4.468   5.531  14.336  0.1488  0.3193  0.1471
 6805TIP3    H241831   4.340   5.478  14.275  0.0465  1.6005 -0.7707
 6806TIP3   OH241832   3.830   0.350  16.729  0.5099  0.2986  0.0399
 6806TIP3    H141833   3.844   0.407  16.654  1.3981  1.4844  1.0739
 6806TIP3    H241834   3.746   0.307  16.712  0.0592  1.5609 -0.9969
 6807TIP3   OH241835   2.032   0.447   0.319 -0.0055 -0.3263 -0.0135
 6807TIP3    H141836   2.026   0.374   0.381 -0.8346 -0.9806 -0.8507
 6807TIP3    H241837   1.955   0.501   0.339  0.7420  0.4740  0.7763
 6808TIP3   OH241838   0.205   0.314  10.594 -0.1344 -0.0926  0.4458
 6808TIP3    H141839   0.159   0.247  10.544  0.2829  0.5465 -0.8169
 6808TIP3    H241840   0.296   0.283  10.597 -0.1290 -0.0550  0.6803
 6809TIP3   OH241841   5.821   4.336   5.918  0.2680 -0.2987  0.2180
 6809TIP3    H141842   5.834   4.263   5.857 -1.2724  0.3691 -0.9425
 6809TIP3    H241843   5.877   4.406   5.885 -0.4609  0.0154 -0.3797
 6810TIP3   OH241844   1.158   5.617  17.014  0.3994 -0.3564 -0.0083
 6810TIP3    H141845   1.182   5.705  17.041 -0.1313  0.1368 -1.1326
 6810TIP3    H241846   1.145   5.623  16.920  3.4510 -2.3536 -0.6162
 6811TIP3   OH241847   0.691   2.975   3.616 -0.2000 -0.1528 -0.1795
 6811TIP3    H141848   0.610   2.998   3.660  0.2614  2.7927 -0.7800
 6811TIP3    H241849   0.750   2.949   3.687 -1.2762 -1.2487  0.3452
 6812TIP3   OH241850   0.901   1.963   1.172 -0.4901  0.8325 -0.3599
 6812TIP3    H141851   0.909   1.917   1.088  2.0957  0.7360 -0.0966
 6812TIP3    H241852   0.807   1.963   1.190 -0.9211 -0.7260 -2.3852
 6813TIP3   OH241853   1.659   6.438   6.033 -0.1725 -0.4222  0.2717
 6813TIP3    H141854   1.612   6.354   6.036 -0.2871 -0.4397 -1.4791
 6813TIP3    H241855   1.638   6.480   6.116 -1.7135 -1.2794  0.3354
 6814TIP3   OH241856   0.016   6.223   0.084 -0.1487 -0.1555  0.0097
 6814TIP3    H141857  -0.001   6.153   0.147  0.4924 -0.4118 -0.0966
 6814TIP3    H241858   0.086   6.275   0.125  0.2124 -0.2771 -0.4476
 6815TIP3   OH241859   3.125   6.381  16.653 -0.1334  0.6401  0.3603
 6815TIP3    H141860   3.196   6.444  16.668  0.9826 -1.0363  2.3770
 6815TIP3    H241861   3.140   6.349  16.564  1.5394  0.4338  0.6968
 6816TIP3   OH241862   2.416   3.574   0.392 -0.1533  0.5184 -0.2804
 6816TIP3    H141863   2.376   3.508   0.336 -0.2386 -1.4218  1.9771
 6816TIP3    H241864   2.343   3.625   0.426 -0.1706  1.1445 -1.2611
 6817TIP3   OH241865   0.652   5.398  12.086  0.1219 -0.1604  0.3696
 6817TIP3    H141866   0.647   5.437  11.999  0.8250  1.6900  1.1258
 6817TIP3    H241867   0.593   5.323  12.083  0.2022 -0.1528 -1.7160
 6818TIP3   OH241868   4.516   2.637   2.079 -0.5679 -0.0340  0.0622
 6818TIP3    H141869   4.576   2.711   2.090  0.5356 -0.9658  0.5467
 6818TIP3    H241870   4.496   2.610   2.169  0.7182 -1.6157 -0.0947
 6819TIP3   OH241871   3.420   5.767   2.142 -0.4738  0.4273  0.0645
 6819TIP3    H141872   3.410   5.759   2.047 -1.1260 -0.0208  0.1661
 6819TIP3    H241873   3.392   5.856   2.162  2.6600  1.6261 -0.5415
 6820TIP3   OH241874   3.270   3.144  14.118 -0.0447 -0.0736  0.4057
 6820TIP3    H141875   3.176   3.137  14.100  0.3896  0.3160 -2.2158
 6820TIP3    H241876   3.301   3.054  14.116 -0.4165 -0.2490  1.7710
 6821TIP3   OH241877   5.237   6.189   3.733  0.1514 -0.2768 -0.0137
 6821TIP3    H141878   5.235   6.280   3.763 -1.2915 -0.2989 -0.0282
 6821TIP3    H241879   5.176   6.143   3.791 -0.4838 -0.8767 -1.1486
 6822TIP3   OH241880   5.556   6.617   4.938  0.1878 -0.2802 -0.5208
 6822TIP3    H141881   5.542   6.523   4.949  4.9448 -0.9353  1.3433
 6822TIP3    H241882   5.515   6.657   5.015 -0.6606 -0.9686 -0.6120
 6823TIP3   OH241883   5.646   5.339  13.535 -0.1402  0.1441 -0.2192
 6823TIP3    H141884   5.701   5.415  13.512  0.3682 -0.0549  0.3106
 6823TIP3    H241885   5.657   5.331  13.630 -0.9949  0.0235 -0.1289
 6824TIP3   OH241886   4.575   3.580  13.366 -0.2396 -0.0339  0.1207
 6824TIP3    H141887   4.627   3.500  13.369 -1.7397 -0.9979  1.2139
 6824TIP3    H241888   4.584   3.617  13.454  0.4235  0.9895 -0.3711
 6825TIP3   OH241889   2.172   4.246  16.120  0.0587 -0.0316 -0.0374
 6825TIP3    H141890   2.110   4.242  16.048  0.1785 -0.0570 -0.1384
 6825TIP3    H241891   2.257   4.256  16.078  0.0016  1.2947  0.1350
 6826TIP3   OH241892   5.849   4.391  11.758 -0.8008  0.3570  0.7249
 6826TIP3    H141893   5.838   4.331  11.685 -2.1741 -0.3414  1.4860
 6826TIP3    H241894   5.906   4.344  11.819  1.3121  1.4086 -0.3833
 6827TIP3   OH241895   3.124   0.160  11.481 -0.8003 -0.5688  0.1624
 6827TIP3    H141896   3.066   0.205  11.542 -1.7300 -1.6073  0.0655
 6827TIP3    H241897   3.065   0.107  11.427 -0.0351  0.5771 -1.8525
 6828TIP3   OH241898   3.509   4.422   1.797 -0.3335  0.2582  0.0111
 6828TIP3    H141899   3.460   4.401   1.877 -0.7067  0.6884 -0.1047
 6828TIP3    H241900   3.460   4.493   1.756  2.3118  3.1779  1.7202
 6829TIP3   OH241901   6.445   2.863  14.048 -0.0681 -0.0404 -0.0319
 6829TIP3    H141902   6.452   2.848  13.953 -0.9263  0.0284 -0.1076
 6829TIP3    H241903   6.521   2.818  14.084 -0.6336 -1.5187 -0.6060
 6830TIP3   OH241904   6.682   3.125  15.208  0.2097 -0.2851 -0.0287
 6830TIP3    H141905   6.704   3.102  15.118 -1.6998 -2.4241  0.0117
 6830TIP3    H241906   6.649   3.215  15.202 -1.8021 -1.1140 -1.7792
 6831TIP3   OH241907   5.223   6.638   5.492  0.4445  0.3172  0.1335
 6831TIP3    H141908   5.151   6.644   5.430 -0.3590  1.4164  1.1449
 6831TIP3    H241909   5.268   6.557   5.469 -0.2770  0.3292 -1.3937
 6832TIP3   OH241910   4.690   0.812   0.698 -0.5736  0.2245  0.0194
 6832TIP3    H141911   4.707   0.718   0.688 -0.0932  0.3444 -0.2970
 6832TIP3    H241912   4.771   0.847   0.734 -0.9431  0.4316  0.6617
 6833TIP3   OH241913   3.285   1.632  11.872 -0.6713  0.2927  0.5568
 6833TIP3    H141914   3.365   1.624  11.922 -0.1034  2.6068  0.0977
 6833TIP3    H241915   3.298   1.575  11.796  0.0040 -0.3019  1.1115
 6834TIP3   OH241916   1.108   4.720   1.172  0.0148  0.0299 -0.1048
 6834TIP3    H141917   1.163   4.661   1.122 -0.0767  0.1847 -0.3900
 6834TIP3    H241918   1.088   4.673   1.253  1.8243  0.5554  0.6841
 6835TIP3   OH241919   0.794   6.086  16.397  0.5317 -0.3246  0.4726
 6835TIP3    H141920   0.717   6.135  16.368  0.8937  0.9440  1.5850
 6835TIP3    H241921   0.867   6.125  16.350  0.6260 -0.8907  0.1383
 6836TIP3   OH241922   3.114   5.353   0.738  0.2785  0.1546  0.1434
 6836TIP3    H141923   3.071   5.285   0.687  0.2200 -0.7377  1.3796
 6836TIP3    H241924   3.095   5.331   0.829 -1.5655  2.9959  0.5310
 6837TIP3   OH241925   4.299   4.891  10.888 -0.0088 -0.3601  0.3469
 6837TIP3    H141926   4.299   4.976  10.931 -0.3468  0.3525 -1.0394
 6837TIP3    H241927   4.222   4.846  10.924  1.7764 -1.2367  3.2496
 6838TIP3   OH241928   6.183   0.470  13.820  0.0836  0.1300 -0.4645
 6838TIP3    H141929   6.255   0.407  13.818  0.8835  1.0564 -0.9841
 6838TIP3    H241930   6.105   0.417  13.837  0.7680 -0.9838 -0.7875
 6839TIP3   OH241931   3.392   1.789   3.470 -0.0854 -0.0772 -0.3964
 6839TIP3    H141932   3.450   1.713   3.462  0.4592 -0.1976  3.6373
 6839TIP3    H241933   3.322   1.760   3.528 -0.4755  2.1075  0.2926
 6840TIP3   OH241934   2.231   0.923  11.906  0.1008  0.0741  0.5266
 6840TIP3    H141935   2.172   0.848  11.911 -0.3861  0.5443  2.3474
 6840TIP3    H241936   2.177   0.998  11.931  0.8512  0.8761 -0.2312
 6841TIP3   OH241937   5.145   2.209   5.187  0.4475 -0.0276  0.1555
 6841TIP3    H141938   5.131   2.173   5.274 -0.2115 -0.3479 -0.0792
 6841TIP3    H241939   5.191   2.140   5.140  0.0044 -0.2033 -0.0194
 6842TIP3   OH241940   5.819   5.927  15.552 -0.3094  0.1671  0.3131
 6842TIP3    H141941   5.789   5.957  15.638 -0.4615  1.2085 -0.0858
 6842TIP3    H241942   5.875   5.852  15.570 -0.3136  0.3995  1.3232
 6843TIP3   OH241943   4.128   0.102  14.122 -0.0256  0.2343 -0.3750
 6843TIP3    H141944   4.181   0.157  14.180  0.5378  0.7721 -1.3865
 6843TIP3    H241945   4.089   0.162  14.059 -0.5706 -0.3476 -0.6028
 6844TIP3   OH241946   0.941   3.739   4.833  0.2308  0.3460 -0.1265
 6844TIP3    H141947   1.009   3.795   4.870  1.0923 -1.5764  1.3224
 6844TIP3    H241948   0.966   3.727   4.742  1.2158  0.5718  0.1101
 6845TIP3   OH241949   3.011   3.061   1.438 -0.0824  0.5873  0.5240
 6845TIP3    H141950   3.044   3.047   1.350  1.5299  1.5455  0.9414
 6845TIP3    H241951   2.936   3.002   1.447 -1.3962  1.7965 -2.0947
 6846TIP3   OH241952   5.085   3.668   1.850 -0.3523  0.4321  0.0823
 6846TIP3    H141953   5.126   3.682   1.935 -0.0009  0.2232 -0.0504
 6846TIP3    H241954   5.004   3.621   1.869  0.4725 -0.9602  0.1689
 6847TIP3   OH241955   1.492   1.007   2.635 -0.5928 -0.3456  0.2999
 6847TIP3    H141956   1.551   1.046   2.699  0.6748 -0.7147 -0.6186
 6847TIP3    H241957   1.434   0.952   2.687 -0.0471 -0.0758  1.2136
 6848TIP3   OH241958   5.231   5.362   1.091  0.4872 -0.1167  0.4818
 6848TIP3    H141959   5.297   5.329   1.031 -0.6037  0.5681 -1.1222
 6848TIP3    H241960   5.278   5.425   1.146  1.5100 -0.8291  0.4349
 6849TIP3   OH241961   5.569   3.766  16.329 -0.1984  0.4638  0.0384
 6849TIP3    H141962   5.660   3.762  16.300 -0.0519  0.8431  0.4260
 6849TIP3    H241963   5.521   3.709  16.269  0.2386  0.5414 -0.3839
 6850TIP3   OH241964   6.749   1.863   0.415 -0.0548 -0.4995 -0.3190
 6850TIP3    H141965   6.732   1.797   0.482 -1.7339  0.1376 -0.0780
 6850TIP3    H241966   6.739   1.816   0.332 -1.0289 -0.6105 -0.1434
 6851TIP3   OH241967   2.613   5.569   4.301 -0.3622  0.7403 -0.4006
 6851TIP3    H141968   2.688   5.605   4.349  0.3412  1.2877 -1.8854
 6851TIP3    H241969   2.564   5.647   4.273 -2.6701  0.3733  2.3316
 6852TIP3   OH241970   1.479   1.776  11.122 -0.3159  0.4028 -0.8122
 6852TIP3    H141971   1.511   1.724  11.048 -2.5272 -1.9584 -0.2015
 6852TIP3    H241972   1.404   1.824  11.087  0.7526  1.9933 -0.9614
 6853TIP3   OH241973   4.189   1.566   6.031 -0.0576  0.8034 -0.3547
 6853TIP3    H141974   4.173   1.611   6.113 -0.6935 -1.9186  1.0712
 6853TIP3    H241975   4.102   1.546   5.997  0.2009  1.7544 -1.5911
 6854TIP3   OH241976   3.171   1.610  16.038  0.1388  0.1029  0.1785
 6854TIP3    H141977   3.237   1.608  15.968  0.7661 -0.7976  0.7776
 6854TIP3    H241978   3.133   1.523  16.037  0.3266  0.0036  1.1158
 6855TIP3   OH241979   1.048   5.999   1.337 -0.5537 -0.1426 -0.1251
 6855TIP3    H141980   1.002   6.021   1.418  0.0889  0.5464  0.0523
 6855TIP3    H241981   1.067   5.905   1.345 -2.0568 -0.4687 -0.2660
 6856TIP3   OH241982   5.153   2.557  11.627  0.6056  0.2049 -0.0769
 6856TIP3    H141983   5.110   2.566  11.712  0.5509  2.8639 -0.3578
 6856TIP3    H241984   5.240   2.594  11.640  1.4934 -1.6527 -0.5396
 6857TIP3   OH241985   2.856   6.563   5.910 -0.2297 -0.9207  0.4401
 6857TIP3    H141986   2.917   6.602   5.972 -1.4172  0.0831  1.0005
 6857TIP3    H241987   2.800   6.507   5.964 -0.2147 -1.3412  0.0247
 6858TIP3   OH241988   2.348   1.910   1.612  0.1262 -0.5684 -0.1103
 6858TIP3    H141989   2.418   1.930   1.550 -0.0135  2.2595  0.6104
 6858TIP3    H241990   2.267   1.932   1.565 -0.2260 -2.2253 -0.3274
 6859TIP3   OH241991   1.423   1.206   5.259  0.7616  0.5835 -0.4099
 6859TIP3    H141992   1.402   1.296   5.234  0.0302  0.2593 -1.0022
 6859TIP3    H241993   1.388   1.197   5.347  1.9109  1.2414  0.1284
 6860TIP3   OH241994   5.110   3.432  14.374 -0.3407 -0.9614  0.3198
 6860TIP3    H141995   5.071   3.473  14.297  1.7119  0.8926  0.2233
 6860TIP3    H241996   5.068   3.473  14.449  0.8967  0.5482  0.2081
 6861TIP3   OH241997   5.661   2.714   0.482 -0.1749 -0.7777  0.1709
 6861TIP3    H141998   5.659   2.808   0.465  0.3079 -0.9214 -0.6938
 6861TIP3    H241999   5.577   2.696   0.524 -0.0168  0.1397  0.9069
 6862TIP3   OH242000   1.375   2.905   5.239 -0.2543 -0.9933 -0.2377
 6862TIP3    H142001   1.293   2.863   5.214 -0.7418  0.4812 -1.1921
 6862TIP3    H242002   1.418   2.925   5.156 -1.0844  2.3830  0.0692
 6863TIP3   OH242003   5.151   2.793  16.031 -0.4853 -0.4048 -0.2225
 6863TIP3    H142004   5.222   2.732  16.051  0.9570  1.1616 -0.3971
 6863TIP3    H242005   5.071   2.741  16.038  0.6723 -2.1700  0.1262
 6864TIP3   OH242006   1.945   2.624   3.782 -0.1808  0.0825 -0.3310
 6864TIP3    H142007   2.035   2.596   3.799 -0.1894 -0.3726 -1.0172
 6864TIP3    H242008   1.953   2.688   3.712 -0.5495 -1.2405 -1.6018
 6865TIP3   OH242009   3.157   3.111   4.870 -0.1203  0.0261 -1.0293
 6865TIP3    H142010   3.226   3.050   4.846  2.3062  2.7320 -1.3415
 6865TIP3    H242011   3.144   3.097   4.964  0.8948 -0.4868 -0.9625
 6866TIP3   OH242012   2.540   3.907  13.466  0.5264  0.0874  1.0215
 6866TIP3    H142013   2.527   3.926  13.559  1.3540 -0.1708  1.1891
 6866TIP3    H242014   2.454   3.924  13.426  0.2599  0.5155  1.7755
 6867TIP3   OH242015   0.321   1.176  13.154 -0.3320 -0.7379 -0.1766
 6867TIP3    H142016   0.298   1.163  13.246 -0.1959  0.0250 -0.0360
 6867TIP3    H242017   0.263   1.116  13.106 -0.9132 -0.6022  0.3519
 6868TIP3   OH242018   1.224   4.855   2.840  0.4508 -0.6751 -0.0607
 6868TIP3    H142019   1.187   4.772   2.809 -1.4184 -0.1465  0.6876
 6868TIP3    H242020   1.217   4.849   2.935 -1.2461  1.0232 -0.0608
 6869TIP3   OH242021   3.816   4.066  14.850  0.2215  0.4522  0.2611
 6869TIP3    H142022   3.739   4.028  14.893 -0.8049  0.3783 -1.5608
 6869TIP3    H242023   3.817   4.157  14.879  0.6664 -0.0660  1.9170
 6870TIP3   OH242024   3.207   6.560  11.412 -0.0234 -0.0619  0.0566
 6870TIP3    H142025   3.277   6.625  11.402  1.0890 -1.2749 -0.1552
 6870TIP3    H242026   3.177   6.571  11.503  0.7612  0.1466  0.2920
 6871TIP3   OH242027   1.645   4.107  13.140 -0.5485  0.1916  0.1463
 6871TIP3    H142028   1.607   4.031  13.185 -1.3129 -0.1635 -1.0864
 6871TIP3    H242029   1.688   4.071  13.063  0.4724  0.8379  0.4073
 6872TIP3   OH242030   3.492   4.354   5.207  0.0209  0.6735 -0.3542
 6872TIP3    H142031   3.552   4.424   5.234  0.0866  0.5696 -0.2285
 6872TIP3    H242032   3.472   4.307   5.288 -0.6496  1.0325 -0.3097
 6873TIP3   OH242033   6.111   5.033   5.824  0.2583  0.3515 -0.2670
 6873TIP3    H142034   6.070   4.951   5.852 -0.2491  0.3550 -1.0031
 6873TIP3    H242035   6.057   5.101   5.865  2.6653  0.3289  3.2104
 6874TIP3   OH242036   6.639   2.945   3.312  0.2126  0.6039 -0.6961
 6874TIP3    H142037   6.677   3.032   3.324 -0.3528  0.7672 -0.0442
 6874TIP3    H242038   6.549   2.962   3.283  0.3534  0.2313 -1.3463
 6875TIP3   OH242039   1.200   0.870  12.770  0.3529 -0.2557 -0.3824
 6875TIP3    H142040   1.277   0.909  12.811 -0.8723  0.6527  1.1446
 6875TIP3    H242041   1.232   0.792  12.726  1.8904 -0.7747  1.5869
 6876TIP3   OH242042   4.834   5.450   2.806  0.1339 -0.2683  0.0038
 6876TIP3    H142043   4.901   5.387   2.834 -1.3211 -1.9690 -0.2160
 6876TIP3    H242044   4.806   5.493   2.887  1.6434  0.6406  0.0667
 6877TIP3   OH242045   5.673   3.862  10.521 -0.2561 -0.3701 -0.0643
 6877TIP3    H142046   5.742   3.835  10.459 -0.0745 -2.3300  0.9663
 6877TIP3    H242047   5.720   3.911  10.588 -0.3757  1.2899 -1.1568
 6878TIP3   OH242048   6.753   0.849  12.241 -0.2863 -0.2643  0.2273
 6878TIP3    H142049   6.684   0.819  12.181 -1.5158  0.6956  1.1491
 6878TIP3    H242050   6.736   0.801  12.322 -1.2883  1.6943  1.1974
 6879TIP3   OH242051   0.483   4.882   3.170 -0.1455  0.3134  0.3390
 6879TIP3    H142052   0.561   4.864   3.222 -0.7657 -1.7802  0.6005
 6879TIP3    H242053   0.476   4.806   3.112 -1.1215  1.2307 -0.7600
 6880TIP3   OH242054   3.375   1.483  11.628 -0.2721  0.1583  0.1397
 6880TIP3    H142055   3.466   1.470  11.601 -0.7696 -1.5991 -0.7745
 6880TIP3    H242056   3.326   1.483  11.546 -1.0547  1.5199  0.5977
 6881TIP3   OH242057   3.241   1.816  13.560  0.5083 -0.2797 -0.2166
 6881TIP3    H142058   3.279   1.900  13.536 -0.1385 -0.6755 -2.8173
 6881TIP3    H242059   3.151   1.819  13.526  0.3317 -1.8173  0.0712
 6882TIP3   OH242060   1.601   0.408  14.459  0.3554 -0.6002 -0.5300
 6882TIP3    H142061   1.559   0.494  14.460 -0.7576 -1.1395  0.5465
 6882TIP3    H242062   1.529   0.345  14.457  1.1375 -1.5266 -0.4727
 6883TIP3   OH242063   4.198   4.452  11.260  0.4810  0.7325 -0.2385
 6883TIP3    H142064   4.172   4.418  11.174  1.9842  0.4759 -0.6023
 6883TIP3    H242065   4.203   4.374  11.316  0.6397  0.7645 -0.2099
 6884TIP3   OH242066   5.848   4.135   5.739  0.1094 -0.7125 -0.1006
 6884TIP3    H142067   5.878   4.165   5.653  1.7751  1.2485  1.1109
 6884TIP3    H242068   5.769   4.084   5.721 -1.2247  2.0772 -2.5675
 6885TIP3   OH242069   6.787   3.790   2.079 -0.2143 -0.9364 -0.1108
 6885TIP3    H142070   6.788   3.850   2.005  0.7430  0.4118  0.9750
 6885TIP3    H242071   6.848   3.828   2.142 -0.3801 -2.5047  1.0224
 6886TIP3   OH242072   1.333   6.110   3.124  0.5147 -0.4025  0.6598
 6886TIP3    H142073   1.343   6.052   3.199  2.2343 -0.4479  0.4211
 6886TIP3    H242074   1.342   6.053   3.048  0.0325 -0.1596  0.4162
 6887TIP3   OH242075   2.506   2.366   5.171  0.4532 -0.4181  0.1445
 6887TIP3    H142076   2.487   2.305   5.242 -0.4625 -0.0867  0.1829
 6887TIP3    H242077   2.434   2.428   5.171  0.9195  0.1460 -0.4745
 6888TIP3   OH242078   2.643   6.501   3.965 -0.1307  0.0416 -0.3698
 6888TIP3    H142079   2.700   6.425   3.954 -0.3669 -0.0616 -0.8802
 6888TIP3    H242080   2.557   6.472   3.934 -0.7570 -0.1822  1.4520
 6889TIP3   OH242081   1.148   2.161  11.892 -0.9103 -0.1411  0.3197
 6889TIP3    H142082   1.107   2.080  11.863 -0.4838 -0.2754  0.0918
 6889TIP3    H242083   1.240   2.138  11.905 -0.9173  0.1401  0.8885
 6890TIP3   OH242084   3.832   3.007   3.932  0.1110  0.4868  0.1926
 6890TIP3    H142085   3.779   3.087   3.940  1.3572  1.2001  1.6031
 6890TIP3    H242086   3.920   3.038   3.910 -0.0444 -0.7002 -2.3127
 6891TIP3   OH242087   4.438   4.570   1.030  0.0656  0.4263 -0.3025
 6891TIP3    H142088   4.504   4.614   0.977  0.9318  0.4135  0.7380
 6891TIP3    H242089   4.413   4.493   0.979 -1.1670  1.9186 -1.9452
 6892TIP3   OH242090   0.957   6.768  10.800 -0.1334 -0.0479 -0.0844
 6892TIP3    H142091   0.884   6.709  10.817 -0.7594  0.7230 -0.0399
 6892TIP3    H242092   0.928   6.853  10.835  1.2117  0.0212  0.9189
 6893TIP3   OH242093   3.202   4.344   0.876  0.4110 -0.3762 -0.0687
 6893TIP3    H142094   3.284   4.372   0.918  0.3973  1.3887 -1.1566
 6893TIP3    H242095   3.214   4.365   0.783 -1.2736 -0.0891 -0.2398
 6894TIP3   OH242096   4.457   5.859  12.765 -0.3260  0.6400 -0.7621
 6894TIP3    H142097   4.378   5.805  12.754 -1.6169  1.5928  3.0435
 6894TIP3    H242098   4.526   5.796  12.786 -1.0003  0.1303 -0.0289
 6895TIP3   OH242099   0.478   5.039   6.277  0.1506  0.4254 -0.0246
 6895TIP3    H142100   0.392   5.039   6.320  0.4642 -0.5722  0.6205
 6895TIP3    H242101   0.483   5.124   6.234 -1.3494  0.3174 -0.4344
 6896TIP3   OH242102   3.651   0.858   1.212 -0.0976 -0.5277 -0.5874
 6896TIP3    H142103   3.575   0.799   1.201 -0.7714  0.2380 -0.0891
 6896TIP3    H242104   3.662   0.899   1.126 -0.2517 -0.6368 -0.6599
 6897TIP3   OH242105   1.786   5.372  11.030 -0.1711  0.2931 -0.5875
 6897TIP3    H142106   1.804   5.283  10.998 -1.0754 -0.8377  1.9272
 6897TIP3    H242107   1.691   5.380  11.027 -0.0164  1.8247 -2.3601
 6898TIP3   OH242108   3.157   4.116  15.425 -0.2022 -0.5070 -0.1502
 6898TIP3    H142109   3.118   4.199  15.453  0.2681  0.2852 -1.8184
 6898TIP3    H242110   3.092   4.050  15.449 -1.4339  0.5349 -0.5778
 6899TIP3   OH242111   6.707   2.359   2.700 -0.0825 -0.6410 -0.4329
 6899TIP3    H142112   6.760   2.279   2.709  0.9169 -0.1709 -1.9236
 6899TIP3    H242113   6.681   2.380   2.789  1.0206 -1.7314  0.1676
 6900TIP3   OH242114   4.158   3.133   2.240 -0.5037 -0.5925  1.1523
 6900TIP3    H142115   4.226   3.073   2.210 -1.0909 -0.1151 -1.2836
 6900TIP3    H242116   4.196   3.220   2.232 -0.5955 -0.4644  2.0461
 6901TIP3   OH242117   3.889   4.774   0.433  0.0740  0.0894  0.2384
 6901TIP3    H142118   3.839   4.768   0.353  3.6216 -0.5778 -2.0520
 6901TIP3    H242119   3.912   4.684   0.454  2.3289  0.5315 -0.1703
 6902TIP3   OH242120   2.359   4.663   5.965  0.2064  0.5472  0.2855
 6902TIP3    H142121   2.296   4.646   6.035 -1.5170 -1.9180 -1.8024
 6902TIP3    H242122   2.317   4.730   5.911  0.5479  0.7875  0.3121
 6903TIP3   OH242123   4.825   0.731  10.765  0.5152  0.3716 -0.0063
 6903TIP3    H142124   4.831   0.708  10.672 -0.6404  0.6346 -0.1556
 6903TIP3    H242125   4.858   0.820  10.770  0.6410  0.3338 -0.1521
 6904TIP3   OH242126   0.405   1.339  12.028 -0.4790  0.3129 -0.0162
 6904TIP3    H142127   0.379   1.404  12.093  0.8817  0.6420  0.2119
 6904TIP3    H242128   0.367   1.371  11.946 -2.7201 -0.4305  0.6997
 6905TIP3   OH242129   2.508   3.450  14.196 -0.0191  0.0064  0.6996
 6905TIP3    H142130   2.591   3.458  14.244 -0.1203 -0.3311  0.9344
 6905TIP3    H242131   2.526   3.383  14.129 -0.3939 -0.7892  1.3848
 6906TIP3   OH242132   2.728   6.629  12.395 -0.0137  0.6021 -0.0478
 6906TIP3    H142133   2.688   6.629  12.308  1.0404  0.4966 -0.5385
 6906TIP3    H242134   2.656   6.651  12.454 -0.9108 -0.0925 -0.8639
 6907TIP3   OH242135   6.027   0.738  11.471 -0.1471 -0.1597 -0.2112
 6907TIP3    H142136   6.093   0.711  11.535  0.9154  0.6288 -0.9529
 6907TIP3    H242137   5.992   0.820  11.507  0.2335  0.1227 -0.4767
 6908TIP3   OH242138   2.834   0.058  14.218  0.1129 -0.1202  0.6254
 6908TIP3    H142139   2.892   0.077  14.292 -0.3176 -0.8274  1.1415
 6908TIP3    H242140   2.848   0.131  14.158 -0.4031  1.0665  1.9279
 6909TIP3   OH242141   0.211   6.076   1.551 -0.0333 -0.4661 -0.1185
 6909TIP3    H142142   0.214   6.063   1.646 -0.7863  2.4529  0.3453
 6909TIP3    H242143   0.303   6.079   1.525  0.2678  2.0858  1.0658
 6910TIP3   OH242144   4.568   5.039   5.165  0.0921  0.2342 -0.1848
 6910TIP3    H142145   4.517   4.982   5.222 -2.3852  2.4428 -0.0804
 6910TIP3    H242146   4.599   5.109   5.222  1.6495 -0.0817 -0.6330
 6911TIP3   OH242147   4.633   4.413   0.616  0.6143  0.0295 -0.1000
 6911TIP3    H142148   4.680   4.334   0.589  0.7187 -0.0591  0.3412
 6911TIP3    H242149   4.560   4.381   0.669 -0.0607  0.1520 -0.9370
 6912TIP3   OH242150   2.697   5.263  14.122 -0.3816 -0.3692 -0.3284
 6912TIP3    H142151   2.767   5.286  14.061 -1.8798  3.7142 -0.7160
 6912TIP3    H242152   2.639   5.206  14.071 -0.7808  1.6987 -2.3040
 6913TIP3   OH242153   2.516   1.695  11.243 -0.0197  0.2637 -0.1687
 6913TIP3    H142154   2.530   1.753  11.168  1.0696  0.2176  0.0019
 6913TIP3    H242155   2.597   1.700  11.293 -1.0456  0.9227  1.4380
 6914TIP3   OH242156   2.935   0.582   3.504  0.1758 -0.2494  0.3816
 6914TIP3    H142157   2.973   0.643   3.567 -1.5244  2.5405 -1.2328
 6914TIP3    H242158   2.844   0.611   3.494 -0.3571 -2.3763 -1.2692
 6915TIP3   OH242159   2.262   5.640  11.907  1.0107 -0.5736  0.0305
 6915TIP3    H142160   2.236   5.549  11.920  0.5836 -0.8857 -2.6184
 6915TIP3    H242161   2.357   5.637  11.898  0.9503 -0.8386 -0.5496
 6916TIP3   OH242162   1.585   4.997   1.494 -0.8620  0.8228  0.1968
 6916TIP3    H142163   1.629   5.078   1.521 -0.3661  0.6404 -0.0549
 6916TIP3    H242164   1.492   5.017   1.500 -0.7371  1.8170 -1.1283
 6917TIP3   OH242165   0.809   3.926   0.754  0.0949 -0.0267 -0.6381
 6917TIP3    H142166   0.789   4.011   0.794  0.2050 -0.9580  1.4841
 6917TIP3    H242167   0.903   3.914   0.768  0.5399  0.4971 -2.9687
 6918TIP3   OH242168   6.718   5.365   1.444 -0.0406 -0.1804  0.1507
 6918TIP3    H142169   6.750   5.295   1.387 -0.9769 -0.8109  0.3863
 6918TIP3    H242170   6.744   5.339   1.532 -0.9520 -0.5659  0.3133
 6919TIP3   OH242171   3.065   2.222   3.973  0.5356  0.7958  0.3437
 6919TIP3    H142172   3.059   2.302   3.921 -1.2060  0.5599  0.1438
 6919TIP3    H242173   3.020   2.243   4.055 -0.6352 -0.1840 -0.0167
 6920TIP3   OH242174   1.052   1.281  12.787 -0.1313  0.3130  0.0706
 6920TIP3    H142175   1.043   1.373  12.761 -1.3045  0.5042  1.1153
 6920TIP3    H242176   1.003   1.274  12.869  1.6828 -0.7873  1.0937
 6921TIP3   OH242177   3.093   4.464   4.339  0.0206 -0.1292 -0.1207
 6921TIP3    H142178   3.140   4.547   4.328  0.0071  0.1224  1.5103
 6921TIP3    H242179   3.162   4.399   4.351  0.0069 -0.0749  0.2757
 6922TIP3   OH242180   4.737   1.813   0.592 -0.0404  0.3184  0.3164
 6922TIP3    H142181   4.742   1.843   0.501  0.5757 -1.7733 -0.3620
 6922TIP3    H242182   4.827   1.816   0.623 -0.2677  1.1663  0.9329
 6923TIP3   OH242183   2.119   0.378  16.851  0.0548  0.7239  0.0628
 6923TIP3    H142184   2.182   0.449  16.839  1.8722 -0.7275  0.8608
 6923TIP3    H242185   2.146   0.336  16.933 -0.4310 -1.4667 -0.8847
 6924TIP3   OH242186   3.693   0.839  12.494  0.2890  0.0474 -0.3335
 6924TIP3    H142187   3.643   0.863  12.416 -2.7363 -1.6842  0.9850
 6924TIP3    H242188   3.746   0.916  12.513 -2.2372  2.1672 -1.5464
 6925TIP3   OH242189   0.781   0.938  13.464  0.3052  0.4405  0.4666
 6925TIP3    H142190   0.692   0.922  13.497 -0.0181 -0.2445 -0.6641
 6925TIP3    H242191   0.839   0.903  13.531 -0.3209 -0.6330  0.4603
 6926TIP3   OH242192   3.667   6.395   4.442  0.7100 -0.5579 -0.0304
 6926TIP3    H142193   3.635   6.321   4.494  1.7432 -1.3110 -0.4546
 6926TIP3    H242194   3.732   6.438   4.498  1.5656 -1.1609 -0.5499
 6927TIP3   OH242195   2.560   0.717  16.666  0.0661 -0.0668  0.1423
 6927TIP3    H142196   2.521   0.752  16.586 -0.0177 -2.4982 -0.9232
 6927TIP3    H242197   2.641   0.767  16.677 -0.9588  1.7573 -0.2414
 6928TIP3   OH242198   0.291   3.468  11.708 -0.4058  0.8266  0.1571
 6928TIP3    H142199   0.380   3.436  11.697 -0.8442 -0.5123  0.4820
 6928TIP3    H242200   0.288   3.499  11.799 -0.4363  0.3348  0.3266
 6929TIP3   OH242201   6.721   6.077   4.435  0.1680  0.0278  0.1184
 6929TIP3    H142202   6.729   5.985   4.411  0.0336 -0.1764  0.8364
 6929TIP3    H242203   6.765   6.083   4.520 -0.4133  0.4956  0.3860
 6930TIP3   OH242204   0.712   0.942  16.649 -0.0814  0.6395 -0.0610
 6930TIP3    H142205   0.617   0.951  16.654  0.0414  2.4923 -0.6888
 6930TIP3    H242206   0.745   1.004  16.715  0.7091  0.8602 -0.6551
 6931TIP3   OH242207   1.080   2.910  16.709  0.1207  0.2202  0.6667
 6931TIP3    H142208   1.094   2.982  16.647  0.7785  0.2482  0.8372
 6931TIP3    H242209   1.168   2.886  16.737 -0.2447  1.0204  2.5128
 6932TIP3   OH242210   4.881   0.795  11.411  0.8238 -0.7093  0.4403
 6932TIP3    H142211   4.840   0.874  11.376 -0.6197 -2.7658 -2.7395
 6932TIP3    H242212   4.814   0.756  11.467  1.1008 -0.3299  1.0426
 6933TIP3   OH242213   5.815   5.743   3.193  0.3770 -0.1788 -0.5364
 6933TIP3    H142214   5.770   5.687   3.256 -0.8410  2.3271  0.9019
 6933TIP3    H242215   5.749   5.762   3.126  1.3637 -1.9981 -2.0744
 6934TIP3   OH242216   2.147   4.295   0.650 -0.4450 -0.4156  0.2495
 6934TIP3    H142217   2.182   4.253   0.572 -1.7014 -0.4482 -0.3156
 6934TIP3    H242218   2.206   4.270   0.721  0.3721 -0.8572 -0.5860
 6935TIP3   OH242219   4.250   5.836   5.302  0.6540  0.3132  0.2802
 6935TIP3    H142220   4.283   5.786   5.377 -0.7615 -0.3887  0.4542
 6935TIP3    H242221   4.290   5.922   5.311  2.7296 -0.6101  0.2758
 6936TIP3   OH242222   4.326   3.258   0.782  0.2394  0.1968 -0.2939
 6936TIP3    H142223   4.230   3.261   0.786  0.1918 -1.7873  0.2703
 6936TIP3    H242224   4.345   3.205   0.705  0.9154  1.4338 -1.0014
 6937TIP3   OH242225   1.854   0.554   4.275 -0.2479  0.5736  0.2536
 6937TIP3    H142226   1.852   0.467   4.237 -1.6259  0.7638 -0.1474
 6937TIP3    H242227   1.849   0.540   4.370 -1.1005  0.2307  0.1627
 6938TIP3   OH242228   1.196   5.748  14.776 -0.3245  0.1910  0.3481
 6938TIP3    H142229   1.111   5.706  14.792 -0.9291  1.0594 -0.5174
 6938TIP3    H242230   1.187   5.834  14.817  0.1847  0.2470  0.3389
 6939TIP3   OH242231   6.707   6.129   1.216 -0.3643 -0.6125  0.2122
 6939TIP3    H142232   6.669   6.102   1.299 -1.1908  2.0158  0.7306
 6939TIP3    H242233   6.793   6.088   1.214 -0.7031 -1.4257  1.9369
 6940TIP3   OH242234   1.183   4.786  15.877 -0.1264  0.0151  0.0640
 6940TIP3    H142235   1.138   4.871  15.881  1.0489  0.7434 -1.4562
 6940TIP3    H242236   1.276   4.809  15.874  0.2275 -1.3604  0.2042
 6941TIP3   OH242237   2.389   3.320   0.720 -0.2327 -0.1201  0.3272
 6941TIP3    H142238   2.420   3.279   0.640 -1.3555 -0.6770  0.1625
 6941TIP3    H242239   2.435   3.274   0.790 -1.0515 -1.2923  0.1132
 6942TIP3   OH242240   6.105   1.573   5.775 -0.2887 -0.0783 -0.7103
 6942TIP3    H142241   6.096   1.655   5.824  0.7975 -0.6840  0.5255
 6942TIP3    H242242   6.096   1.504   5.841 -2.0205 -0.9909 -1.8576
 6943TIP3   OH242243   2.659   3.103   4.186  0.2891  0.2793 -0.1819
 6943TIP3    H142244   2.715   3.174   4.156  0.9469 -0.3121 -0.3648
 6943TIP3    H242245   2.684   3.027   4.132  1.6575 -0.8594  1.9857
 6944TIP3   OH242246   6.749   6.363  11.943 -0.4983  0.7082 -0.1086
 6944TIP3    H142247   6.695   6.303  11.995  0.3012 -1.1182 -1.3269
 6944TIP3    H242248   6.834   6.320  11.938 -0.4698  0.9825 -2.6651
 6945TIP3   OH242249   0.801   2.186  13.373  0.5845 -0.4418 -0.1260
 6945TIP3    H142250   0.757   2.188  13.288  2.2990  2.6216 -1.0145
 6945TIP3    H242251   0.875   2.127  13.360 -0.6484 -2.0668  0.0614
 6946TIP3   OH242252   3.670   0.799  13.026 -0.1257  0.0655  0.1721
 6946TIP3    H142253   3.648   0.710  13.001 -0.5620  0.5162 -1.0676
 6946TIP3    H242254   3.758   0.793  13.062 -0.0312 -0.8119 -0.1958
 6947TIP3   OH242255   6.014   0.045  16.757  0.9736  0.4489 -0.4365
 6947TIP3    H142256   5.949  -0.024  16.774 -0.8472  1.9631 -1.0516
 6947TIP3    H242257   6.032   0.083  16.842  0.4352  0.5411 -0.3590
 6948TIP3   OH242258   0.109   6.646   2.636 -0.0266  0.3262  0.2622
 6948TIP3    H142259   0.036   6.609   2.685 -1.7103  1.5337 -1.2999
 6948TIP3    H242260   0.167   6.683   2.703 -1.9352  1.3245  1.3903
 6949TIP3   OH242261   6.272   3.854  14.551  0.0187 -0.2480  0.4166
 6949TIP3    H142262   6.180   3.878  14.541  0.1848 -0.1718 -1.0003
 6949TIP3    H242263   6.272   3.759  14.553 -0.2476 -0.2263  2.1010
 6950TIP3   OH242264   5.712   2.160   1.564  0.1689  0.3194 -0.2125
 6950TIP3    H142265   5.636   2.111   1.535 -0.7035  2.3775 -1.5625
 6950TIP3    H242266   5.684   2.203   1.645  0.4693 -0.2842  0.2145
 6951TIP3   OH242267   6.548   4.240  11.965 -0.5389 -0.2092 -0.4363
 6951TIP3    H142268   6.590   4.161  11.930  0.7988 -0.2431  1.1749
 6951TIP3    H242269   6.505   4.209  12.046  2.4917  1.2689  1.8083
 6952TIP3   OH242270   2.672   1.853  16.730  0.0048 -0.3549 -0.1350
 6952TIP3    H142271   2.682   1.918  16.661 -1.3640 -1.1945 -1.1503
 6952TIP3    H242272   2.745   1.793  16.717  0.5033  0.2198 -0.0233
 6953TIP3   OH242273   4.347   6.295  15.886  0.3341  0.1440  0.4762
 6953TIP3    H142274   4.429   6.248  15.901  0.9121  0.8541 -0.4664
 6953TIP3    H242275   4.369   6.366  15.826 -0.2882  2.3203  2.7255
 6954TIP3   OH242276   6.575   2.707  16.531 -0.3157 -0.9700 -0.7312
 6954TIP3    H142277   6.492   2.749  16.509 -0.2542 -0.7558 -0.5541
 6954TIP3    H242278   6.556   2.655  16.609  0.1738  0.5913  0.4603
 6955TIP3   OH242279   1.765   4.375   6.146 -0.0006 -0.2614  0.2209
 6955TIP3    H142280   1.693   4.396   6.205 -1.6967 -0.8413 -1.5972
 6955TIP3    H242281   1.807   4.299   6.186  0.2399  0.6442  1.7768
 6956TIP3   OH242282   0.427   1.678   2.551  0.3670  0.3544 -0.0287
 6956TIP3    H142283   0.370   1.635   2.615  0.5746  0.2869  0.1092
 6956TIP3    H242284   0.472   1.747   2.601  0.3183  0.4847 -0.1642
 6957TIP3   OH242285   5.825   1.969   5.927  0.0031 -0.9453  0.1407
 6957TIP3    H142286   5.872   2.048   5.953 -1.4489 -0.6449  1.9170
 6957TIP3    H242287   5.788   1.990   5.842 -0.6484  0.4274  0.7450
 6958TIP3   OH242288   5.271   1.448   0.186  0.0947  0.0844  0.7248
 6958TIP3    H142289   5.290   1.359   0.156  0.7424  0.8733 -1.2849
 6958TIP3    H242290   5.356   1.491   0.191 -0.3584  1.0948  0.0044
 6959TIP3   OH242291   5.573   4.190  12.387  0.6084 -0.2717 -0.4353
 6959TIP3    H142292   5.477   4.192  12.382  0.5636 -0.6585  0.2302
 6959TIP3    H242293   5.599   4.282  12.398  0.2932 -0.1981 -0.3029
 6960TIP3   OH242294   2.973   0.729  16.552 -1.0713 -0.1260  0.2464
 6960TIP3    H142295   3.005   0.755  16.638  0.6602  1.1689 -0.7215
 6960TIP3    H242296   2.958   0.635  16.558  0.4111 -0.2973  1.5605
 6961TIP3   OH242297   6.680   6.589  12.576 -0.9016  0.4729 -0.2639
 6961TIP3    H142298   6.665   6.497  12.556 -0.6566  0.5540 -0.8283
 6961TIP3    H242299   6.765   6.609  12.537 -1.8652  1.4593 -1.9126
 6962TIP3   OH242300   2.503   2.899  11.714  0.1193  0.2404  0.1564
 6962TIP3    H142301   2.492   2.834  11.644  0.6298 -0.9779  1.1939
 6962TIP3    H242302   2.466   2.980  11.678  2.0137  0.1112 -2.2311
 6963TIP3   OH242303   0.338   4.172   4.344 -0.6112  0.2373  0.0628
 6963TIP3    H142304   0.395   4.139   4.274  2.2188 -0.4345  2.5647
 6963TIP3    H242305   0.292   4.094   4.375 -3.2101  0.8346 -2.1731
 6964TIP3   OH242306   2.027   5.324  15.800  0.3907 -0.3480  0.0137
 6964TIP3    H142307   2.085   5.380  15.851 -0.3354  1.2240 -0.8609
 6964TIP3    H242308   2.025   5.241  15.848  1.0078  0.5632  1.6416
 6965TIP3   OH242309   4.346   6.262  10.641 -0.0586  0.3982 -0.2837
 6965TIP3    H142310   4.428   6.263  10.591 -0.2241 -0.9945 -0.6069
 6965TIP3    H242311   4.290   6.201  10.594  0.1490 -1.7958  2.1577
 6966TIP3   OH242312   6.305   3.195   4.869  0.7531  0.0027 -0.1470
 6966TIP3    H142313   6.391   3.219   4.835  0.0465  2.1038 -0.5362
 6966TIP3    H242314   6.263   3.279   4.890 -1.0948 -1.0008  0.2986
 6967TIP3   OH242315   0.608   2.067  12.233 -0.2369 -0.5696  0.4639
 6967TIP3    H142316   0.545   2.118  12.181 -0.5213 -1.4304 -0.0475
 6967TIP3    H242317   0.684   2.057  12.175 -0.6314 -1.6997  0.1276
 6968TIP3   OH242318   4.428   0.761  15.750 -0.3386 -0.3046 -0.2649
 6968TIP3    H142319   4.455   0.852  15.738  0.2629 -0.5413 -0.7195
 6968TIP3    H242320   4.363   0.746  15.682 -0.3736 -0.2413 -0.2449
 6969TIP3   OH242321   4.418   2.932  14.273 -0.0387 -0.0144  0.0948
 6969TIP3    H142322   4.450   2.847  14.242 -0.3373  0.3079 -1.1241
 6969TIP3    H242323   4.323   2.924  14.270 -0.0790 -0.1312  1.3868
 6970TIP3   OH242324   4.284   6.145   3.034  0.9433 -0.2139  0.3890
 6970TIP3    H142325   4.244   6.058   3.032  0.7111 -0.1090  0.5061
 6970TIP3    H242326   4.315   6.159   2.944  0.3186 -0.1087  0.1914
 6971TIP3   OH242327   5.837   5.764   2.020 -0.3535 -0.0761  0.2574
 6971TIP3    H142328   5.841   5.765   1.925 -0.6227  0.9751  0.2528
 6971TIP3    H242329   5.746   5.783   2.040 -0.4281 -0.9028  0.7187
 6972TIP3   OH242330   0.311   6.223  16.985 -0.1294  0.2519  0.7417
 6972TIP3    H142331   0.355   6.298  16.946 -1.8713  0.9505  0.0869
 6972TIP3    H242332   0.228   6.216  16.937 -0.2961 -1.6580  1.2633
 6973TIP3   OH242333   1.742   2.792  14.393  0.4953  0.3468  0.2001
 6973TIP3    H142334   1.669   2.853  14.381 -0.4136 -0.9012 -0.7891
 6973TIP3    H242335   1.770   2.770  14.304  1.2991 -0.1232  0.5575
 6974TIP3   OH242336   2.745   3.513  11.881  0.0552 -0.4001 -0.6415
 6974TIP3    H142337   2.651   3.517  11.864 -0.4501  0.6570  2.1018
 6974TIP3    H242338   2.762   3.422  11.903 -0.4905 -0.4279 -0.3257
 6975TIP3   OH242339   0.155   0.539  13.654 -0.0557 -0.3381  0.2190
 6975TIP3    H142340   0.108   0.526  13.736  1.6463  1.3599  1.5251
 6975TIP3    H242341   0.211   0.462  13.646 -0.7877 -0.8794  0.2441
 6976TIP3   OH242342   4.323   3.367   5.212  0.4437  0.9516 -0.0254
 6976TIP3    H142343   4.246   3.423   5.216  0.1418  0.4156  2.1035
 6976TIP3    H242344   4.389   3.421   5.168 -0.7599  1.8570 -0.7581
 6977TIP3   OH242345   0.074   5.078   3.909 -0.0183  0.9974  0.0182
 6977TIP3    H142346   0.015   5.051   3.839  1.2555 -0.4961 -0.5161
 6977TIP3    H242347   0.036   5.041   3.989  1.5159 -2.2068 -0.6561
 6978TIP3   OH242348   0.676   1.211   4.807 -0.3612  0.2893 -0.0524
 6978TIP3    H142349   0.594   1.179   4.770 -0.3694  0.6260 -0.3207
 6978TIP3    H242350   0.708   1.275   4.744  0.7150 -0.7276 -0.5566
 6979TIP3   OH242351   6.630   3.586   0.887 -0.5568  0.2921  0.4669
 6979TIP3    H142352   6.626   3.596   0.792 -1.8692 -0.1653  0.4659
 6979TIP3    H242353   6.542   3.609   0.917 -0.5744 -1.0180  1.4353
 6980TIP3   OH242354   2.804   1.443   3.216  0.3367 -0.1631 -0.1659
 6980TIP3    H142355   2.836   1.364   3.258 -1.2482 -0.3092  0.8203
 6980TIP3    H242356   2.825   1.514   3.277  1.7121  0.1953 -1.0239
 6981TIP3   OH242357   1.782   2.795  14.119 -0.4025 -0.0736 -0.9043
 6981TIP3    H142358   1.733   2.877  14.120  0.3032  0.3568 -1.2952
 6981TIP3    H242359   1.735   2.739  14.057 -0.2109  0.4534 -1.5266
 6982TIP3   OH242360   6.086   3.200   4.697 -0.6351 -0.1550  0.4355
 6982TIP3    H142361   6.170   3.220   4.738  0.1204 -0.5974 -0.8750
 6982TIP3    H242362   6.035   3.281   4.707  0.1897  0.3478  0.6425
 6983TIP3   OH242363   1.204   2.188  11.072 -0.0305  0.2735 -0.2463
 6983TIP3    H142364   1.129   2.231  11.030 -0.2645 -0.7398 -0.8779
 6983TIP3    H242365   1.269   2.258  11.081 -0.2796  0.6973 -1.5727
 6984TIP3   OH242366   3.299   3.880   1.685  0.2521 -0.4041  0.3934
 6984TIP3    H142367   3.247   3.887   1.605 -0.1073  1.6350  0.7732
 6984TIP3    H242368   3.366   3.947   1.675 -0.3363  0.4708  2.1766
 6985TIP3   OH242369   4.129   5.490  14.490 -0.1615 -0.0927 -0.2108
 6985TIP3    H142370   4.208   5.490  14.436  1.1536 -1.2043  1.6364
 6985TIP3    H242371   4.161   5.482  14.580 -2.4054 -1.5458  0.5201
 6986TIP3   OH242372   4.752   4.857   5.423 -0.1368  0.2691 -0.6484
 6986TIP3    H142373   4.774   4.771   5.457 -1.3028  0.2427  0.0889
 6986TIP3    H242374   4.772   4.852   5.330  0.5433 -0.5434 -0.4599
 6987TIP3   OH242375   0.055   0.603   4.806 -0.8158 -0.2203 -0.0727
 6987TIP3    H142376   0.079   0.646   4.888 -2.6040  1.1289 -0.2190
 6987TIP3    H242377   0.016   0.673   4.753 -3.0330 -1.8291 -0.6549
 6988TIP3   OH242378   0.084   1.592   1.991  0.2828  0.0346 -0.1102
 6988TIP3    H142379   0.143   1.667   1.999 -1.9130  1.6049  2.3831
 6988TIP3    H242380   0.060   1.571   2.082 -1.3644 -1.8615 -0.9403
 6989TIP3   OH242381   1.872   1.753   5.693  0.1054  0.1424  0.1039
 6989TIP3    H142382   1.833   1.714   5.771  2.0710  1.0089  1.5584
 6989TIP3    H242383   1.879   1.680   5.631 -1.1321 -0.6370  0.8573
 6990TIP3   OH242384   3.854   5.001  11.935 -0.0426 -0.3157 -0.1133
 6990TIP3    H142385   3.799   5.022  12.011 -0.4297 -0.5451 -0.3291
 6990TIP3    H242386   3.935   5.050  11.950  0.2243 -1.0310  0.8745
 6991TIP3   OH242387   3.520   4.061  11.724 -0.4542  0.0038 -0.5538
 6991TIP3    H142388   3.442   4.007  11.718 -0.6091  0.3806 -2.3859
 6991TIP3    H242389   3.488   4.150  11.709  0.0817  0.3597  0.4156
 6992TIP3   OH242390   2.162   5.106  14.464  0.1617  0.5029 -0.1301
 6992TIP3    H142391   2.133   5.157  14.539  0.7674 -0.3769  0.7164
 6992TIP3    H242392   2.199   5.171  14.404  0.9613  1.0624  0.9519
 6993TIP3   OH242393   6.270   4.713   0.184  0.0077  0.3779 -0.7741
 6993TIP3    H142394   6.238   4.790   0.136  0.5375  0.2170 -1.3913
 6993TIP3    H242395   6.198   4.651   0.179 -0.6347  1.0298  0.1951
 6994TIP3   OH242396   1.148   1.745   2.017  0.1215 -0.1253 -0.2178
 6994TIP3    H142397   1.154   1.837   2.045 -0.5911  1.0595 -3.7227
 6994TIP3    H242398   1.239   1.714   2.021  0.4362  0.8358  0.5750
 6995TIP3   OH242399   1.476   2.837   4.611 -0.2585  0.3044  0.0845
 6995TIP3    H142400   1.430   2.839   4.695 -0.0036 -0.6308  0.2521
 6995TIP3    H242401   1.520   2.752   4.610  0.4238  0.6644 -0.6314
 6996TIP3   OH242402   2.031   4.670   4.706  0.3842 -0.0195 -0.5503
 6996TIP3    H142403   2.024   4.748   4.761 -2.2817  0.0457 -0.9153
 6996TIP3    H242404   2.010   4.597   4.764  0.6328 -0.2513 -0.7460
 6997TIP3   OH242405   6.244   3.220  12.188 -0.0174 -0.4197  0.3037
 6997TIP3    H142406   6.168   3.240  12.243  0.6835 -0.3488  1.2587
 6997TIP3    H242407   6.267   3.130  12.213 -0.2947 -0.7429 -0.5927
 6998TIP3   OH242408   1.650   0.504   1.852  0.2086  0.0924 -0.2267
 6998TIP3    H142409   1.672   0.525   1.943 -1.8079  1.5312 -0.0344
 6998TIP3    H242410   1.712   0.555   1.801 -0.5105  1.5704  0.3343
 6999TIP3   OH242411   3.692   0.263   3.940 -0.4786  0.7946 -0.1521
 6999TIP3    H142412   3.617   0.284   3.885  0.1356  2.2011 -0.4984
 6999TIP3    H242413   3.684   0.170   3.959 -2.1784  0.8911 -0.3659
 7000TIP3   OH242414   4.574   4.758  10.701 -0.1439 -0.0255  0.8604
 7000TIP3    H142415   4.569   4.762  10.796  2.4968  0.4041  0.9979
 7000TIP3    H242416   4.647   4.814  10.677 -0.2404 -0.7705 -1.3784
 7001TIP3   OH242417   6.377   5.910   5.945 -0.7427  0.0898 -0.7110
 7001TIP3    H142418   6.390   6.005   5.952  0.1685 -0.0578 -0.3582
 7001TIP3    H242419   6.362   5.882   6.035  1.9437 -0.5130 -0.4050
 7002TIP3   OH242420   3.244   1.387  14.850 -0.1784  0.0035  0.5692
 7002TIP3    H142421   3.295   1.403  14.771 -1.2125 -0.4079 -0.1877
 7002TIP3    H242422   3.309   1.365  14.917  0.7063  0.4627 -0.1377
 7003TIP3   OH242423   6.065   5.978  14.089  0.0044  0.6381  0.3237
 7003TIP3    H142424   6.155   6.007  14.107 -0.0628  1.2908 -0.4050
 7003TIP3    H242425   6.012   6.057  14.100 -0.3635  0.4628 -0.2104
 7004TIP3   OH242426   6.480   2.407  14.132 -0.4685  0.0368  0.0543
 7004TIP3    H142427   6.457   2.436  14.044  0.9423  2.1354  0.3509
 7004TIP3    H242428   6.572   2.431  14.143  0.1055 -2.4580  1.2062
 7005TIP3   OH242429   4.363   6.421   1.468 -0.1444 -0.1343  0.2112
 7005TIP3    H142430   4.333   6.396   1.555  1.7759 -2.2960  0.2910
 7005TIP3    H242431   4.294   6.388   1.409  0.1256 -1.5826  0.6809
 7006TIP3   OH242432   0.015   1.064   1.778  0.2614 -0.4646 -0.1627
 7006TIP3    H142433   0.104   1.075   1.810  0.1352 -2.0008  0.7671
 7006TIP3    H242434  -0.033   1.028   1.852 -0.8583 -0.7243 -0.9943
 7007TIP3   OH242435   6.625   1.924   5.710 -0.0013  0.2264  0.2867
 7007TIP3    H142436   6.551   1.939   5.651  1.3829  1.4726 -1.1803
 7007TIP3    H242437   6.671   2.008   5.712  1.4923 -0.5959  1.0025
 7008TIP3   OH242438   0.791   6.484   0.652 -0.0341 -0.1725 -0.3160
 7008TIP3    H142439   0.871   6.431   0.640 -0.1381 -0.7355  1.3523
 7008TIP3    H242440   0.798   6.552   0.585  1.2742 -0.9047 -0.9628
 7009TIP3   OH242441   4.250   0.358  13.961 -0.4142 -0.2891 -0.0684
 7009TIP3    H142442   4.214   0.424  14.020 -2.3000  0.0334 -1.5424
 7009TIP3    H242443   4.318   0.404  13.912 -1.4522  0.4771 -0.8143
 7010TIP3   OH242444   0.353   3.561   5.170 -0.5197  0.2482  0.7263
 7010TIP3    H142445   0.294   3.518   5.109  1.4507 -0.3321 -0.8368
 7010TIP3    H242446   0.383   3.491   5.228 -0.7371  0.3819  0.9998
 7011TIP3   OH242447   6.062   5.860   2.366  0.0269  0.1239  0.3432
 7011TIP3    H142448   6.103   5.873   2.280 -0.1283  1.7353  0.5131
 7011TIP3    H242449   6.125   5.896   2.428  0.6756 -2.0928  1.0246
 7012TIP3   OH242450   0.971   0.813   2.177 -0.1713  0.4101 -0.1622
 7012TIP3    H142451   0.993   0.895   2.221  0.7176  0.1971 -0.1939
 7012TIP3    H242452   0.932   0.840   2.094  0.7396  0.8038 -0.4670
 7013TIP3   OH242453   4.066   3.718  12.220 -0.3796  0.1492 -0.1272
 7013TIP3    H142454   4.050   3.812  12.235 -0.5040  0.0876  0.1236
 7013TIP3    H242455   4.125   3.716  12.145  1.4433  0.5030  1.2771
 7014TIP3   OH242456   1.997   4.389   1.092  0.5022  0.0650 -0.1993
 7014TIP3    H142457   1.961   4.336   1.021 -1.3142  1.0663 -0.0686
 7014TIP3    H242458   2.006   4.476   1.055 -2.6689  1.1588  1.4022
 7015TIP3   OH242459   3.299   0.968  14.002  0.7074 -0.0240  0.1276
 7015TIP3    H142460   3.211   0.951  14.035  1.1500  0.6510  1.7228
 7015TIP3    H242461   3.357   0.946  14.075  1.9176 -0.9690 -1.0770
 7016TIP3   OH242462   5.469   1.910   3.725 -0.0073 -0.5025 -0.4590
 7016TIP3    H142463   5.405   1.982   3.730 -0.9225 -1.4282  1.7572
 7016TIP3    H242464   5.551   1.953   3.701 -1.3059  0.7903 -2.7816
 7017TIP3   OH242465   6.510   6.151  12.125 -0.6434  0.1344  0.0379
 7017TIP3    H142466   6.430   6.181  12.082  0.5250  1.7966 -1.0224
 7017TIP3    H242467   6.512   6.199  12.208 -1.8501 -1.5721  1.1119
 7018TIP3   OH242468   6.181   5.455   3.424 -0.1208 -0.0704  0.6293
 7018TIP3    H142469   6.134   5.538   3.425 -0.6983 -0.3846  0.1553
 7018TIP3    H242470   6.116   5.391   3.397  0.8759 -0.3082 -1.3389
 7019TIP3   OH242471   2.118   0.674   1.486 -0.0174 -0.2770 -0.2796
 7019TIP3    H142472   2.057   0.748   1.492 -0.2726 -0.5299  0.2420
 7019TIP3    H242473   2.192   0.700   1.542 -0.5181 -0.8116  0.6382
 7020TIP3   OH242474   1.320   1.219  14.308  0.0497 -0.3579 -0.4799
 7020TIP3    H142475   1.307   1.255  14.220  0.3504  0.7309 -0.0815
 7020TIP3    H242476   1.405   1.252  14.336 -1.6528  2.4648  1.7130
 7021TIP3   OH242477   6.406   4.675  11.771 -0.3304  0.5281 -0.4983
 7021TIP3    H142478   6.472   4.618  11.731 -1.8090  0.0513 -2.2988
 7021TIP3    H242479   6.361   4.619  11.834  0.2294  0.5437 -0.0821
 7022TIP3   OH242480   4.457   1.705   1.797 -0.5723 -0.4754  0.2782
 7022TIP3    H142481   4.512   1.677   1.870  0.4025 -0.0856 -0.3047
 7022TIP3    H242482   4.438   1.623   1.750 -0.6728 -0.6381  0.5961
 7023TIP3   OH242483   0.540   4.219  14.683  0.5013  0.7226  0.3142
 7023TIP3    H142484   0.595   4.141  14.682  2.0425  1.7587  1.8929
 7023TIP3    H242485   0.588   4.282  14.629  0.8518  1.6038  1.6411
 7024TIP3   OH242486   6.713   6.594  15.059  0.3650  0.2315  0.1384
 7024TIP3    H142487   6.792   6.580  15.110 -0.5486  0.8958  1.7790
 7024TIP3    H242488   6.643   6.559  15.114 -0.5486  0.2322 -1.0103
 7025TIP3   OH242489   3.321   2.286  14.628  0.1887  0.0135  0.3251
 7025TIP3    H142490   3.412   2.256  14.637  0.3265 -0.0392 -1.1303
 7025TIP3    H242491   3.328   2.380  14.610 -0.0053 -0.1551 -0.6420
 7026TIP3   OH242492   0.383   2.970  15.006 -0.4975  0.1580 -0.4241
 7026TIP3    H142493   0.289   2.968  15.019 -0.3944 -2.4125  0.3047
 7026TIP3    H242494   0.419   2.925  15.083  1.2276  0.1235 -1.2288
 7027TIP3   OH242495   4.400   6.036   3.319 -0.3009 -0.6728  0.4562
 7027TIP3    H142496   4.448   5.957   3.297 -1.4154 -1.3552  0.4309
 7027TIP3    H242497   4.387   6.080   3.235  0.8557 -0.1453  0.5476
 7028TIP3   OH242498   2.709   2.639  12.770  0.2948  0.5555  0.2149
 7028TIP3    H142499   2.692   2.725  12.807 -0.3917  0.7416 -0.5297
 7028TIP3    H242500   2.666   2.578  12.831  0.1474  0.7841  0.3410
 7029TIP3   OH242501   6.645   5.114  13.945 -0.7976 -0.5585  0.0466
 7029TIP3    H142502   6.599   5.192  13.977  1.8851  0.8942  0.5421
 7029TIP3    H242503   6.685   5.076  14.024  1.7345  0.2293 -0.8040
 7030TIP3   OH242504   6.667   6.052  13.108  0.5509 -0.1970  0.2017
 7030TIP3    H142505   6.685   6.143  13.131  1.0797 -0.3133  0.2611
 7030TIP3    H242506   6.601   6.024  13.171 -0.6018  0.5449 -0.6588
 7031TIP3   OH242507   5.219   1.498  14.920 -0.1421  0.7839 -0.2024
 7031TIP3    H142508   5.156   1.501  14.848 -0.9100  0.4496  0.4524
 7031TIP3    H242509   5.212   1.583  14.963 -0.6344  0.5074  0.2761
 7032TIP3   OH242510   0.936   4.342   3.537  0.0756  0.3882  0.5793
 7032TIP3    H142511   0.907   4.374   3.452 -1.6338 -0.6871  0.7313
 7032TIP3    H242512   0.889   4.260   3.549  1.0490  0.0359  2.1284
 7033TIP3   OH242513   0.924   4.002  15.567 -0.0926  0.0213 -0.6524
 7033TIP3    H142514   0.967   3.928  15.611 -1.9186  0.1473  1.4334
 7033TIP3    H242515   0.990   4.071  15.569  0.3091 -0.3690  0.8343
 7034TIP3   OH242516   4.558   5.339   3.902  0.0868 -0.2278 -0.2086
 7034TIP3    H142517   4.525   5.280   3.834  1.6855  0.7201 -1.8894
 7034TIP3    H242518   4.653   5.327   3.900  0.3081  1.2181  0.5225
 7035TIP3   OH242519   4.016   0.050  15.258 -0.4480  0.2792 -0.2790
 7035TIP3    H142520   3.922   0.044  15.277 -0.5451 -3.7595 -1.5136
 7035TIP3    H242521   4.025   0.008  15.172  2.4710  0.7042 -0.2034
 7036TIP3   OH242522   1.102   3.758  14.112  0.7041  0.3361  0.0665
 7036TIP3    H142523   1.072   3.775  14.201  0.0992 -2.7388  0.5311
 7036TIP3    H242524   1.192   3.725  14.123 -0.2624 -2.5197 -0.1596
 7037TIP3   OH242525   5.219   6.367   1.130 -0.4563  0.2929  0.1797
 7037TIP3    H142526   5.168   6.362   1.211  0.9376  1.9839  1.1863
 7037TIP3    H242527   5.262   6.452   1.133 -1.0525  0.7489 -2.7670
 7038TIP3   OH242528   1.396   3.968  15.714 -0.0198 -0.1616 -0.5083
 7038TIP3    H142529   1.318   4.023  15.719 -0.6325 -0.8784 -1.6957
 7038TIP3    H242530   1.367   3.882  15.746  0.9718  0.2278  1.4908
 7039TIP3   OH242531   5.478   2.028   1.493  0.1087 -0.2591 -0.0044
 7039TIP3    H142532   5.468   1.941   1.533 -1.0674 -1.4382 -2.7420
 7039TIP3    H242533   5.522   2.011   1.410  2.2183  2.1047  0.5633
 7040TIP3   OH242534   4.010   6.336  16.251 -0.6594 -0.0108 -0.3088
 7040TIP3    H142535   4.049   6.295  16.174  0.3459  0.9899 -0.3508
 7040TIP3    H242536   4.064   6.414  16.266 -0.3160 -0.6589  1.9256
 7041TIP3   OH242537   4.001   0.925  16.059  0.4474  0.1517  0.1148
 7041TIP3    H142538   4.081   0.903  16.011 -0.2896  0.0509 -1.0570
 7041TIP3    H242539   3.932   0.874  16.018 -0.3167  0.5966  0.8207
 7042TIP3   OH242540   3.816   4.673  14.096 -0.2240  0.0883 -0.5898
 7042TIP3    H142541   3.731   4.716  14.094 -0.9867 -1.4304 -2.0059
 7042TIP3    H242542   3.866   4.722  14.162 -2.4392  0.4951  0.8546
 7043TIP3   OH242543   4.888   3.448   0.694 -0.1241  0.4586  0.4415
 7043TIP3    H142544   4.937   3.374   0.730  1.1215  1.2978  0.5144
 7043TIP3    H242545   4.881   3.510   0.767  0.9996  1.4674 -0.2794
 7044TIP3   OH242546   1.564   4.991  14.576  0.3743  0.0810 -0.0744
 7044TIP3    H142547   1.556   4.934  14.499  0.5216 -0.0941  0.0388
 7044TIP3    H242548   1.543   5.079  14.543  3.1672  0.4571 -0.9570
 7045TIP3   OH242549   6.676   1.946  15.326 -0.3032 -0.5286 -0.4677
 7045TIP3    H142550   6.742   1.944  15.396  0.4680 -1.8852 -1.2032
 7045TIP3    H242551   6.710   2.010  15.264 -1.4239  1.3201  0.7941
 7046TIP3   OH242552   5.715   1.040   6.333  0.1214 -0.5043  0.3828
 7046TIP3    H142553   5.665   1.122   6.333 -1.5998 -1.4891 -1.6822
 7046TIP3    H242554   5.749   1.033   6.244 -1.2666 -2.8679 -0.0108
 7047TIP3   OH242555   6.481   4.259   6.473 -0.2329 -0.0694  0.4626
 7047TIP3    H142556   6.527   4.190   6.425  0.3872  0.9552 -0.4557
 7047TIP3    H242557   6.516   4.254   6.561 -0.8876 -1.5368  0.6614
 7048TIP3   OH242558   4.716   1.029   3.144 -0.0190 -0.8894  0.2788
 7048TIP3    H142559   4.688   1.019   3.053 -1.7615 -2.8476  0.9944
 7048TIP3    H242560   4.792   0.971   3.153  0.0262 -0.8534  0.1263
 7049TIP3   OH242561   2.486   5.326  16.723 -0.3166  0.4422 -0.1848
 7049TIP3    H142562   2.513   5.408  16.764  0.0136 -0.6311  1.7710
 7049TIP3    H242563   2.394   5.316  16.746 -0.4436  0.4319 -0.6926
 7050TIP3   OH242564   4.424   1.597   1.314 -0.4076  0.0223  0.3475
 7050TIP3    H142565   4.455   1.682   1.283  3.1017 -0.1316  3.1711
 7050TIP3    H242566   4.339   1.616   1.354 -0.9391  1.6580 -1.4316
 7051TIP3   OH242567   2.137   4.469   3.234  0.1687  0.4246  0.5972
 7051TIP3    H142568   2.216   4.439   3.188 -0.0265  0.2195  0.3912
 7051TIP3    H242569   2.151   4.562   3.248  0.3721  0.4257  0.3994
 7052TIP3   OH242570   6.519   1.916   2.919  0.4599 -0.6096  0.1703
 7052TIP3    H142571   6.427   1.916   2.947  0.6597 -2.6457  0.8435
 7052TIP3    H242572   6.569   1.897   2.999  1.4206 -0.3244 -0.3529
 7053TIP3   OH242573   1.105   4.283   5.502 -0.8510  0.1286  0.5242
 7053TIP3    H142574   1.198   4.262   5.497 -0.6625  0.9735  0.3179
 7053TIP3    H242575   1.095   4.325   5.588 -0.9772  0.3191  0.4159
 7054TIP3   OH242576   3.946   2.717  12.825 -0.2113 -0.3778 -0.6010
 7054TIP3    H142577   3.998   2.782  12.873 -0.4227 -0.5341 -0.1603
 7054TIP3    H242578   3.979   2.721  12.735  0.4354 -0.3436 -0.3601
 7055TIP3   OH242579   4.353   0.364  16.098 -0.0696 -0.2883  0.1876
 7055TIP3    H142580   4.352   0.436  16.035 -0.0468 -0.0090  0.5068
 7055TIP3    H242581   4.411   0.299  16.060 -2.2284 -1.3430 -1.4402
 7056TIP3   OH242582   5.616   6.289  16.746 -0.3756 -0.3201  0.0145
 7056TIP3    H142583   5.694   6.304  16.800  0.2026  1.5289 -1.2764
 7056TIP3    H242584   5.648   6.244  16.668 -0.7950 -0.6557  0.0328
 7057TIP3   OH242585   3.975   5.446   5.583 -0.5665 -0.1283 -0.5110
 7057TIP3    H142586   4.010   5.479   5.666 -1.7365  2.1763 -0.8719
 7057TIP3    H242587   4.049   5.449   5.523 -0.3866  0.8460 -0.2477
 7058TIP3   OH242588   0.001   2.080   4.743 -0.7136 -0.5396 -0.0793
 7058TIP3    H142589   0.070   2.015   4.729 -1.2638 -0.7926 -1.6670
 7058TIP3    H242590   0.047   2.164   4.743 -0.5887 -0.5674 -2.8826
 7059TIP3   OH242591   5.445   5.626   2.902  0.8669 -0.0912  0.8648
 7059TIP3    H142592   5.451   5.548   2.847 -0.0073  0.4089  0.0331
 7059TIP3    H242593   5.352   5.634   2.923  1.2451 -0.5067  2.7885
 7060TIP3   OH242594   4.448   6.628  15.839 -0.0296 -0.6843 -0.3196
 7060TIP3    H142595   4.464   6.722  15.851 -1.0084 -0.4492 -0.7944
 7060TIP3    H242596   4.510   6.602  15.771  1.5984 -0.8168  1.1567
 7061TIP3   OH242597   4.973   1.699  15.330  0.5475 -0.0598 -0.2879
 7061TIP3    H142598   4.885   1.689  15.364  0.7404 -2.1499 -0.3578
 7061TIP3    H242599   5.027   1.643  15.385  2.0287  2.0272  0.4497
 7062TIP3   OH242600   6.114   6.657   3.166  0.0923 -0.3976 -0.1046
 7062TIP3    H142601   6.099   6.607   3.085  2.4242  0.1675 -0.9139
 7062TIP3    H242602   6.207   6.647   3.184 -0.3346 -0.2630  2.3837
 7063TIP3   OH242603   2.229   3.175   0.991  0.4714 -0.4506  0.2481
 7063TIP3    H142604   2.322   3.174   0.971  0.8188  0.0832  1.8551
 7063TIP3    H242605   2.216   3.252   1.045 -0.9389 -0.4357 -0.0922
 7064TIP3   OH242606   2.790   3.207   3.412  0.6155 -0.1406 -0.4628
 7064TIP3    H142607   2.790   3.232   3.320 -0.0220 -0.5607 -0.5788
 7064TIP3    H242608   2.817   3.115   3.412  0.9959 -0.0328 -0.1968
 7065TIP3   OH242609   3.536   3.597   4.433 -0.1146  0.4802  0.5934
 7065TIP3    H142610   3.593   3.569   4.362 -1.7690  0.6105 -0.8210
 7065TIP3    H242611   3.449   3.567   4.408 -0.8948  1.3967  2.0832
 7066TIP3   OH242612   0.766   6.607   3.893 -0.1166  0.1227 -0.3941
 7066TIP3    H142613   0.699   6.594   3.961  1.5779 -2.6246  0.7852
 7066TIP3    H242614   0.834   6.658   3.936  0.6097 -0.9657 -0.2396
 7067TIP3   OH242615   6.368   3.606  16.688 -0.0804 -0.0625  0.1052
 7067TIP3    H142616   6.312   3.553  16.744 -3.6592  2.0315 -1.3064
 7067TIP3    H242617   6.348   3.577  16.599  1.0333  0.7557 -0.4237
 7068TIP3   OH242618   0.524   5.388   2.435 -0.3045 -0.4510 -0.0590
 7068TIP3    H142619   0.615   5.417   2.443 -0.3854  0.2412 -1.4443
 7068TIP3    H242620   0.491   5.435   2.358 -1.8122 -0.7513  0.3875
 7069TIP3   OH242621   5.594   1.257  14.028  0.3767 -0.2441 -0.6981
 7069TIP3    H142622   5.578   1.346  14.059  0.5792 -0.0032 -1.2774
 7069TIP3    H242623   5.623   1.209  14.105  1.1611  0.4231 -0.5770
 7070TIP3   OH242624   0.009   5.213  14.825 -0.4505  0.3486 -0.0185
 7070TIP3    H142625  -0.012   5.120  14.814 -0.8134  0.4842 -0.5126
 7070TIP3    H242626   0.070   5.232  14.754 -0.1986  0.4309  0.2235
 7071TIP3   OH242627   4.265   4.367  16.331 -0.5008  0.7433 -0.4911
 7071TIP3    H142628   4.218   4.416  16.398  0.0664 -0.6218  0.9187
 7071TIP3    H242629   4.336   4.426  16.305 -0.4466  1.1026  0.4349
 7072TIP3   OH242630   0.653   5.814   2.203  0.5209  0.3969 -0.4844
 7072TIP3    H142631   0.631   5.787   2.292  1.7711  0.1512 -0.2534
 7072TIP3    H242632   0.629   5.907   2.201  0.5085  0.4120  0.1120
 7073TIP3   OH242633   3.368   2.463  13.603 -0.4457  0.0728 -0.0166
 7073TIP3    H142634   3.434   2.505  13.548 -0.2360  0.2526  0.3654
 7073TIP3    H242635   3.337   2.533  13.661 -1.3361  0.1055 -0.5273
 7074TIP3   OH242636   0.995   0.041   4.352  1.2666  0.2384  0.3486
 7074TIP3    H142637   1.029   0.110   4.294  1.0867  0.7686  0.8617
 7074TIP3    H242638   1.068  -0.019   4.364  1.1671 -0.1259 -0.7957
 7075TIP3   OH242639   1.296   3.807   2.527  0.0687 -0.2908  0.1874
 7075TIP3    H142640   1.304   3.867   2.453  0.7222 -0.6619 -0.0498
 7075TIP3    H242641   1.359   3.738   2.508 -0.5349 -0.9523  0.5546
 7076TIP3   OH242642   5.046   3.092  11.834 -0.2710 -0.5503 -0.7203
 7076TIP3    H142643   5.115   3.098  11.768  2.6675 -1.2265  2.1518
 7076TIP3    H242644   5.064   3.010  11.880 -3.3996 -1.0578 -0.2732
 7077TIP3   OH242645   4.094   3.961  12.355  0.0965  0.0761  0.3734
 7077TIP3    H142646   4.092   4.056  12.344  3.7835  0.5301  2.5876
 7077TIP3    H242647   4.126   3.949  12.445 -0.6627 -3.2535  0.2320
 7078TIP3   OH242648   1.646   1.236   6.492 -0.1840 -0.0608 -0.0747
 7078TIP3    H142649   1.575   1.186   6.450 -0.9959  2.2656 -1.5852
 7078TIP3    H242650   1.609   1.324   6.503  1.9836  0.8014  0.4429
 7079TIP3   OH242651   5.297   0.404   2.593  0.3207 -0.2030  0.0101
 7079TIP3    H142652   5.332   0.492   2.608  0.7015  0.0433 -2.0810
 7079TIP3    H242653   5.374   0.351   2.572  0.0905 -1.0438  1.2442
 7080TIP3   OH242654   0.837   0.511  10.362 -0.2388 -0.3787 -0.2707
 7080TIP3    H142655   0.755   0.493  10.317 -0.1243 -2.2700  0.2380
 7080TIP3    H242656   0.905   0.497  10.296 -0.1968 -1.1849 -0.0689
 7081TIP3   OH242657   3.865   3.082   2.188 -0.4174 -0.3557  0.2339
 7081TIP3    H142658   3.927   3.050   2.123 -2.0245  0.4026 -1.7583
 7081TIP3    H242659   3.910   3.075   2.272  1.9367 -0.7941 -1.0516
 7082TIP3   OH242660   1.707   1.886   2.734  0.4219 -0.1897 -0.1859
 7082TIP3    H142661   1.764   1.912   2.661 -1.2205 -0.0692 -1.4352
 7082TIP3    H242662   1.704   1.964   2.790 -0.3387  0.5777 -1.2838
 7083TIP3   OH242663   2.952   4.272  11.716  0.1817 -0.1639 -0.2359
 7083TIP3    H142664   3.005   4.224  11.780  0.1468 -0.0087 -0.0924
 7083TIP3    H242665   2.891   4.206  11.683 -2.1033  0.5284  2.3764
 7084TIP3   OH242666   5.306   4.317   1.070  0.4118  0.2186  0.8437
 7084TIP3    H142667   5.392   4.277   1.086 -0.2908 -1.5005  0.4173
 7084TIP3    H242668   5.285   4.294   0.979 -0.5623  0.5371  0.9794
 7085TIP3   OH242669   6.508   4.516   2.830  0.5435 -0.2419 -0.0738
 7085TIP3    H142670   6.583   4.477   2.875  0.8082  0.0612 -0.2472
 7085TIP3    H242671   6.529   4.509   2.737  0.5418  0.1958 -0.1109
 7086TIP3   OH242672   1.661   1.641  13.957  0.0534 -0.4649 -0.5263
 7086TIP3    H142673   1.731   1.578  13.942 -0.0257 -1.1175  1.6617
 7086TIP3    H242674   1.611   1.604  14.030 -1.4475  0.9416 -0.8081
 7087TIP3   OH242675   3.398   1.419   1.485 -0.8482  0.1110  0.2964
 7087TIP3    H142676   3.475   1.370   1.458  0.6253  2.4716  0.0908
 7087TIP3    H242677   3.343   1.422   1.407  0.2919  1.0507 -0.4951
 7088TIP3   OH242678   6.713   5.407  11.576  0.1429  0.3861 -0.2296
 7088TIP3    H142679   6.752   5.326  11.543  2.3977  1.8476 -1.2176
 7088TIP3    H242680   6.738   5.410  11.668  1.2297  0.6320 -0.5279
 7089TIP3   OH242681   0.934   5.811   5.837  0.4334 -0.0384 -0.2800
 7089TIP3    H142682   0.952   5.905   5.833  0.3658 -0.0265 -0.2994
 7089TIP3    H242683   0.896   5.791   5.752  0.0648 -0.0022 -0.1273
 7090TIP3   OH242684   1.237   2.500  11.056  0.3939 -0.0449  0.0576
 7090TIP3    H142685   1.294   2.562  11.101 -0.7433  0.7189  0.4615
 7090TIP3    H242686   1.158   2.496  11.110 -0.5396  0.0336 -1.2872
 7091TIP3   OH242687   3.324   5.782   0.707  0.0064 -0.1190  0.1905
 7091TIP3    H142688   3.267   5.708   0.730  0.8132 -0.8178 -0.0427
 7091TIP3    H242689   3.390   5.744   0.650  0.5508  0.7520  0.2415
 7092TIP3   OH242690   3.930   2.008  11.554  0.0049  0.1757 -0.3869
 7092TIP3    H142691   3.883   2.086  11.524  0.0832 -0.3833 -2.0175
 7092TIP3    H242692   3.862   1.944  11.571  0.1330 -0.4528 -2.2080
 7093TIP3   OH242693   5.881   0.709  15.033 -0.4536  0.0050 -0.7371
 7093TIP3    H142694   5.904   0.763  14.957  0.3141  0.2478 -0.3300
 7093TIP3    H242695   5.848   0.627  14.995 -1.3791  0.6446 -1.3531
 7094TIP3   OH242696   4.511   0.499   5.178  0.1387  0.0686 -0.1443
 7094TIP3    H142697   4.547   0.559   5.243 -1.0562  2.2726 -1.4636
 7094TIP3    H242698   4.524   0.412   5.216  2.8325  1.0631  1.3520
 7095TIP3   OH242699   6.543   5.341  14.082 -0.1658  0.1595  0.3817
 7095TIP3    H142700   6.530   5.391  14.163 -1.6904  1.4101 -0.6027
 7095TIP3    H242701   6.622   5.379  14.043 -0.2738  0.5627  0.5551
 7096TIP3   OH242702   6.486   5.469   4.423 -0.1000  0.1896  0.0856
 7096TIP3    H142703   6.456   5.511   4.342 -1.8847  0.2912  0.7753
 7096TIP3    H242704   6.515   5.542   4.478  2.0726  0.0417 -0.8207
 7097TIP3   OH242705   2.053   0.780   3.535  0.2890 -0.0624  0.8405
 7097TIP3    H142706   2.039   0.687   3.517  3.1144 -0.4310  0.2986
 7097TIP3    H242707   2.099   0.781   3.618  2.3432  0.6973 -0.2813
 7098TIP3   OH242708   2.270   5.823   5.006  0.2446 -0.5594 -0.3364
 7098TIP3    H142709   2.287   5.915   5.022 -1.2565  0.1414 -2.6099
 7098TIP3    H242710   2.356   5.781   5.017  0.8816  1.0396  0.9445
 7099TIP3   OH242711   0.514   4.233   5.035 -0.0524  0.0089  0.1589
 7099TIP3    H142712   0.467   4.151   5.048 -0.3197  0.0755 -0.3741
 7099TIP3    H242713   0.449   4.293   4.999  0.2509  0.3220  0.1264
 7100TIP3   OH242714   2.649   0.922  11.299 -1.0069 -0.3208 -0.6066
 7100TIP3    H142715   2.580   0.986  11.280 -0.2841  0.0462 -2.0838
 7100TIP3    H242716   2.717   0.974  11.342 -0.6010 -0.1684 -1.4217
 7101TIP3   OH242717   1.833   5.776  10.642 -0.6495  0.3283  0.1394
 7101TIP3    H142718   1.770   5.709  10.617 -0.4000  0.3156 -0.4622
 7101TIP3    H242719   1.795   5.858  10.611 -0.6703  0.3965  0.3432
 7102TIP3   OH242720   4.424   1.525   2.691  0.8706 -0.1757  0.7762
 7102TIP3    H142721   4.384   1.559   2.771 -0.0058  0.5072  0.0404
 7102TIP3    H242722   4.480   1.596   2.660 -1.6190  0.9427 -1.2312
 7103TIP3   OH242723   5.542   2.633  15.228 -0.1740  0.2629 -0.8454
 7103TIP3    H142724   5.544   2.696  15.300 -1.2613  0.6564 -1.1427
 7103TIP3    H242725   5.496   2.680  15.157 -0.0563 -0.4917 -1.4261
 7104TIP3   OH242726   3.146   3.705  11.502  0.7336  0.2854 -0.2828
 7104TIP3    H142727   3.088   3.738  11.434 -0.5442 -1.2635  0.0558
 7104TIP3    H242728   3.102   3.727  11.584  0.4814 -1.1259 -0.0317
 7105TIP3   OH242729   0.830   0.105   0.278  0.0835  0.0198 -0.3476
 7105TIP3    H142730   0.902   0.168   0.282  0.2548 -0.2096  0.2227
 7105TIP3    H242731   0.761   0.151   0.231 -0.9176  1.7484  2.7276
 7106TIP3   OH242732   6.363   2.736   0.973  0.1677  0.6902  0.3731
 7106TIP3    H142733   6.398   2.665   1.027  0.7974 -0.1136 -1.0513
 7106TIP3    H242734   6.268   2.729   0.982  0.2537  0.1384  0.8585
 7107TIP3   OH242735   2.478   3.002  17.205 -0.8624 -0.5829 -0.0040
 7107TIP3    H142736   2.463   2.925  17.259  0.4873  0.3524  1.7324
 7107TIP3    H242737   2.564   2.987  17.166 -0.4642  0.1878  0.5787
 7108TIP3   OH242738   2.056   1.191   6.211  0.2917  0.5455 -0.1080
 7108TIP3    H142739   2.091   1.204   6.122  1.4659  0.7488  0.3808
 7108TIP3    H242740   2.133   1.172   6.264  0.2545  4.9895  1.7860
 7109TIP3   OH242741   3.289   6.405  13.922 -0.0672  0.2565 -0.4525
 7109TIP3    H142742   3.373   6.412  13.968 -0.9452  0.3944  1.1451
 7109TIP3    H242743   3.280   6.489  13.877  0.2998  0.5328 -0.0173
 7110TIP3   OH242744   0.103   3.968   2.574 -0.3955  0.3373  0.7994
 7110TIP3    H142745   0.106   4.045   2.630 -1.8412  1.3355 -0.4662
 7110TIP3    H242746   0.166   3.907   2.614 -1.1210  1.1487  3.2780
 7111TIP3   OH242747   3.723   2.176   2.941 -0.0596  0.4882 -0.0851
 7111TIP3    H142748   3.679   2.158   2.858 -1.8747 -1.1220  1.1549
 7111TIP3    H242749   3.703   2.099   2.995  1.3641  1.3559  1.7208
 7112TIP3   OH242750   2.956   6.509   1.742 -0.0446 -0.0438 -0.3678
 7112TIP3    H142751   3.030   6.469   1.788 -0.3344 -1.3275 -0.9890
 7112TIP3    H242752   2.964   6.478   1.652 -0.5870  0.8924 -0.7541
 7113TIP3   OH242753   5.083   1.948  11.262  0.0934  0.5747 -0.8746
 7113TIP3    H142754   5.157   1.913  11.213 -1.1393 -1.1020 -1.5637
 7113TIP3    H242755   5.006   1.927  11.210 -0.9178  2.1061 -0.0632
 7114TIP3   OH242756   6.471   0.431   4.097  0.0678 -0.2075  0.3125
 7114TIP3    H142757   6.536   0.399   4.034  3.0390  2.5028  1.8608
 7114TIP3    H242758   6.481   0.373   4.172  0.9488  0.3705  0.6558
 7115TIP3   OH242759   3.714   4.380  11.872  0.3254  0.8405  0.5229
 7115TIP3    H142760   3.786   4.318  11.858 -0.8278 -0.0855 -1.4310
 7115TIP3    H242761   3.755   4.467  11.865  1.3144  0.3159 -0.2660
 7116TIP3   OH242762   5.451   3.690   5.761 -0.2107  0.0407 -0.0952
 7116TIP3    H142763   5.404   3.707   5.679 -2.4224 -1.4810  0.8146
 7116TIP3    H242764   5.382   3.669   5.824  1.5942 -0.5542  1.7216
 7117TIP3   OH242765   3.778   3.649  12.696  0.0843 -0.4223 -0.1372
 7117TIP3    H142766   3.833   3.721  12.729 -2.1353  1.8252 -1.1675
 7117TIP3    H242767   3.702   3.650  12.754  0.0458 -2.0364 -0.1342
 7118TIP3   OH242768   6.014   2.380  11.542 -0.5565 -0.2719 -0.4143
 7118TIP3    H142769   6.053   2.352  11.459 -1.9803 -1.1873 -0.7802
 7118TIP3    H242770   5.922   2.355  11.536 -1.0018  0.9859  0.8487
 7119TIP3   OH242771   0.940   5.363   6.449 -0.3227  0.7762  0.8518
 7119TIP3    H142772   0.870   5.302   6.474  0.5761 -0.6344  0.0408
 7119TIP3    H242773   1.020   5.322   6.482  0.5229  0.4650 -1.4878
 7120TIP3   OH242774   6.758   5.742   0.459 -0.3511 -0.4728 -0.3432
 7120TIP3    H142775   6.816   5.818   0.458  0.9889 -1.4565 -2.2260
 7120TIP3    H242776   6.777   5.698   0.541  0.3808  0.1155 -0.1932
 7121TIP3   OH242777   4.110   0.415  16.984  0.2420 -0.1653 -0.5977
 7121TIP3    H142778   4.202   0.427  17.006 -0.5199  1.8533  1.6782
 7121TIP3    H242779   4.098   0.465  16.903  1.0245 -0.0019 -0.6140
 7122TIP3   OH242780   2.366   2.425   4.419 -0.0136  0.5858  0.2348
 7122TIP3    H142781   2.311   2.466   4.352 -0.6491 -0.9735 -0.2155
 7122TIP3    H242782   2.456   2.448   4.393 -0.3028  0.7657 -0.6330
 7123TIP3   OH242783   0.200   3.794   1.239 -0.0088 -0.5153  0.0240
 7123TIP3    H142784   0.269   3.829   1.183  1.1143 -1.0516  1.0580
 7123TIP3    H242785   0.126   3.778   1.179  1.0568 -0.7642 -1.2412
 7124TIP3   OH242786   3.611   5.924  15.305 -0.6107  0.2814 -0.8206
 7124TIP3    H142787   3.577   5.896  15.390 -0.3487  0.3225 -0.7038
 7124TIP3    H242788   3.534   5.924  15.247 -0.4381 -1.6225 -1.0688
 7125TIP3   OH242789   0.670   6.297   4.314  0.5102  0.0348  0.0030
 7125TIP3    H142790   0.734   6.354   4.271  2.6545 -0.6274  2.2378
 7125TIP3    H242791   0.624   6.254   4.242  2.1155  1.0088 -1.6461
 7126TIP3   OH242792   1.444   1.043  11.526  0.0329  0.4526 -0.2172
 7126TIP3    H142793   1.420   1.061  11.617  0.1792 -0.0839 -0.0698
 7126TIP3    H242794   1.515   1.104  11.507 -0.1218  0.6909 -0.0313
 7127TIP3   OH242795   6.364   1.869   0.024 -0.4600 -0.3468  0.7771
 7127TIP3    H142796   6.438   1.908  -0.022  0.2450 -0.7662  1.5510
 7127TIP3    H242797   6.372   1.775   0.007 -1.9303 -0.2305 -0.7496
 7128TIP3   OH242798   3.565   6.786   1.323 -0.1364  0.7852 -0.0280
 7128TIP3    H142799   3.631   6.804   1.256 -0.3099  2.1416  0.1530
 7128TIP3    H242800   3.615   6.772   1.404 -0.0461  1.2647 -0.0031
 7129TIP3   OH242801   4.002   4.444   0.744 -0.2091  0.1386  0.2003
 7129TIP3    H142802   3.961   4.512   0.798 -1.2498  0.2010 -0.6458
 7129TIP3    H242803   3.938   4.428   0.674 -0.8236 -3.0662  1.4196
 7130TIP3   OH242804   5.441   5.949  13.843  0.3631 -0.0248 -0.1458
 7130TIP3    H142805   5.516   5.993  13.883  1.2920 -1.7745  0.0914
 7130TIP3    H242806   5.392   5.913  13.917 -1.0648  1.5868 -0.2578
 7131TIP3   OH242807   2.763   5.932   5.857  0.4125  0.3524  0.5823
 7131TIP3    H142808   2.854   5.963   5.866  0.8283 -1.0273  1.2462
 7131TIP3    H242809   2.752   5.917   5.764  0.4255  1.7933  0.3285
 7132TIP3   OH242810   4.961   0.750  13.076 -0.0403  0.0620  0.2341
 7132TIP3    H142811   5.015   0.700  13.137  0.7239 -0.5462 -0.9263
 7132TIP3    H242812   4.908   0.807  13.132  2.6235  1.5136  1.3577
 7133TIP3   OH242813   1.415   3.290  12.765 -0.0503 -0.0832 -0.1472
 7133TIP3    H142814   1.406   3.351  12.691  0.0777  0.1457  0.0251
 7133TIP3    H242815   1.387   3.341  12.841  0.5464 -0.0794  0.0687
 7134TIP3   OH242816   5.088   0.154   5.420  0.4325 -0.1989 -0.5227
 7134TIP3    H142817   5.154   0.223   5.410  1.9607 -1.4229  0.9455
 7134TIP3    H242818   5.105   0.095   5.346 -0.8713  0.9358 -1.7757
 7135TIP3   OH242819   2.115   5.574  15.576 -0.0265  0.1831  0.2767
 7135TIP3    H142820   2.112   5.560  15.481 -1.1660  1.8821  0.0332
 7135TIP3    H242821   2.132   5.487  15.613  0.1479 -0.5462 -1.4598
 7136TIP3   OH242822   2.840   2.497  13.887  0.1894  0.1765  0.3378
 7136TIP3    H142823   2.935   2.510  13.893  0.3039  0.2136 -1.4991
 7136TIP3    H242824   2.803   2.581  13.914  0.6788  0.2858  0.6792
 7137TIP3   OH242825   2.873   5.996   3.654  0.1583  0.3651 -0.3266
 7137TIP3    H142826   2.937   5.939   3.696  0.5503 -0.5333 -2.0660
 7137TIP3    H242827   2.798   5.995   3.713  1.3852  0.6880  1.2724
 7138TIP3   OH242828   6.423   0.151  15.085  0.0154 -0.3646  0.0321
 7138TIP3    H142829   6.332   0.161  15.059  0.2555 -0.6949 -0.9594
 7138TIP3    H242830   6.470   0.217  15.033  0.6869 -1.9350 -1.4091
 7139TIP3   OH242831   2.287   1.900   1.281  0.1204  0.4279  0.7737
 7139TIP3    H142832   2.290   1.907   1.186  2.7891 -0.6849  0.7262
 7139TIP3    H242833   2.335   1.819   1.301  2.1365  2.1271  3.2117
 7140TIP3   OH242834   4.784   3.806   3.355 -0.4560 -0.1414  0.1061
 7140TIP3    H142835   4.782   3.835   3.447 -0.6155 -0.7834  0.3074
 7140TIP3    H242836   4.798   3.712   3.360 -1.2939 -0.3094 -0.5093
 7141TIP3   OH242837   4.977   6.437  13.750  0.7598 -0.0716  0.1874
 7141TIP3    H142838   4.932   6.383  13.815 -0.4741  1.5341  0.7219
 7141TIP3    H242839   5.051   6.384  13.721  0.2926 -1.5344  1.5950
 7142TIP3   OH242840   2.052   1.623   3.700 -0.1641 -0.0943  0.3653
 7142TIP3    H142841   2.128   1.610   3.757 -0.1619 -0.3186  0.3101
 7142TIP3    H242842   1.980   1.581   3.746  0.1844 -1.7947 -0.6057
 7143TIP3   OH242843   0.106   3.904   3.316 -0.3800  0.3287 -0.1322
 7143TIP3    H142844   0.131   3.859   3.397 -0.8445  0.6980  0.2210
 7143TIP3    H242845   0.025   3.861   3.289  0.8576 -1.1796 -1.5266
 7144TIP3   OH242846   3.709   1.195   1.983 -0.1311  0.2950 -0.0077
 7144TIP3    H142847   3.688   1.129   1.917 -0.9905  1.7469 -1.2346
 7144TIP3    H242848   3.776   1.250   1.942  0.2373  0.4677  0.8164
 7145TIP3   OH242849   5.965   0.049   5.728 -0.3505  0.2598  0.5070
 7145TIP3    H142850   6.018  -0.025   5.698  1.2843  0.1120  3.5524
 7145TIP3    H242851   5.908   0.013   5.795 -2.0278  1.0874 -0.4539
 7146TIP3   OH242852   2.779   4.569  13.928 -0.4073  0.2688 -0.0612
 7146TIP3    H142853   2.833   4.559  13.850 -1.0904 -0.5447 -0.4370
 7146TIP3    H242854   2.813   4.504  13.989 -0.8160 -0.0938 -0.2173
 7147TIP3   OH242855   6.098   1.737  11.671  0.3866 -0.1209  0.4186
 7147TIP3    H142856   6.128   1.826  11.655 -0.8240  0.7611  2.8076
 7147TIP3    H242857   6.006   1.747  11.694  0.0083 -2.0925 -0.1420
 7148TIP3   OH242858   5.054   3.510  16.509  0.0346  0.3794 -0.3222
 7148TIP3    H142859   5.036   3.423  16.474  1.8064 -0.9195  1.8583
 7148TIP3    H242860   5.146   3.525  16.488 -0.4529  2.1099 -1.3773
 7149TIP3   OH242861   5.228   0.456   4.125 -0.4869  0.1660 -0.1877
 7149TIP3    H142862   5.317   0.491   4.126  0.1861 -1.4654 -0.2356
 7149TIP3    H242863   5.218   0.415   4.211 -0.5919 -1.0630 -0.7758
 7150TIP3   OH242864   0.008   2.831  16.448  0.3554 -0.5885 -0.2506
 7150TIP3    H142865  -0.034   2.895  16.390  0.7179  0.5534  0.7408
 7150TIP3    H242866  -0.065   2.779  16.482 -0.5113  2.3464  2.6502
 7151TIP3   OH242867   5.238   4.646   1.946 -0.2843 -0.2757 -0.3698
 7151TIP3    H142868   5.207   4.643   1.856  0.0160  2.1055 -0.5885
 7151TIP3    H242869   5.173   4.699   1.993  1.2621  1.3356  0.0378
 7152TIP3   OH242870   1.253   4.992   4.543  0.0717  0.1709  0.2943
 7152TIP3    H142871   1.248   4.910   4.493  0.4357 -0.2101  0.8691
 7152TIP3    H242872   1.196   5.052   4.496 -0.4326 -0.5059  0.0252
 7153TIP3   OH242873   1.641   2.691   2.777  0.0325  0.1001 -0.2593
 7153TIP3    H142874   1.577   2.620   2.783  1.5939 -1.3190 -0.0391
 7153TIP3    H242875   1.635   2.736   2.861 -0.0785 -0.5514  0.0833
 7154TIP3   OH242876   4.830   2.922  16.569  0.3113  0.3803  0.2067
 7154TIP3    H142877   4.749   2.953  16.608 -0.1879 -0.2989 -0.2913
 7154TIP3    H242878   4.824   2.949  16.477  0.0690 -0.8017 -0.1285
 7155TIP3   OH242879   3.007   3.711  13.158 -0.3612 -0.2075  0.1524
 7155TIP3    H142880   3.075   3.644  13.162  0.0158  0.2415  1.6438
 7155TIP3    H242881   2.926   3.663  13.171 -0.3306 -0.7168 -1.4190
 7156TIP3   OH242882   2.548   1.894  11.047  0.5142 -0.1867 -0.1456
 7156TIP3    H142883   2.576   1.975  11.005  3.0306 -1.6027 -1.3229
 7156TIP3    H242884   2.522   1.837  10.974  2.2838 -1.6910  0.3433
 7157TIP3   OH242885   1.184   1.342  16.400  0.1420 -0.0405  0.0519
 7157TIP3    H142886   1.165   1.342  16.306  0.7676 -0.3954 -0.0773
 7157TIP3    H242887   1.279   1.346  16.406  0.0435  3.1926  0.6983
 7158TIP3   OH242888   5.376   5.733   3.752  0.3839 -0.0877  0.4453
 7158TIP3    H142889   5.396   5.825   3.767 -0.3295 -0.0144  0.9942
 7158TIP3    H242890   5.319   5.708   3.825  1.8305 -1.3857  1.1704
 7159TIP3   OH242891   3.663   5.575   3.066  0.1233 -0.1608 -0.1115
 7159TIP3    H142892   3.682   5.491   3.108 -2.5642 -0.6306  0.2687
 7159TIP3    H242893   3.569   5.573   3.049  0.3522  1.9597 -1.9464
 7160TIP3   OH242894   2.909   4.318  15.157  0.2281  0.0155 -0.1493
 7160TIP3    H142895   2.824   4.305  15.200  0.4359  0.0990  0.2948
 7160TIP3    H242896   2.893   4.297  15.065 -0.0929 -0.7343  0.0690
 7161TIP3   OH242897   5.143   3.819   2.767  0.4781  0.0932  0.3198
 7161TIP3    H142898   5.177   3.856   2.848  1.1043  0.5042 -0.1316
 7161TIP3    H242899   5.049   3.832   2.772  0.6445  1.2702  0.4029
 7162TIP3   OH242900   0.652   0.265  16.852 -0.4896 -0.0168 -0.1284
 7162TIP3    H142901   0.584   0.203  16.826 -0.9956 -0.7224  2.7099
 7162TIP3    H242902   0.681   0.234  16.938  2.2338  1.2639 -0.5353
 7163TIP3   OH242903   6.618   2.557  15.859 -0.2445  0.1437  0.0197
 7163TIP3    H142904   6.538   2.558  15.807 -0.3226 -0.7309  0.1207
 7163TIP3    H242905   6.595   2.507  15.937 -0.0133  1.1093  0.7230
 7164TIP3   OH242906   6.772   1.523   2.236 -0.0038  0.0888 -0.2517
 7164TIP3    H142907   6.814   1.597   2.281  1.9681 -0.4665 -1.1226
 7164TIP3    H242908   6.683   1.520   2.273  0.4301  1.8265  1.0217
 7165TIP3   OH242909   0.105   0.728  11.582 -0.1413  0.1176 -0.3044
 7165TIP3    H142910   0.056   0.674  11.644 -0.7488 -0.6634 -1.4488
 7165TIP3    H242911   0.052   0.807  11.573  0.0123  0.2855  0.2689
 7166TIP3   OH242912   5.812   6.628   5.059  0.4070  0.3860 -0.6680
 7166TIP3    H142913   5.720   6.648   5.041  0.4985  0.8177 -0.6511
 7166TIP3    H242914   5.825   6.542   5.019 -0.6103 -0.6992  1.2657
 7167TIP3   OH242915   6.619   4.176  13.393 -0.1078 -0.9526  0.7130
 7167TIP3    H142916   6.533   4.197  13.429 -0.7995 -2.3927 -0.0631
 7167TIP3    H242917   6.660   4.121  13.459  0.1297 -0.4590  0.9785
 7168TIP3   OH242918   3.133   4.378  15.467  0.0107 -0.6077  0.2725
 7168TIP3    H142919   3.052   4.429  15.472  0.4744  0.1789 -0.1135
 7168TIP3    H242920   3.165   4.393  15.378 -0.1188 -2.0063 -0.0151
 7169TIP3   OH242921   6.709   5.045   1.821  0.3502  0.4016  0.0613
 7169TIP3    H142922   6.735   4.953   1.826  0.8366  0.5378  0.0529
 7169TIP3    H242923   6.751   5.086   1.896  0.3797  0.6794 -0.1062
 7170TIP3   OH242924   1.201   6.640  15.241  0.4989 -1.1480 -0.3780
 7170TIP3    H142925   1.109   6.667  15.237  0.8023 -0.0531 -0.1457
 7170TIP3    H242926   1.209   6.597  15.326  0.4952 -0.0918  0.1688
 7171TIP3   OH242927   3.860   5.399   5.318  0.0080  0.6441 -1.0261
 7171TIP3    H142928   3.809   5.341   5.261 -0.0711  1.7559 -2.1121
 7171TIP3    H242929   3.950   5.371   5.306 -0.3305 -1.4898  1.0858
 7172TIP3   OH242930   0.850   5.315  14.172 -0.4203  0.0930 -0.5709
 7172TIP3    H142931   0.905   5.288  14.098 -1.4721 -0.9697 -0.9794
 7172TIP3    H242932   0.885   5.266  14.246  1.9930  2.7428  0.1184
 7173TIP3   OH242933   5.173   6.443  13.380 -0.5943 -0.2577 -0.3855
 7173TIP3    H142934   5.172   6.374  13.313  0.4142 -0.4319 -0.2311
 7173TIP3    H242935   5.189   6.397  13.462 -0.0083  0.1499 -0.2676
 7174TIP3   OH242936   1.958   5.904  14.391  0.1657  0.5727 -0.2469
 7174TIP3    H142937   1.903   5.838  14.348  2.1683 -1.4046  0.1888
 7174TIP3    H242938   2.016   5.854  14.448  1.5445  2.7485  0.3030
 7175TIP3   OH242939   0.220   6.271   3.442  0.0183  0.2855  0.3129
 7175TIP3    H142940   0.134   6.299   3.473 -0.4732  0.6496 -1.3359
 7175TIP3    H242941   0.261   6.352   3.410  0.9781  0.1196  1.1111
 7176TIP3   OH242942   1.132   6.044  16.070 -0.1081  0.1532  0.7233
 7176TIP3    H142943   1.138   6.053  16.165  0.9305 -0.7607  0.7602
 7176TIP3    H242944   1.162   5.955  16.052 -0.5904  0.2089 -0.4319
 7177TIP3   OH242945   5.849   1.626   2.967  0.3402  0.6135  0.3057
 7177TIP3    H142946   5.757   1.628   2.940  0.0727 -0.0809  1.1604
 7177TIP3    H242947   5.894   1.679   2.901 -0.6324  0.7487 -0.2614
 7178TIP3   OH242948   5.226   3.782   3.796 -0.1424  0.0821 -0.2983
 7178TIP3    H142949   5.154   3.738   3.751 -1.5578  0.1555  1.8293
 7178TIP3    H242950   5.287   3.712   3.819  0.0616 -0.0884 -1.3198
 7179TIP3   OH242951   6.580   5.760  10.881 -0.1998 -0.3128 -0.3026
 7179TIP3    H142952   6.609   5.669  10.879  1.6395  0.2456  0.1538
 7179TIP3    H242953   6.626   5.798  10.956 -0.1481  1.2519 -1.1100
 7180TIP3   OH242954   1.348   6.273  16.125  0.0380 -0.2218 -0.2223
 7180TIP3    H142955   1.338   6.366  16.108  1.9130 -0.2838 -1.9239
 7180TIP3    H242956   1.259   6.238  16.128 -0.5965  1.1333 -2.4785
 7181TIP3   OH242957   5.662   3.312  12.103 -0.2159  0.0403 -0.3075
 7181TIP3    H142958   5.665   3.339  12.195 -0.4239  0.2330 -0.3555
 7181TIP3    H242959   5.577   3.342  12.072  0.3539  1.0790 -0.9042
 7182TIP3   OH242960   2.791   3.785  15.713 -0.4798 -0.1005 -0.2277
 7182TIP3    H142961   2.696   3.772  15.719 -0.2786 -0.9703  1.4374
 7182TIP3    H242962   2.810   3.849  15.782  0.3667 -1.2402  0.6096
 7183TIP3   OH242963   1.178   5.992  16.581  0.3721 -0.1019 -0.2471
 7183TIP3    H142964   1.153   5.900  16.572 -0.7825  0.2181 -0.4345
 7183TIP3    H242965   1.136   6.021  16.662 -0.1944  0.5553 -0.7670
 7184TIP3   OH242966   6.098   5.201  16.138 -1.0727  1.0097 -0.1022
 7184TIP3    H142967   6.087   5.218  16.232 -0.2012  1.2382 -0.0335
 7184TIP3    H242968   6.157   5.270  16.108  0.2079 -0.1929 -0.4181
 7185TIP3   OH242969   1.784   0.138  11.621  0.4205 -0.0176 -0.0784
 7185TIP3    H142970   1.853   0.155  11.685  1.0622 -2.7224 -0.0012
 7185TIP3    H242971   1.726   0.074  11.664 -0.2410 -0.3544 -1.4347
 7186TIP3   OH242972   0.912   4.485   0.751 -0.3110 -0.1023 -0.1096
 7186TIP3    H142973   0.823   4.503   0.779 -0.2515  0.7221 -0.4498
 7186TIP3    H242974   0.951   4.571   0.736  0.6819 -0.4383  0.4575
 7187TIP3   OH242975   1.234   3.962   3.855  0.1947 -0.2221  0.2952
 7187TIP3    H142976   1.240   3.948   3.950  0.9217  2.2534  0.6440
 7187TIP3    H242977   1.261   3.879   3.817  0.0949 -1.1884  2.2539
 7188TIP3   OH242978   0.061   1.750  13.116 -0.0943  0.2956 -0.2207
 7188TIP3    H142979   0.143   1.725  13.158  0.1253 -0.6215 -1.1889
 7188TIP3    H242980   0.003   1.676  13.129 -0.4618  0.5565 -0.3566
 7189TIP3   OH242981   3.170   5.255  12.389  0.3455  0.4236 -0.3469
 7189TIP3    H142982   3.168   5.161  12.409  0.9202  0.4473 -0.1754
 7189TIP3    H242983   3.171   5.258  12.293  1.4357  0.2264 -0.3489
 7190TIP3   OH242984   4.151   2.315  15.488 -0.3870  0.5025 -0.0206
 7190TIP3    H142985   4.109   2.290  15.570  0.4740  1.4811  0.7420
 7190TIP3    H242986   4.209   2.388  15.512  0.9996 -0.1725 -1.2184
 7191TIP3   OH242987   4.177   6.492   5.956 -0.3163 -0.4755  0.4785
 7191TIP3    H142988   4.154   6.570   6.007  1.5847  0.0295  0.5779
 7191TIP3    H242989   4.170   6.419   6.018  0.5084 -0.0498  1.0766
 7192TIP3   OH242990   1.796   1.941   1.158  0.2720 -0.1069 -0.0661
 7192TIP3    H142991   1.786   2.036   1.158 -0.7307 -0.1750 -2.2586
 7192TIP3    H242992   1.710   1.908   1.182  0.0628 -0.4604 -1.2368
 7193TIP3   OH242993   5.668   5.137  13.379 -0.1817  0.2216  1.0484
 7193TIP3    H142994   5.732   5.096  13.438  0.6140  1.7317  1.2612
 7193TIP3    H242995   5.660   5.227  13.411  0.3739  1.1126 -1.2151
 7194TIP3   OH242996   3.208   0.028   0.440 -1.0420 -0.5584 -0.1596
 7194TIP3    H142997   3.256  -0.018   0.508  0.7510 -1.0600 -1.7391
 7194TIP3    H242998   3.178   0.109   0.482  0.4907 -0.6091  1.0601
 7195TIP3   OH242999   6.201   0.631  10.953  0.0377  0.0969  0.7192
 7195TIP3    H143000   6.225   0.658  10.865 -0.3942  0.3308  0.6715
 7195TIP3    H243001   6.109   0.657  10.962  0.2325  0.5466  1.4240
 7196TIP3   OH243002   2.557   3.683   6.267  0.3071 -0.2281  0.4925
 7196TIP3    H143003   2.606   3.641   6.196  0.0151 -0.5705  0.4946
 7196TIP3    H243004   2.471   3.642   6.265  0.2558 -0.1447  0.9624
 7197TIP3   OH243005   4.407   3.454  11.118 -0.3339 -0.2726  0.2402
 7197TIP3    H143006   4.411   3.516  11.046  1.3331  0.1047  0.6248
 7197TIP3    H243007   4.386   3.370  11.077 -1.2501  0.2794 -0.4377
 7198TIP3   OH243008   2.602   5.215  17.116 -0.2716  0.1323  0.0139
 7198TIP3    H143009   2.598   5.198  17.210  1.9215  1.6062  0.4104
 7198TIP3    H243010   2.695   5.228  17.098 -0.7810  0.9172 -2.1657
 7199TIP3   OH243011   0.638   4.958  14.002  0.0562  0.4298 -0.5601
 7199TIP3    H143012   0.621   5.051  13.984 -0.6187  0.6918  1.3215
 7199TIP3    H243013   0.552   4.917  13.999 -0.2359  0.6512  2.8032
 7200TIP3   OH243014   5.848   6.637   3.934 -0.0413  0.3037  0.1814
 7200TIP3    H143015   5.859   6.543   3.946  1.1254  0.2061 -1.4717
 7200TIP3    H243016   5.761   6.646   3.895  0.2091 -0.1712 -0.4900
 7201TIP3   OH243017   2.466   2.733  17.067 -0.4734 -0.7761 -0.3296
 7201TIP3    H143018   2.378   2.732  17.103  0.0331  1.6848  1.1173
 7201TIP3    H243019   2.453   2.752  16.974 -1.4503  0.1896 -0.0068
 7202TIP3   OH243020   1.754   2.770   3.042 -0.6670 -0.0591  0.2450
 7202TIP3    H143021   1.774   2.693   3.095 -1.9419 -0.6006 -0.0278
 7202TIP3    H243022   1.834   2.822   3.043  0.6488 -2.0031 -0.6078
 7203TIP3   OH243023   3.835   5.273  13.662 -0.0448  0.0380  0.1729
 7203TIP3    H143024   3.854   5.319  13.743  1.3303 -1.4164  0.7141
 7203TIP3    H243025   3.892   5.195  13.665  0.9606  0.5959 -2.7436
 7204TIP3   OH243026   3.410   4.106   4.796  0.2395  0.2324 -0.6839
 7204TIP3    H143027   3.370   4.061   4.722  0.3955 -0.5956 -0.2670
 7204TIP3    H243028   3.484   4.051   4.821  0.5899  0.8508 -0.3308
 7205TIP3   OH243029   4.066   1.207   3.921  0.0401 -0.0281 -0.1351
 7205TIP3    H143030   4.087   1.167   3.836 -0.3809  0.0948 -0.2938
 7205TIP3    H243031   3.977   1.239   3.912 -0.9200 -2.2158  1.1713
 7206TIP3   OH243032   6.395   3.817  14.263 -0.0679 -0.4943  0.0027
 7206TIP3    H143033   6.324   3.813  14.326 -0.1463 -3.0760 -0.1905
 7206TIP3    H243034   6.435   3.730  14.266  0.9958 -0.1357 -2.2790
 7207TIP3   OH243035   5.651   6.072   4.446  0.1260 -0.2202 -0.3856
 7207TIP3    H143036   5.675   6.165   4.439 -0.4297 -0.0958 -0.7306
 7207TIP3    H243037   5.678   6.034   4.362 -2.6540  0.3464 -1.6065
 7208TIP3   OH243038   6.157   3.000  11.903 -0.1916 -0.0465 -0.1053
 7208TIP3    H143039   6.244   2.961  11.904  0.4228  1.3121  0.7195
 7208TIP3    H243040   6.171   3.090  11.874 -1.3550  0.0781 -0.2981
 7209TIP3   OH243041   2.079   3.877   0.223  0.0489  0.4883  0.2295
 7209TIP3    H143042   2.020   3.847   0.293 -0.7818 -0.5940 -0.9149
 7209TIP3    H243043   2.020   3.898   0.150  1.0184  0.3146 -0.6076
 7210TIP3   OH243044   5.673   6.291  12.532  0.0034  0.0063  0.3691
 7210TIP3    H143045   5.726   6.360  12.492  0.3331  0.5475  1.7005
 7210TIP3    H243046   5.582   6.317  12.514  0.1598  0.0721 -0.3074
 7211TIP3   OH243047   2.748   2.143   5.539 -0.1066  0.0775 -0.2988
 7211TIP3    H143048   2.802   2.167   5.464 -0.6377  1.3394 -0.2808
 7211TIP3    H243049   2.687   2.078   5.505  1.3419 -1.2939 -0.3425
 7212TIP3   OH243050   5.957   1.245   2.388  0.0307 -0.5325 -0.0638
 7212TIP3    H143051   5.939   1.242   2.294  1.9328 -1.2419 -0.4307
 7212TIP3    H243052   5.886   1.194   2.427  0.7765 -2.7156 -1.3979
 7213TIP3   OH243053   1.062   3.156  13.748  0.1527 -0.4004 -0.4376
 7213TIP3    H143054   0.977   3.121  13.775  0.6084 -0.8559  0.4242
 7213TIP3    H243055   1.112   3.163  13.829  0.1073  2.2283 -0.5973
 7214TIP3   OH243056   6.335   3.569  11.222  0.4560 -0.6553  0.4608
 7214TIP3    H143057   6.292   3.487  11.196  3.0613 -2.6555  2.2135
 7214TIP3    H243058   6.305   3.583  11.313  2.4531 -1.3758  1.2448
 7215TIP3   OH243059   2.230   5.308  15.519  0.5856  0.1048 -0.2943
 7215TIP3    H143060   2.248   5.273  15.606  0.2195 -1.1566 -0.7140
 7215TIP3    H243061   2.190   5.235  15.472 -1.2655  1.4476 -0.8324
 7216TIP3   OH243062   0.138   1.918  11.286  0.1780 -0.4974  0.3486
 7216TIP3    H143063   0.185   1.989  11.241  1.9300 -0.3984  2.2908
 7216TIP3    H243064   0.175   1.838  11.249  0.2819 -0.4133  0.2710
 7217TIP3   OH243065   3.890   2.016  12.755  0.2612  0.0526  0.0934
 7217TIP3    H143066   3.966   1.993  12.701 -0.2368 -0.6583 -0.3168
 7217TIP3    H243067   3.906   2.107  12.782  0.2097  0.6556 -1.8103
 7218TIP3   OH243068   4.810   3.258  16.826 -0.6880  0.2519  0.1585
 7218TIP3    H143069   4.768   3.226  16.906  0.2650  1.3605  1.1196
 7218TIP3    H243070   4.811   3.353  16.835  0.2950  0.3434 -0.7199
 7219TIP3   OH243071   0.184   4.100   5.327  1.0695  0.6349  0.1140
 7219TIP3    H143072   0.208   4.075   5.238  0.5174  0.5803 -0.0247
 7219TIP3    H243073   0.090   4.120   5.321  1.1619  1.1977  0.5570
 7220TIP3   OH243074   2.410   4.232  16.020 -0.7025 -0.6587  0.1227
 7220TIP3    H143075   2.455   4.207  16.101  0.7771  1.1920 -0.1099
 7220TIP3    H243076   2.432   4.163  15.958  0.2657 -0.7509  0.5609
 7221TIP3   OH243077   6.371   5.130  15.970 -0.2823 -0.1388  0.6610
 7221TIP3    H143078   6.364   5.142  15.875  0.6961  0.8409  0.7077
 7221TIP3    H243079   6.342   5.040  15.985  0.7335 -0.7133 -0.7091
 7222TIP3   OH243080   4.132   6.602   1.624  0.1254 -0.2450 -0.4255
 7222TIP3    H143081   4.090   6.601   1.538 -2.3863 -0.3368  0.7578
 7222TIP3    H243082   4.102   6.522   1.666  0.2243  0.4803  1.0511
 7223TIP3   OH243083   3.478   4.174   5.454 -0.0260  0.0653 -0.0018
 7223TIP3    H143084   3.436   4.235   5.514  1.0281  1.9294 -1.1234
 7223TIP3    H243085   3.485   4.093   5.503 -2.3173  0.5416  1.1945
 7224TIP3   OH243086   4.226   0.816  17.065  0.6804  0.2158 -0.1142
 7224TIP3    H143087   4.320   0.796  17.065  0.6258 -0.0333  0.0510
 7224TIP3    H243088   4.197   0.797  17.154  0.3273 -0.3722 -0.3565
 7225TIP3   OH243089   6.545   5.147  13.274 -0.5171  0.1559  0.4776
 7225TIP3    H143090   6.532   5.101  13.191 -0.2007  1.5824 -0.3911
 7225TIP3    H243091   6.640   5.157  13.281 -0.5051 -0.4623  1.3076
 7226TIP3   OH243092   2.894   6.464  12.539  0.3192 -0.0301 -0.8872
 7226TIP3    H143093   2.842   6.528  12.490 -2.6338 -0.1697  1.8932
 7226TIP3    H243094   2.979   6.507  12.551 -1.2227  2.9645 -0.0881
 7227TIP3   OH243095   4.587   6.025  15.186  0.4870  0.0590 -0.3136
 7227TIP3    H143096   4.656   5.985  15.133  0.7911  0.1888 -0.0180
 7227TIP3    H243097   4.527   5.953  15.206  0.4383 -0.0155 -0.7294
 7228TIP3   OH243098   3.496   6.760   3.330  0.3595  0.1407 -0.1259
 7228TIP3    H143099   3.577   6.727   3.291 -0.0662 -0.2716 -0.6701
 7228TIP3    H243100   3.440   6.683   3.337  0.4352  0.1997  1.3367
 7229TIP3   OH243101   4.919   4.432   4.255  0.0018  0.2305 -0.4931
 7229TIP3    H143102   4.993   4.411   4.198  2.1977 -0.1052  2.3051
 7229TIP3    H243103   4.908   4.527   4.248  1.1028  0.3617 -0.5100
 7230TIP3   OH243104   4.208   3.452  12.571 -0.2330 -0.1359  0.5152
 7230TIP3    H143105   4.283   3.478  12.517 -0.9131  0.0336 -0.3682
 7230TIP3    H243106   4.233   3.476  12.660  0.6122  0.2628  0.1799
 7231TIP3   OH243107   5.936   3.812   1.473 -0.5798 -0.2186  0.5796
 7231TIP3    H143108   5.976   3.762   1.402  0.8635  2.3910 -0.5109
 7231TIP3    H243109   5.993   3.798   1.548 -0.0997 -0.0874  0.2377
 7232TIP3   OH243110   5.548   2.895  16.517 -0.2406  0.1821 -0.4208
 7232TIP3    H143111   5.465   2.887  16.564  1.6760 -0.8157  2.9773
 7232TIP3    H243112   5.556   2.989  16.499 -1.1845  0.5763  1.0962
 7233TIP3   OH243113   2.791   5.382   4.205  0.3821 -0.1694  0.5996
 7233TIP3    H143114   2.862   5.444   4.190  1.4376 -1.4824  0.0693
 7233TIP3    H243115   2.723   5.433   4.249  0.0499  2.0752 -2.4157
 7234TIP3   OH243116   3.199   5.338   6.249 -0.2263 -0.1266 -0.2011
 7234TIP3    H143117   3.173   5.309   6.336 -0.0163  1.3697  0.3760
 7234TIP3    H243118   3.126   5.391   6.218  1.2116  2.4195  0.6034
 7235TIP3   OH243119   2.694   6.233  16.986 -0.2701  0.0728 -0.1331
 7235TIP3    H143120   2.648   6.175  17.047 -2.2694  0.7337 -0.9759
 7235TIP3    H243121   2.778   6.190  16.972 -1.3034 -2.1017  0.0650
 7236TIP3   OH243122   6.567   3.085  12.767  0.1774  0.0077  0.1301
 7236TIP3    H143123   6.558   3.158  12.827 -0.2666  0.2708 -0.2539
 7236TIP3    H243124   6.491   3.029  12.785  0.6867 -0.5184  0.6456
 7237TIP3   OH243125   0.157   2.779  14.142 -0.0149  0.4787  0.1465
 7237TIP3    H143126   0.180   2.827  14.063 -0.8249 -0.5795 -0.7501
 7237TIP3    H243127   0.242   2.756  14.181  0.3802  1.4921 -0.0967
 7238TIP3   OH243128   3.568   3.211   4.271  0.2053 -0.2354 -0.4875
 7238TIP3    H143129   3.580   3.137   4.212 -2.4086 -1.9793  1.0694
 7238TIP3    H243130   3.580   3.174   4.358 -1.2675  1.1261  0.3128
 7239TIP3   OH243131   4.914   3.396  17.137  0.2635 -0.3128  0.0482
 7239TIP3    H143132   4.981   3.434  17.193 -0.5330 -1.8800  2.1161
 7239TIP3    H243133   4.843   3.461  17.137  1.0145  0.5250 -0.6864
 7240TIP3   OH243134   6.222   1.299   3.011 -0.4224  0.3248 -0.4151
 7240TIP3    H143135   6.316   1.282   3.020 -0.1338  1.3294 -1.4978
 7240TIP3    H243136   6.210   1.387   3.047 -1.0083  0.0872 -0.0150
 7241TIP3   OH243137   0.127   4.298  16.317  0.3253  0.1399  0.3019
 7241TIP3    H143138   0.106   4.297  16.224 -1.4679  1.3462  0.6723
 7241TIP3    H243139   0.114   4.208  16.346 -0.5736  0.0756 -0.3039
 7242TIP3   OH243140   3.844   4.440   4.232  0.8075 -0.7220  0.1753
 7242TIP3    H143141   3.798   4.520   4.208  1.1493 -0.9017 -1.0895
 7242TIP3    H243142   3.789   4.400   4.301  1.1762  1.1022  1.5584
 7243TIP3   OH243143   2.961   5.849   1.703  0.3449  0.4225 -0.2690
 7243TIP3    H143144   3.035   5.907   1.687 -0.5912  1.9129  0.6934
 7243TIP3    H243145   2.909   5.894   1.770 -0.6265 -1.3217  0.1719
 7244TIP3   OH243146   4.636   2.807  12.317 -0.9703 -0.0909 -0.2856
 7244TIP3    H143147   4.672   2.752  12.387  1.5238  0.3609 -1.1745
 7244TIP3    H243148   4.544   2.779  12.310 -0.2570 -2.8271  0.5446
 7245TIP3   OH243149   0.532   3.358   1.945  1.0126  0.3685 -0.7660
 7245TIP3    H143150   0.529   3.454   1.944  0.0896  0.3440 -0.8041
 7245TIP3    H243151   0.455   3.332   1.997  1.3134 -0.3460 -0.6762
 7246TIP3   OH243152   6.255   5.574   5.449  0.3923  0.5453  0.1975
 7246TIP3    H143153   6.316   5.628   5.399  0.9369 -0.6017 -0.3985
 7246TIP3    H243154   6.302   5.554   5.530  1.2807 -1.2775 -0.7423
 7247TIP3   OH243155   1.039   3.346  16.912  0.0201  0.0054 -0.3358
 7247TIP3    H143156   0.998   3.270  16.953  2.6775 -0.7508  1.0234
 7247TIP3    H243157   1.060   3.317  16.823  1.3210 -0.9636  0.2823
 7248TIP3   OH243158   1.807   1.178  13.817 -0.0169 -0.0999  0.3878
 7248TIP3    H143159   1.842   1.102  13.770  1.0267  0.5489  0.0867
 7248TIP3    H243160   1.867   1.189  13.891 -0.4292  0.1629  0.6811
 7249TIP3   OH243161   4.813   6.310  16.241  0.4310 -0.4200  0.4085
 7249TIP3    H143162   4.835   6.282  16.330  2.6954 -0.6125 -0.1591
 7249TIP3    H243163   4.879   6.376  16.221  2.8527 -3.6185 -2.7645
 7250TIP3   OH243164   3.639   2.438  14.993 -0.3830  0.0430 -0.4390
 7250TIP3    H143165   3.682   2.508  15.042  0.4606 -0.5008 -0.3910
 7250TIP3    H243166   3.599   2.383  15.060 -0.3954  0.0556 -0.4356
 7251TIP3   OH243167   0.164   6.445  12.787  0.2956  0.1480 -0.5309
 7251TIP3    H143168   0.235   6.410  12.733  1.6238 -0.1214  1.3655
 7251TIP3    H243169   0.116   6.368  12.817 -1.0846  0.3482 -2.1476
 7252TIP3   OH243170   5.834   2.432   1.362 -0.1849  0.0184 -0.3616
 7252TIP3    H143171   5.926   2.405   1.355 -0.7063 -1.5629 -1.4898
 7252TIP3    H243172   5.784   2.352   1.346 -1.7715  0.8373  0.3362
 7253TIP3   OH243173   4.768   1.792  11.383  0.3964 -0.0584 -0.2647
 7253TIP3    H143174   4.837   1.787  11.317 -0.7757 -1.7677 -1.4122
 7253TIP3    H243175   4.811   1.767  11.465  1.7361  1.5145 -0.4683
 7254TIP3   OH243176   1.729   2.002   5.333 -0.6874 -0.0833 -0.3861
 7254TIP3    H143177   1.759   1.960   5.253 -0.1808 -0.2097 -0.1320
 7254TIP3    H243178   1.637   1.976   5.341 -0.2132 -1.6304  0.0996
 7255TIP3   OH243179   2.163   4.386  12.458 -0.6360 -0.3061  0.3369
 7255TIP3    H143180   2.227   4.343  12.401 -0.0784 -1.4538  1.7918
 7255TIP3    H243181   2.215   4.451  12.506 -0.9413  0.0577  0.1782
 7256TIP3   OH243182   4.128   6.224  11.915  0.1542 -0.1198  0.5918
 7256TIP3    H143183   4.193   6.293  11.896 -0.1596  0.4814  1.6223
 7256TIP3    H243184   4.160   6.184  11.996 -0.4471 -0.2045  0.7882
 7257TIP3   OH243185   1.944   4.935   0.492 -0.2481 -0.5906  0.4272
 7257TIP3    H143186   1.986   4.999   0.550  0.3921 -0.2126 -0.4257
 7257TIP3    H243187   1.890   4.882   0.549  0.3574 -0.2137  1.3661
 7258TIP3   OH243188   2.203   1.963  16.684  0.1046  0.1563 -0.2243
 7258TIP3    H143189   2.286   1.999  16.717  1.0484 -2.2945  0.1660
 7258TIP3    H243190   2.157   1.932  16.762 -0.0038 -0.8620 -0.6792
 7259TIP3   OH243191   1.980   2.097   2.931 -0.5660  0.0718 -0.0385
 7259TIP3    H143192   1.966   2.124   2.840  0.2194  1.3433  0.2010
 7259TIP3    H243193   1.892   2.083   2.966 -0.8422 -1.4129 -1.2718
 7260TIP3   OH243194   6.095   3.403   3.231 -0.1928 -0.3718 -0.2018
 7260TIP3    H143195   6.090   3.419   3.137 -0.5055  1.2703  0.0800
 7260TIP3    H243196   6.004   3.393   3.258 -0.1052 -0.7999 -0.0712
 7261TIP3   OH243197   1.312   2.948  11.053 -0.2282 -0.0282 -0.0974
 7261TIP3    H143198   1.229   2.990  11.030 -0.9881 -2.1417 -1.3417
 7261TIP3    H243199   1.371   2.970  10.981 -1.4522 -3.3160 -2.2573
 7262TIP3   OH243200   2.372   2.438   3.348  0.4596 -0.1550  0.0476
 7262TIP3    H143201   2.406   2.524   3.324  2.1543 -0.3589  1.6133
 7262TIP3    H243202   2.379   2.386   3.268  2.8009  0.1398  0.0360
 7263TIP3   OH243203   0.785   1.743   1.578  0.0114  0.4170 -0.0570
 7263TIP3    H143204   0.691   1.728   1.582 -0.1427  1.4784  0.5918
 7263TIP3    H243205   0.805   1.750   1.485 -0.3358 -1.0405 -0.2506
 7264TIP3   OH243206   2.361   5.339   2.740 -0.1666 -0.0158  0.2867
 7264TIP3    H143207   2.371   5.334   2.835 -2.6860 -0.5442  0.5577
 7264TIP3    H243208   2.338   5.430   2.724 -0.7202 -0.1610  0.2758
 7265TIP3   OH243209   2.220   4.188   5.492  0.1729  0.0649 -0.2131
 7265TIP3    H143210   2.198   4.245   5.419 -1.1826  0.4229  0.4593
 7265TIP3    H243211   2.146   4.196   5.552  0.3493 -1.7580  0.2810
 7266TIP3   OH243212   3.013   4.932  12.910 -0.0322 -0.0953 -0.1089
 7266TIP3    H143213   2.934   4.909  12.958  0.8475  0.1127  1.4767
 7266TIP3    H243214   2.999   4.896  12.823 -2.6654  1.6023 -0.4240
 7267TIP3   OH243215   1.257   1.453  11.936 -0.5851 -0.1044  0.1401
 7267TIP3    H143216   1.279   1.527  11.880  0.6420  0.0112  0.7576
 7267TIP3    H243217   1.281   1.376  11.885  0.3552 -0.0054  0.4380
 7268TIP3   OH243218   3.623   0.408   6.210 -0.3677 -0.1749  0.4518
 7268TIP3    H143219   3.594   0.442   6.126 -0.6431  0.7424  0.9058
 7268TIP3    H243220   3.645   0.316   6.193  0.7214  0.3051 -0.8765
 7269TIP3   OH243221   6.406   4.734  14.289 -0.0595  0.1049  0.7631
 7269TIP3    H143222   6.329   4.730  14.345 -0.8694 -0.6439 -0.3698
 7269TIP3    H243223   6.370   4.741  14.200  1.1972  1.2627  0.3382
 7270TIP3   OH243224   4.123   0.363   1.268  0.3169 -0.0509 -0.6467
 7270TIP3    H143225   4.149   0.305   1.196  1.0464 -2.3515  1.4233
 7270TIP3    H243226   4.205   0.403   1.297  0.0343  0.8097 -1.0274
 7271TIP3   OH243227   4.935   0.173  15.084  0.6946 -0.2682 -0.0904
 7271TIP3    H143228   4.877   0.125  15.143 -1.0678  2.5494  0.5565
 7271TIP3    H243229   4.885   0.183  15.004  1.8531 -1.2558 -0.9627
 7272TIP3   OH243230   6.495   5.886  15.053  0.4743  0.2167  0.0851
 7272TIP3    H143231   6.573   5.942  15.055 -0.5704  1.6833  0.9101
 7272TIP3    H243232   6.432   5.932  15.109 -1.8423  0.3138 -2.5495
 7273TIP3   OH243233   5.356   5.308   1.461  0.0188 -0.0455 -0.2128
 7273TIP3    H143234   5.369   5.394   1.421 -1.3765  0.6171  0.7361
 7273TIP3    H243235   5.327   5.327   1.550  1.2851 -1.5104  0.5398
 7274TIP3   OH243236   1.833   2.437  14.258  0.4661  0.2399 -0.4832
 7274TIP3    H143237   1.811   2.424  14.166  2.0766  2.9328 -1.3296
 7274TIP3    H243238   1.927   2.458  14.257  0.3246  1.1311  1.6688
 7275TIP3   OH243239   4.380   1.323   4.609  0.0393 -0.2672 -0.4144
 7275TIP3    H143240   4.422   1.406   4.632 -1.8980  1.1540 -1.8824
 7275TIP3    H243241   4.444   1.280   4.552 -0.7740  2.3276 -3.4459
 7276TIP3   OH243242   1.252   0.590  17.042  0.0740  0.1954  0.1161
 7276TIP3    H143243   1.242   0.587  16.947  0.4870 -0.6944  0.0979
 7276TIP3    H243244   1.288   0.677  17.059  1.5304 -0.2365 -0.6931
 7277TIP3   OH243245   1.209   0.014  11.637 -0.1275 -0.0274 -0.1901
 7277TIP3    H143246   1.207  -0.056  11.702 -0.0615 -0.5455 -0.7403
 7277TIP3    H243247   1.279   0.072  11.666 -0.4037 -0.0106  0.4512
 7278TIP3   OH243248   0.014   3.944   1.404  0.0891  0.2148  0.1125
 7278TIP3    H143249   0.091   3.956   1.460 -0.2958  0.3252  0.6116
 7278TIP3    H243250   0.031   3.862   1.358  0.0458 -0.2777  0.9685
 7279TIP3   OH243251   6.749   1.485   2.922 -0.0963  0.3286  0.1001
 7279TIP3    H143252   6.820   1.422   2.917  0.3817  0.8651  0.0035
 7279TIP3    H243253   6.765   1.533   3.003 -0.9778 -0.2809  0.6446
 7280TIP3   OH243254   0.876   1.255   2.231  0.0155  0.1337  0.1574
 7280TIP3    H143255   0.932   1.308   2.287  0.9501  0.6977 -1.2950
 7280TIP3    H243256   0.904   1.165   2.248 -0.2435  0.2489  1.1812
 7281TIP3   OH243257   3.272   3.117  15.780 -0.1745  0.4104 -0.1434
 7281TIP3    H143258   3.273   3.033  15.734  1.0082  1.3625 -1.9269
 7281TIP3    H243259   3.182   3.125  15.812 -0.3251 -1.4787 -0.0169
 7282TIP3   OH243260   3.081   3.156   4.516 -0.5570 -0.0986  0.3782
 7282TIP3    H143261   3.164   3.201   4.506 -0.6723 -0.4418 -2.5986
 7282TIP3    H243262   3.015   3.225   4.521 -0.5452  0.1804 -2.3290
 7283TIP3   OH243263   4.110   2.743   4.751  0.3054 -0.0085 -0.0181
 7283TIP3    H143264   4.025   2.701   4.763 -0.3626  1.1961 -0.4225
 7283TIP3    H243265   4.165   2.706   4.820 -0.3033 -1.4219 -0.2767
 7284TIP3   OH243266   2.526   2.568  15.944  0.1973 -0.1054 -0.4877
 7284TIP3    H143267   2.534   2.472  15.947  1.0028  0.0115  2.1507
 7284TIP3    H243268   2.603   2.597  15.896  0.6046 -0.7227 -0.2148
 7285TIP3   OH243269   4.347   2.820  15.282 -0.0045 -0.0882 -0.0092
 7285TIP3    H143270   4.382   2.905  15.255  0.6882 -0.7469 -1.2266
 7285TIP3    H243271   4.401   2.756  15.236 -0.2435 -1.2038  1.2374
 7286TIP3   OH243272   1.196   0.810  11.959  0.1653  0.3934 -0.0259
 7286TIP3    H143273   1.128   0.743  11.950 -0.3032  0.7479  0.8714
 7286TIP3    H243274   1.260   0.771  12.018  2.1223 -1.0330 -2.9999
 7287TIP3   OH243275   6.114   0.876   4.149 -0.1729  0.2095 -0.1462
 7287TIP3    H143276   6.050   0.875   4.077 -0.7901 -1.3976  0.4066
 7287TIP3    H243277   6.109   0.965   4.183 -0.3363  0.8163 -1.6793
 7288TIP3   OH243278   1.842   0.812  11.674  0.1145 -0.0595 -0.4731
 7288TIP3    H143279   1.757   0.820  11.717  0.2671 -0.9393 -0.0022
 7288TIP3    H243280   1.899   0.772  11.739  0.8584  0.3934 -0.8325
 7289TIP3   OH243281   2.131   5.686  13.574 -0.5008 -0.2316 -0.1573
 7289TIP3    H143282   2.172   5.681  13.488  0.2714 -0.0191  0.1965
 7289TIP3    H243283   2.192   5.736  13.628 -0.9032 -0.4926  0.5591
 7290TIP3   OH243284   3.150   4.555   2.329 -0.2314  0.7546 -0.2318
 7290TIP3    H143285   3.178   4.516   2.412 -2.1460  1.9972  1.0306
 7290TIP3    H243286   3.095   4.488   2.289  2.4286 -0.7221 -1.5824
 7291TIP3   OH243287   1.744   5.576   1.373 -0.5030 -0.0632 -0.5798
 7291TIP3    H143288   1.808   5.647   1.364 -0.6005  0.1927  0.6288
 7291TIP3    H243289   1.740   5.536   1.287  2.0182 -0.6893 -0.4581
 7292TIP3   OH243290   0.744   0.017   0.707 -0.0073 -0.0156 -0.3588
 7292TIP3    H143291   0.687   0.053   0.640  1.2551  1.5522 -0.6496
 7292TIP3    H243292   0.687   0.002   0.782 -0.8634  1.2096 -0.7472
 7293TIP3   OH243293   0.192   5.586  13.523 -0.0990 -0.1707 -0.5482
 7293TIP3    H143294   0.152   5.533  13.454  0.2424 -1.0010 -0.1221
 7293TIP3    H243295   0.168   5.541  13.604 -0.1662  0.5760 -0.1494
 7294TIP3   OH243296   3.859   0.585  12.314  0.1298  0.0806  0.0534
 7294TIP3    H143297   3.851   0.598  12.408  1.7670 -0.4881  0.2883
 7294TIP3    H243298   3.769   0.583  12.282 -0.4217  0.6042  1.5593
 7295TIP3   OH243299   0.328   2.662   0.522  0.5656 -0.7893  0.5275
 7295TIP3    H143300   0.356   2.616   0.443  0.2903 -0.1234  0.0328
 7295TIP3    H243301   0.393   2.639   0.588  1.4265 -0.4827 -0.1970
 7296TIP3   OH243302   5.629   5.893  16.795  0.5264 -0.0200 -1.0960
 7296TIP3    H143303   5.620   5.915  16.702  1.4517 -0.1153 -1.2098
 7296TIP3    H243304   5.547   5.847  16.816 -0.5343  1.7026 -1.3625
 7297TIP3   OH243305   3.179   0.314  15.296 -0.2415 -0.2260  0.2018
 7297TIP3    H143306   3.187   0.299  15.390 -0.8080 -1.9650 -0.0219
 7297TIP3    H243307   3.256   0.273  15.257  0.6579  1.5941 -0.0030
 7298TIP3   OH243308   4.161   0.646   3.306  0.4160  0.2514 -0.4180
 7298TIP3    H143309   4.076   0.674   3.341  0.2519 -2.0091  1.0643
 7298TIP3    H243310   4.225   0.700   3.353 -0.1210  1.2828 -0.8447
 7299TIP3   OH243311   3.601   2.248  12.832  0.2276 -0.4210  0.2420
 7299TIP3    H143312   3.592   2.210  12.745 -0.8576 -2.0254  1.0166
 7299TIP3    H243313   3.690   2.282  12.835  0.2001 -0.1669 -1.5621
 7300TIP3   OH243314   4.378   6.052   2.515  0.6639 -0.2436  0.0823
 7300TIP3    H143315   4.298   6.057   2.463 -0.2236 -0.8660  1.3752
 7300TIP3    H243316   4.407   6.143   2.522  0.2484 -0.0498 -0.6412
 7301TIP3   OH243317   3.998   3.545  12.396 -0.2977 -0.2608  0.0336
 7301TIP3    H143318   4.028   3.607  12.330  0.4234 -1.3913 -0.7224
 7301TIP3    H243319   4.078   3.519  12.442 -0.6494 -0.3335  0.6138
 7302TIP3   OH243320   4.310   6.631   0.536 -0.1920  0.1056  0.4816
 7302TIP3    H143321   4.317   6.658   0.628  1.4067  2.4938 -0.2885
 7302TIP3    H243322   4.220   6.649   0.512 -0.8251 -1.2375  1.7769
 7303TIP3   OH243323   2.165   5.817  10.741 -0.1442 -0.6931  0.3921
 7303TIP3    H143324   2.209   5.816  10.656 -1.1591  1.5581 -0.2125
 7303TIP3    H243325   2.224   5.868  10.797 -0.9582  0.5495  0.1437
 7304TIP3   OH243326   4.792   1.084  11.368 -0.4875 -0.5380  0.0818
 7304TIP3    H143327   4.711   1.130  11.347  1.4060  1.6179 -2.9169
 7304TIP3    H243328   4.841   1.144  11.423  0.8610 -0.0323 -1.6381
 7305TIP3   OH243329   6.217   1.150   1.900  0.1475 -0.4644 -0.1831
 7305TIP3    H143330   6.176   1.077   1.946 -0.8645  0.2209  0.0163
 7305TIP3    H243331   6.288   1.179   1.958  1.9857 -2.6901 -1.2623
 7306TIP3   OH243332   3.794   2.658  14.736 -0.5861 -0.3028 -0.6817
 7306TIP3    H143333   3.745   2.687  14.659 -1.7900 -0.0184  0.1929
 7306TIP3    H243334   3.778   2.564  14.740 -0.7189 -0.2767 -0.6234
 7307TIP3   OH243335   2.579   1.657   4.256  0.2500 -0.0371 -0.1494
 7307TIP3    H143336   2.635   1.602   4.310 -0.0331 -2.1057 -1.9197
 7307TIP3    H243337   2.610   1.746   4.273  5.6369 -1.2298 -2.7309
 7308TIP3   OH243338   2.883   2.629   2.565  0.0602 -0.6772  0.7629
 7308TIP3    H143339   2.825   2.699   2.536  2.5976  0.4545 -1.8080
 7308TIP3    H243340   2.941   2.670   2.629  1.7169 -0.2767 -0.9330
 7309TIP3   OH243341   0.086   5.644   0.679  0.6033  0.0872 -0.6041
 7309TIP3    H143342   0.115   5.580   0.744  0.7519 -0.1487 -0.8977
 7309TIP3    H243343   0.167   5.688   0.652  0.4700  0.5571 -0.2336
 7310TIP3   OH243344   5.352   4.390  14.702  0.2442 -0.3320  0.3735
 7310TIP3    H143345   5.305   4.328  14.757  0.3303 -0.2210  0.5755
 7310TIP3    H243346   5.295   4.467  14.699  0.7437  0.0900  1.2399
 7311TIP3   OH243347   5.529   5.996   0.442  0.2274 -0.1225 -0.2071
 7311TIP3    H143348   5.438   5.968   0.450 -0.3259  1.3844 -1.1197
 7311TIP3    H243349   5.549   6.035   0.527  0.4304 -1.5776  0.4302
 7312TIP3   OH243350   5.812   5.165   0.170 -0.8109 -0.1366 -0.7066
 7312TIP3    H143351   5.814   5.104   0.096 -1.5439  0.5509 -1.3008
 7312TIP3    H243352   5.905   5.185   0.187 -0.6948  1.2061 -2.7208
 7313TIP3   OH243353   3.078   3.155   6.242  0.2883 -0.1109  0.1544
 7313TIP3    H143354   3.047   3.183   6.328 -0.5455 -0.1850 -0.1142
 7313TIP3    H243355   3.152   3.097   6.260 -0.7370 -1.2114  0.8810
 7314TIP3   OH243356   2.487   3.795   0.865  0.4744 -0.9875  0.5702
 7314TIP3    H143357   2.581   3.782   0.861  0.9530  2.5020 -1.2694
 7314TIP3    H243358   2.475   3.890   0.867 -3.0328 -1.3128 -0.4849
 7315TIP3   OH243359   4.194   0.758  16.340 -0.0070  0.1571  0.2793
 7315TIP3    H143360   4.156   0.682  16.297  0.9074  0.8849 -1.8726
 7315TIP3    H243361   4.130   0.828  16.326  0.0967  0.2981  0.5011
 7316TIP3   OH243362   3.383   2.602   0.415 -0.4784  0.6045  0.1133
 7316TIP3    H143363   3.390   2.697   0.406 -0.0728  0.5277 -0.4910
 7316TIP3    H243364   3.303   2.579   0.367  0.9130  0.3519 -2.1569
 7317TIP3   OH243365   6.782   0.017  10.529  0.3484  0.3364  0.3593
 7317TIP3    H143366   6.847   0.002  10.460 -1.4304 -0.9947 -1.0486
 7317TIP3    H243367   6.762  -0.070  10.563 -1.4209  0.6481  0.1308
 7318TIP3   OH243368   1.212   3.518   0.839 -0.2867 -0.4839 -0.4664
 7318TIP3    H143369   1.211   3.427   0.809  1.5878 -0.8621  0.5220
 7318TIP3    H243370   1.252   3.567   0.767  0.6752 -0.7823 -0.1358
 7319TIP3   OH243371   0.808   5.103   1.910  0.5811  0.2667 -0.1486
 7319TIP3    H143372   0.869   5.130   1.979 -2.2189  1.3497  1.9951
 7319TIP3    H243373   0.748   5.177   1.901 -2.0300 -1.8091 -0.3360
 7320TIP3   OH243374   6.372   1.583  15.379 -0.5083 -0.1121 -0.1636
 7320TIP3    H143375   6.386   1.494  15.346 -1.2221 -0.0124 -0.7518
 7320TIP3    H243376   6.338   1.632  15.304 -0.8847  0.4550  0.3671
 7321TIP3   OH243377   4.473   3.232  13.980 -0.0826  0.1441  0.1422
 7321TIP3    H143378   4.417   3.296  13.936 -2.3942 -3.8865 -3.0484
 7321TIP3    H243379   4.416   3.189  14.044  1.2491  0.6904  1.7392
 7322TIP3   OH243380   0.581   2.495  16.106  0.1060  0.8271 -0.2936
 7322TIP3    H143381   0.617   2.508  16.018  2.3110 -1.4240  0.2022
 7322TIP3    H243382   0.658   2.482  16.162 -1.3463 -0.6581  1.4543
 7323TIP3   OH243383   6.381   5.330   0.160 -0.0787  0.1121 -0.2922
 7323TIP3    H143384   6.387   5.382   0.079 -1.4188  0.1801 -0.3507
 7323TIP3    H243385   6.325   5.256   0.137  0.3689 -0.4075  0.2958
 7324TIP3   OH243386   5.132   5.507   5.340 -0.0875  0.2351  0.0727
 7324TIP3    H143387   5.206   5.492   5.399 -0.0225  0.1650 -0.0252
 7324TIP3    H243388   5.160   5.578   5.283  1.1162 -1.7868 -1.9569
 7325TIP3   OH243389   0.593   1.016   5.505  0.0173 -0.5778  0.2776
 7325TIP3    H143390   0.629   1.078   5.568  0.3462 -1.8549  1.3820
 7325TIP3    H243391   0.509   1.054   5.479  0.0453  0.1571  1.2212
 7326TIP3   OH243392   5.327   0.011  13.787 -0.2829  0.2924  0.3505
 7326TIP3    H143393   5.373   0.010  13.871  1.0154  1.7348 -0.3367
 7326TIP3    H243394   5.240  -0.025  13.807  1.0507 -2.3516  1.6875
 7327TIP3   OH243395   6.071   4.650  11.823 -0.2502 -0.0217 -0.6814
 7327TIP3    H143396   6.040   4.738  11.839 -1.5936 -0.7805  1.0362
 7327TIP3    H243397   6.003   4.593  11.860  1.3517 -1.7436 -0.2888
 7328TIP3   OH243398   0.396   0.522  13.069  0.0784  0.1328  0.0536
 7328TIP3    H143399   0.331   0.578  13.112 -0.0880 -1.2476  1.6755
 7328TIP3    H243400   0.470   0.580  13.052 -1.1655  1.4890 -0.8765
 7329TIP3   OH243401   2.386   3.409  10.986  0.3203 -0.2555  0.4104
 7329TIP3    H143402   2.474   3.443  10.967  0.0896 -0.0128 -0.2530
 7329TIP3    H243403   2.335   3.487  11.008  0.3542 -0.4362  1.1275
 7330TIP3   OH243404   3.017   6.455  15.167  0.2425  0.0197 -0.4894
 7330TIP3    H143405   2.992   6.370  15.203  0.7461 -0.0595 -0.3342
 7330TIP3    H243406   2.937   6.487  15.125  0.0779 -0.5751 -0.6407
 7331TIP3   OH243407   1.249   6.577   3.491  0.2364 -0.7957  0.7757
 7331TIP3    H143408   1.164   6.619   3.499  2.6326  4.1528  2.2390
 7331TIP3    H243409   1.260   6.527   3.571 -0.5624 -0.0063  1.3782
 7332TIP3   OH243410   6.303   5.424  17.157 -0.7977 -0.0772  0.2936
 7332TIP3    H143411   6.219   5.440  17.201 -1.3202  1.2264 -1.1132
 7332TIP3    H243412   6.279   5.407  17.066  0.4675  0.4696 -0.1524
 7333TIP3   OH243413   3.602   5.638   2.648 -0.5779 -0.6999 -0.4965
 7333TIP3    H143414   3.522   5.651   2.699 -1.6459 -1.9902 -1.7953
 7333TIP3    H243415   3.670   5.683   2.698 -1.6890 -1.4895  1.7741
 7334TIP3   OH243416   4.055   4.910   4.620  0.2110  0.3260  0.2666
 7334TIP3    H143417   4.113   4.981   4.650 -0.9245  1.7027 -0.7087
 7334TIP3    H243418   4.064   4.911   4.525 -1.3589  0.5114  0.1104
 7335TIP3   OH243419   3.395   1.960   0.567 -0.0215  0.0593 -0.0781
 7335TIP3    H143420   3.315   1.959   0.620 -0.0190 -2.1992 -0.1087
 7335TIP3    H243421   3.463   1.988   0.629 -0.4052 -0.3984  0.5604
 7336TIP3   OH243422   4.882   5.647   0.085 -0.1614  0.1229  0.7929
 7336TIP3    H143423   4.887   5.742   0.095 -2.2386  0.2887  0.4721
 7336TIP3    H243424   4.838   5.634   0.001  1.2561 -1.1537  0.2063
 7337TIP3   OH243425   3.515   0.780   3.281 -0.4113 -0.5918  0.2975
 7337TIP3    H143426   3.563   0.853   3.244  0.3359 -0.8276  0.7902
 7337TIP3    H243427   3.469   0.817   3.357 -1.0332 -0.3641 -0.1820
 7338TIP3   OH243428   2.188   5.126   0.076  0.2178 -0.1102  0.4767
 7338TIP3    H143429   2.175   5.216   0.104 -1.6465 -0.2856  0.2272
 7338TIP3    H243430   2.113   5.078   0.111 -1.0900 -0.7331 -2.9633
 7339TIP3   OH243431   0.558   6.504  16.844 -0.3522 -0.0990 -1.0465
 7339TIP3    H143432   0.508   6.539  16.917 -1.9270 -1.0513 -1.6375
 7339TIP3    H243433   0.648   6.497  16.877 -0.5728  1.6929  0.0120
 7340TIP3   OH243434   3.659   1.363  16.957 -0.1825 -0.4610  0.5777
 7340TIP3    H143435   3.615   1.281  16.979 -0.7362 -0.9738 -2.3001
 7340TIP3    H243436   3.588   1.422  16.932  0.5297 -0.3710 -1.2626
 7341TIP3   OH243437   2.386   1.242  12.546 -0.0007 -0.2721  0.3769
 7341TIP3    H143438   2.419   1.316  12.494  1.0414 -0.0609  1.3219
 7341TIP3    H243439   2.400   1.166  12.490  0.3995  0.0480  0.0284
 7342TIP3   OH243440   3.265   5.589  16.760  0.6805 -0.4614 -0.0398
 7342TIP3    H143441   3.259   5.506  16.807 -0.9617  0.3251  1.1876
 7342TIP3    H243442   3.240   5.567  16.670  0.9936 -1.4298  0.0988
 7343TIP3   OH243443   3.850   1.718  11.822 -0.2431  0.0893 -0.0901
 7343TIP3    H143444   3.898   1.660  11.763 -0.6067  0.5220 -0.8145
 7343TIP3    H243445   3.829   1.663  11.898  0.7241 -0.3064 -0.1050
 7344TIP3   OH243446   5.067   2.226  13.234 -0.6149 -0.7072 -0.1176
 7344TIP3    H143447   5.071   2.153  13.172  2.9572  1.3126 -2.4580
 7344TIP3    H243448   5.155   2.230  13.272 -0.7167  2.4269 -0.0865
 7345TIP3   OH243449   6.486   4.229   0.754 -0.5612  0.0692  0.2481
 7345TIP3    H143450   6.523   4.317   0.757 -1.9480  0.7191 -0.9740
 7345TIP3    H243451   6.506   4.191   0.839 -1.0122  2.0099  1.2510
 7346TIP3   OH243452   3.818   1.788   5.402 -0.5956 -0.3287  0.0199
 7346TIP3    H143453   3.820   1.883   5.389  0.5304 -0.1985  1.0478
 7346TIP3    H243454   3.904   1.768   5.439 -0.8854 -1.7324 -0.0672
 7347TIP3   OH243455   1.540   0.830  13.895 -0.2647 -0.3107  0.7565
 7347TIP3    H143456   1.633   0.807  13.893 -0.1449  0.1991  0.6446
 7347TIP3    H243457   1.538   0.925  13.906 -0.7606 -0.1483 -0.5787
 7348TIP3   OH243458   5.063   6.291  10.826 -0.2798 -0.1598 -0.0153
 7348TIP3    H143459   5.014   6.265  10.748 -0.8784 -1.8738  0.9044
 7348TIP3    H243460   5.144   6.329  10.792 -1.0715  0.2393 -1.4876
 7349TIP3   OH243461   3.338   6.001  15.216  0.4561  0.2610 -0.0770
 7349TIP3    H143462   3.296   6.086  15.209  0.2616  0.1208 -0.5895
 7349TIP3    H243463   3.277   5.948  15.268  1.4043  0.9687  1.8041
 7350TIP3   OH243464   2.368   4.229   0.499 -0.1889 -0.1405 -0.2443
 7350TIP3    H143465   2.361   4.171   0.423 -1.8399  0.3321 -0.4676
 7350TIP3    H243466   2.426   4.182   0.560  0.9088 -0.6559 -1.6490
 7351TIP3   OH243467   0.854   0.797  13.726  0.1662 -0.5662  0.0366
 7351TIP3    H143468   0.864   0.709  13.761  2.8430 -0.0094  0.7440
 7351TIP3    H243469   0.850   0.853  13.804 -0.7336  0.0430 -0.4321
 7352TIP3   OH243470   3.669   4.951   0.543  0.2526  0.0052  0.2224
 7352TIP3    H143471   3.587   4.903   0.546  1.1939 -1.5773  1.2379
 7352TIP3    H243472   3.734   4.887   0.516  1.4641  0.7815  1.2061
 7353TIP3   OH243473   0.505   0.420  14.714  0.1545  0.2882 -0.6346
 7353TIP3    H143474   0.576   0.465  14.667 -0.1091  1.0895 -0.2798
 7353TIP3    H243475   0.515   0.448  14.805  0.4981 -1.0498 -0.2491
 7354TIP3   OH243476   1.356   1.576   5.520 -0.4242 -0.8448 -0.2667
 7354TIP3    H143477   1.283   1.637   5.516 -0.3314 -0.6706  0.6533
 7354TIP3    H243478   1.376   1.567   5.613  1.3677 -0.1290 -0.5582
 7355TIP3   OH243479   1.307   4.758  12.056 -0.1006  0.3714  0.1847
 7355TIP3    H143480   1.225   4.711  12.046 -0.0063  0.2552 -0.0424
 7355TIP3    H243481   1.370   4.691  12.082  0.2612  0.1919 -1.1556
 7356TIP3   OH243482   5.277   4.017  16.213  0.2717  0.0743 -0.6821
 7356TIP3    H143483   5.364   3.996  16.179  0.9497  0.3062  0.9015
 7356TIP3    H243484   5.240   3.932  16.238  0.4903  0.1059 -0.2632
 7357TIP3   OH243485   4.890   3.351   2.226 -0.3522 -0.2902  0.3796
 7357TIP3    H143486   4.879   3.445   2.211 -0.7861 -0.1478  1.4809
 7357TIP3    H243487   4.974   3.330   2.186 -0.0115  0.6799  0.5548
 7358TIP3   OH243488   4.574   0.688   2.459 -0.0340 -0.1102 -0.0122
 7358TIP3    H143489   4.551   0.703   2.367 -2.1104 -1.8948  0.1835
 7358TIP3    H243490   4.669   0.683   2.459 -0.0004 -0.0249 -2.0552
 7359TIP3   OH243491   0.793   0.950   1.206  0.4198 -0.5837  0.2427
 7359TIP3    H143492   0.854   1.022   1.191 -0.9553  0.5351 -0.0224
 7359TIP3    H243493   0.764   0.962   1.296 -1.1705  0.2440 -0.3710
 7360TIP3   OH243494   0.930   3.842   5.249 -0.5586 -0.3003 -0.0729
 7360TIP3    H143495   0.967   3.865   5.164 -0.8298  0.3845 -0.0100
 7360TIP3    H243496   0.876   3.917   5.273 -1.2344 -0.8879  0.2691
 7361TIP3   OH243497   3.545   3.709  11.245  0.0706  0.9855  0.2923
 7361TIP3    H143498   3.507   3.661  11.318  0.4592  0.9296  0.4617
 7361TIP3    H243499   3.557   3.644  11.176 -0.7229  1.1323  0.0145
 7362TIP3   OH243500   0.188   4.006  10.902  0.1542 -0.2864  0.3235
 7362TIP3    H143501   0.186   4.038  10.992  1.1374 -2.2672  1.0746
 7362TIP3    H243502   0.232   4.075  10.853  1.0602  0.1115  1.6608
 7363TIP3   OH243503   2.911   6.028  15.450  0.1469 -0.2072 -0.4853
 7363TIP3    H143504   2.882   5.942  15.420  0.6988 -0.3948 -0.4853
 7363TIP3    H243505   2.833   6.067  15.489 -0.2004 -0.5565 -0.8251
 7364TIP3   OH243506   3.142   6.218   3.564  0.1068 -0.7954 -0.9700
 7364TIP3    H143507   3.047   6.204   3.560  0.3975 -3.0954 -0.6111
 7364TIP3    H243508   3.177   6.170   3.490  0.8869  1.4545 -2.1026
 7365TIP3   OH243509   2.461   2.137   3.542 -0.4361 -0.2912 -0.1443
 7365TIP3    H143510   2.555   2.155   3.537 -0.2526 -1.0838  0.4011
 7365TIP3    H243511   2.451   2.054   3.496 -0.9628  0.0978 -0.7390
 7366TIP3   OH243512   3.121   1.062   2.071 -0.0475  0.4016  0.0994
 7366TIP3    H143513   3.042   1.102   2.107  0.2109 -0.5164  1.7126
 7366TIP3    H243514   3.193   1.107   2.116  0.5301  3.6063 -3.7521
 7367TIP3   OH243515   0.607   5.713  14.150 -0.2679  0.3104  0.2692
 7367TIP3    H143516   0.697   5.747  14.146  0.4117 -1.3302  0.7604
 7367TIP3    H243517   0.551   5.790  14.152  1.2123  1.3720  1.4216
 7368TIP3   OH243518   6.234   1.340   1.216 -0.5321 -0.2747  0.4380
 7368TIP3    H143519   6.322   1.372   1.199 -2.0727  5.0600  1.3278
 7368TIP3    H243520   6.241   1.292   1.298  1.7651 -1.1982 -0.2708
 7369TIP3   OH243521   5.370   0.907  16.809 -0.2847 -0.2799 -0.4192
 7369TIP3    H143522   5.276   0.893  16.801 -0.3330 -0.2072  0.0539
 7369TIP3    H243523   5.381   1.002  16.807 -0.5556 -0.1121  3.3630
 7370TIP3   OH243524   4.111   1.152  15.603  0.2482 -0.3951 -0.5920
 7370TIP3    H143525   4.052   1.137  15.677  1.8675 -1.0618  0.6044
 7370TIP3    H243526   4.199   1.148  15.641  1.0663  1.1873 -2.2276
 7371TIP3   OH243527   4.178   1.911   4.282 -0.4590  0.1261 -0.2943
 7371TIP3    H143528   4.272   1.895   4.288 -0.1689  1.7232 -0.5748
 7371TIP3    H243529   4.158   1.966   4.357 -1.3768 -1.1014  0.3742
 7372TIP3   OH243530   2.219   2.446  15.149  1.0351  0.2716  0.1926
 7372TIP3    H143531   2.127   2.463  15.166  0.7959  0.3274 -1.0602
 7372TIP3    H243532   2.264   2.468  15.230  0.0552  1.2142  0.4856
 7373TIP3   OH243533   4.620   5.729  16.924  0.0599 -0.3138 -0.4136
 7373TIP3    H143534   4.547   5.667  16.928  0.2857 -0.5255  0.5097
 7373TIP3    H243535   4.606   5.787  16.999 -0.5745  1.2515 -1.6751
 7374TIP3   OH243536   1.277   2.597   4.703  0.0086  0.8100 -0.6231
 7374TIP3    H143537   1.204   2.554   4.748  1.8137 -1.7330 -0.0377
 7374TIP3    H243538   1.271   2.688   4.730 -0.8892 -0.0395  2.1742
 7375TIP3   OH243539   1.194   6.083   5.322  0.7078 -0.3748 -0.2277
 7375TIP3    H143540   1.184   6.125   5.407 -0.1111 -1.2249  0.0964
 7375TIP3    H243541   1.123   6.019   5.317  0.9784 -0.6067 -1.3849
 7376TIP3   OH243542   3.317   1.972  10.998  0.0081  0.6962 -0.2263
 7376TIP3    H143543   3.314   1.970  11.094 -1.7877 -0.7441 -0.2776
 7376TIP3    H243544   3.316   2.065  10.976 -0.8989  1.0359  1.1567
 7377TIP3   OH243545   5.781   0.192   3.172  1.0554 -0.3821 -0.4871
 7377TIP3    H143546   5.806   0.103   3.198  0.2213 -0.2267  0.8473
 7377TIP3    H243547   5.792   0.244   3.251 -3.5249 -0.3070  0.2046
 7378TIP3   OH243548   1.728   6.029  14.247 -0.1223  0.1601  0.3076
 7378TIP3    H143549   1.705   5.947  14.291 -0.0699  0.4081  0.8026
 7378TIP3    H243550   1.823   6.035  14.258 -0.1977  0.5650  0.7615
 7379TIP3   OH243551   6.464   3.479   0.231  0.3998  0.4037 -0.2560
 7379TIP3    H143552   6.445   3.396   0.274  1.8330 -0.2956 -0.9410
 7379TIP3    H243553   6.405   3.479   0.155  0.6785 -0.1745 -0.4794
 7380TIP3   OH243554   2.807   5.051   0.462  0.0522  0.1392 -0.0989
 7380TIP3    H143555   2.791   5.141   0.492  0.7044  0.6443 -1.2102
 7380TIP3    H243556   2.744   5.038   0.391  0.4110 -0.0385 -0.3878
 7381TIP3   OH243557   1.937   1.370   3.800 -0.3443 -0.0778 -0.2827
 7381TIP3    H143558   1.929   1.357   3.705 -1.4359 -1.7430  0.0015
 7381TIP3    H243559   2.018   1.326   3.823  0.1376  0.6927 -0.5018
 7382TIP3   OH243560   4.039   1.021  16.913 -0.0242 -0.3571 -0.1290
 7382TIP3    H143561   4.114   1.044  16.967  1.6281 -2.4441 -1.4768
 7382TIP3    H243562   4.034   1.089  16.846  0.6893 -0.2283 -0.0450
 7383TIP3   OH243563   5.747   3.926  14.639 -0.4257  0.6343 -0.4055
 7383TIP3    H143564   5.787   3.886  14.716 -0.9013 -0.2514 -0.6133
 7383TIP3    H243565   5.705   3.853  14.593 -0.6479  1.2518 -1.1892
 7384TIP3   OH243566   5.547   4.681  16.061 -0.2268  0.3278  0.0563
 7384TIP3    H143567   5.552   4.664  15.967 -1.1541 -0.8276  0.1931
 7384TIP3    H243568   5.454   4.668  16.083  0.2893 -1.2828  1.4383
 7385TIP3   OH243569   3.323   3.981   6.349 -0.3542  0.1834  0.6773
 7385TIP3    H143570   3.232   4.010   6.339 -0.4151 -0.5457 -1.0740
 7385TIP3    H243571   3.373   4.062   6.352 -0.6101  0.6084 -3.2486
 7386TIP3   OH243572   1.899   5.931  16.643 -0.0368 -0.0650  0.5299
 7386TIP3    H143573   1.919   5.881  16.722 -1.0705 -0.6953  0.4026
 7386TIP3    H243574   1.984   5.946  16.602  0.6802  1.8000  2.6615
 7387TIP3   OH243575   3.740   2.147  16.903 -0.2336  0.5267  0.2396
 7387TIP3    H143576   3.820   2.197  16.918 -0.8549  0.9237  2.5950
 7387TIP3    H243577   3.671   2.201  16.944 -1.3522 -0.8478  0.2059
 7388TIP3   OH243578   6.118   3.162  16.813 -0.1933 -0.2216 -0.5253
 7388TIP3    H143579   6.069   3.150  16.894 -1.1378  0.3434 -1.0072
 7388TIP3    H243580   6.187   3.095  16.816  0.6785  0.7271  1.4148
 7389TIP3   OH243581   3.771   6.690   0.883 -0.0136  0.0240 -0.0560
 7389TIP3    H143582   3.696   6.723   0.934 -0.0954  0.6521 -0.5698
 7389TIP3    H243583   3.742   6.697   0.792  0.8490  0.7345 -0.2831
 7390TIP3   OH243584   4.485   2.696   2.353 -0.1975  0.6767  0.2939
 7390TIP3    H143585   4.488   2.634   2.426  0.2119 -0.0743 -0.3637
 7390TIP3    H243586   4.576   2.723   2.340 -0.0902 -0.1579 -0.7623
 7391TIP3   OH243587   3.235   2.823  15.299  0.1525 -0.3992 -0.2431
 7391TIP3    H143588   3.255   2.912  15.326  1.9745 -2.0544  4.3491
 7391TIP3    H243589   3.167   2.795  15.360  0.0070 -2.3641 -1.2721
 7392TIP3   OH243590   2.977   4.971   1.568  0.5719 -0.2774  0.0920
 7392TIP3    H143591   3.035   4.931   1.632  0.7596 -1.3445 -0.7221
 7392TIP3    H243592   2.922   4.899   1.537 -0.8111  0.6027  0.4405
 7393TIP3   OH243593   5.138   5.095  10.719  0.6255  0.1047  0.2413
 7393TIP3    H143594   5.057   5.044  10.732  1.3444 -1.0311  0.3339
 7393TIP3    H243595   5.179   5.056  10.642  1.7210 -0.1509  0.9462
 7394TIP3   OH243596   1.357   2.398  15.898  0.1130  0.2084 -0.3031
 7394TIP3    H143597   1.269   2.362  15.884 -0.2403  0.7524  0.4390
 7394TIP3    H243598   1.345   2.493  15.891  0.3835  0.3585  1.0598
 7395TIP3   OH243599   5.959   5.813   3.746  0.2168  0.6675 -0.0394
 7395TIP3    H143600   6.006   5.731   3.734 -0.4838 -0.2128  2.7335
 7395TIP3    H243601   5.893   5.814   3.676 -0.1141 -1.4107  0.2017
 7396TIP3   OH243602   6.477   4.812  14.780 -0.1811 -0.5447  0.5237
 7396TIP3    H143603   6.467   4.875  14.709 -1.2154  0.1992  1.3156
 7396TIP3    H243604   6.502   4.730  14.736 -0.4279  0.0020 -0.6500
 7397TIP3   OH243605   0.414   2.243   3.175  0.6124 -0.1621 -0.1158
 7397TIP3    H143606   0.324   2.274   3.182  1.1118  1.2759  0.1591
 7397TIP3    H243607   0.417   2.166   3.232 -0.8027 -1.1008 -1.2651
 7398TIP3   OH243608   1.766   5.386   6.089  0.0965  0.4162  0.3723
 7398TIP3    H143609   1.710   5.457   6.056  1.1132  1.4096  0.7317
 7398TIP3    H243610   1.774   5.325   6.015 -1.1104  0.4810  0.1906
 7399TIP3   OH243611   5.586   3.909  12.932 -0.4786  0.1910 -0.5502
 7399TIP3    H143612   5.614   4.001  12.933 -1.0532  0.3775 -1.2347
 7399TIP3    H243613   5.498   3.911  12.969 -0.5402 -0.0694 -0.6846
 7400TIP3   OH243614   2.163   1.485   5.159  0.2651  0.0084  0.1671
 7400TIP3    H143615   2.212   1.517   5.083  0.6790 -0.0820  0.3971
 7400TIP3    H243616   2.076   1.524   5.149  0.3551  0.0921 -0.2910
 7401TIP3   OH243617   0.780   4.007  14.934  0.0179 -0.8853  0.0777
 7401TIP3    H143618   0.720   4.028  15.006 -0.2086  0.2131 -0.4243
 7401TIP3    H243619   0.860   3.977  14.979  0.1149  0.4157  0.8275
 7402TIP3   OH243620   5.958   2.703  11.332  0.3601  0.3916  0.6078
 7402TIP3    H143621   6.030   2.641  11.322 -0.9175 -0.6426 -2.4371
 7402TIP3    H243622   5.988   2.783  11.288 -0.5279 -0.2112 -1.1234
 7403TIP3   OH243623   0.826   0.290   0.914 -0.0999  0.3655 -0.4130
 7403TIP3    H143624   0.779   0.214   0.949 -0.4569  1.8493  2.5094
 7403TIP3    H243625   0.767   0.327   0.849 -1.4135  0.0927  0.5982
 7404TIP3   OH243626   5.577   5.954   4.010 -0.0381  0.1526  0.7463
 7404TIP3    H143627   5.616   5.970   4.095  0.9033  0.2198  0.3031
 7404TIP3    H243628   5.635   5.891   3.967  0.1005  0.9626 -0.2805
 7405TIP3   OH243629   5.234   3.041   1.470  0.0104 -0.5138  0.0050
 7405TIP3    H143630   5.299   3.096   1.513 -0.8898  0.5286  0.0400
 7405TIP3    H243631   5.161   3.099   1.451 -0.6243 -1.5148 -0.6942
 7406TIP3   OH243632   0.165   1.336   1.362 -0.3912  0.4980 -0.4816
 7406TIP3    H143633   0.170   1.246   1.329 -1.6941  0.7470 -1.4184
 7406TIP3    H243634   0.133   1.326   1.452 -2.4230  0.0933 -1.2117
 7407TIP3   OH243635   4.248   0.041   4.852 -0.7385 -0.5115 -0.3578
 7407TIP3    H143636   4.307   0.074   4.920 -2.2737 -0.1288  0.7925
 7407TIP3    H243637   4.258   0.104   4.780 -1.6565  0.9767  0.8105
 7408TIP3   OH243638   1.939   3.234  11.943  0.0539  0.1425 -0.0009
 7408TIP3    H143639   2.006   3.284  11.895 -1.3206  2.0564  0.0108
 7408TIP3    H243640   1.917   3.290  12.018 -1.5764 -0.4481 -0.0311
 7409TIP3   OH243641   5.928   6.599   1.885  0.3687 -0.8110  0.1842
 7409TIP3    H143642   6.003   6.651   1.859 -0.6385  0.6254  0.0742
 7409TIP3    H243643   5.905   6.630   1.972  0.8137 -2.2949  0.8481
 7410TIP3   OH243644   1.976   6.230  14.140 -0.0208 -0.0012  0.3182
 7410TIP3    H143645   1.915   6.284  14.090 -0.2360 -0.9501 -0.4477
 7410TIP3    H243646   1.969   6.143  14.101  2.0292 -0.0662  0.0409
 7411TIP3   OH243647   1.601   6.286   0.447 -0.3343  0.8376  0.4022
 7411TIP3    H143648   1.632   6.362   0.398 -1.2719 -0.0323 -1.5560
 7411TIP3    H243649   1.511   6.274   0.419 -0.1151 -1.1794  0.4971
 7412TIP3   OH243650   1.712   1.133   2.901 -0.6626  0.0091  0.0032
 7412TIP3    H143651   1.763   1.162   2.825 -3.2302  1.2150 -1.3334
 7412TIP3    H243652   1.685   1.044   2.879 -1.6370  0.4567 -0.6370
 7413TIP3   OH243653   4.026   1.390  17.181  0.2054  0.3093 -0.1593
 7413TIP3    H143654   4.095   1.329  17.206  0.6467  0.6178 -0.6237
 7413TIP3    H243655   4.072   1.468  17.151 -0.3515  0.8408  0.3425
 7414TIP3   OH243656   1.581   1.090  14.891 -0.1429 -0.2853 -0.2389
 7414TIP3    H143657   1.520   1.092  14.817 -0.8126  1.7134  0.3403
 7414TIP3    H243658   1.585   1.180  14.921  3.2688 -0.3544 -0.3405
 7415TIP3   OH243659   6.421   6.209   1.460 -0.5136 -0.1922  0.2687
 7415TIP3    H143660   6.487   6.140   1.451  0.7934  1.1862 -0.8866
 7415TIP3    H243661   6.373   6.186   1.540  0.4337 -1.9768  0.3568
 7416TIP3   OH243662   2.233   4.885  12.442  0.4423 -0.1890  0.6949
 7416TIP3    H143663   2.155   4.850  12.485 -0.7678  0.4794 -0.8922
 7416TIP3    H243664   2.289   4.809  12.427 -1.0474 -1.0896 -0.4596
 7417TIP3   OH243665   2.896   6.724   6.274  0.0820 -0.3423 -0.1469
 7417TIP3    H143666   2.966   6.734   6.209  0.0952  1.1003  0.0669
 7417TIP3    H243667   2.861   6.812   6.284  0.3664 -0.4759  2.1341
 7418TIP3   OH243668   0.974   2.497   2.587  0.2526 -0.1891  0.0881
 7418TIP3    H143669   1.015   2.485   2.673 -0.2236 -0.4132  0.2843
 7418TIP3    H243670   1.040   2.465   2.525  0.3673 -0.5716  0.4050
 7419TIP3   OH243671   5.960   6.760  12.961 -0.2036  0.4496  0.0737
 7419TIP3    H143672   5.984   6.725  12.875 -0.5113  0.5449 -0.0505
 7419TIP3    H243673   5.977   6.854  12.954 -2.0060  0.7427 -0.4951
 7420TIP3   OH243674   0.261   6.342   5.290 -0.1019  0.4337 -0.2047
 7420TIP3    H143675   0.227   6.390   5.214  0.1151 -0.6366 -0.9895
 7420TIP3    H243676   0.349   6.377   5.303  0.3268 -0.2585 -1.2191
 7421TIP3   OH243677   2.256   2.393  14.004 -0.2704  0.1524  0.5574
 7421TIP3    H143678   2.252   2.324  14.071  0.0586 -1.0495 -0.6375
 7421TIP3    H243679   2.328   2.450  14.032  0.5518 -0.9280  0.6790
 7422TIP3   OH243680   2.199   4.025   2.878  0.4238 -0.1516  0.8706
 7422TIP3    H143681   2.134   4.067   2.821  1.5009 -0.0894 -0.3315
 7422TIP3    H243682   2.178   4.056   2.966 -0.8000  0.3456  0.4104
 7423TIP3   OH243683   5.490   2.029   2.204 -0.3439  0.4192 -0.6986
 7423TIP3    H143684   5.450   2.093   2.264  0.7535  0.1439  0.3339
 7423TIP3    H243685   5.552   2.080   2.153 -1.6954  0.7687 -2.0339
 7424TIP3   OH243686   2.151   5.497   0.985 -0.1687 -0.0021  0.6223
 7424TIP3    H143687   2.224   5.486   1.046  0.9617  1.8050 -0.3491
 7424TIP3    H243688   2.084   5.543   1.036 -0.3301 -0.9782  1.2989
 7425TIP3   OH243689   6.218   0.664   1.040  0.5368  0.5047 -0.4214
 7425TIP3    H143690   6.203   0.652   1.134  1.9342  2.5817  0.1123
 7425TIP3    H243691   6.280   0.595   1.016  1.1222  0.7218  0.4527
 7426TIP3   OH243692   6.416   0.002  16.323  0.0134  0.1327  0.1620
 7426TIP3    H143693   6.436   0.086  16.365  2.8854 -1.0656  1.3158
 7426TIP3    H243694   6.464   0.006  16.240  0.4057 -0.5176  0.3620
 7427TIP3   OH243695   6.338   0.682  12.782 -0.7623 -0.3939 -0.0013
 7427TIP3    H143696   6.327   0.587  12.792  1.7461 -0.7743 -0.3218
 7427TIP3    H243697   6.328   0.716  12.871 -1.1256 -1.0264  0.2064
 7428TIP3   OH243698   3.395   5.733  14.241 -0.1054  0.2061  0.6661
 7428TIP3    H143699   3.342   5.663  14.279 -0.2902 -0.6139 -1.0353
 7428TIP3    H243700   3.480   5.692  14.225  0.2331  0.7821  0.9679
 7429TIP3   OH243701   5.155   3.455   5.328  0.2395 -0.1304  0.2004
 7429TIP3    H143702   5.145   3.550   5.327  0.0886 -0.1449  0.4214
 7429TIP3    H243703   5.180   3.433   5.238 -0.5256  0.0299 -0.0514
 7430TIP3   OH243704   4.621   4.998  16.711  0.0268  0.4824  0.8128
 7430TIP3    H143705   4.690   4.938  16.685 -0.0689 -0.1672  2.0157
 7430TIP3    H243706   4.571   5.014  16.631 -0.7913 -2.1611  0.7452
 7431TIP3   OH243707   0.319   0.054  16.938 -0.4695  0.6308 -0.0992
 7431TIP3    H143708   0.351   0.053  16.848  2.4889  2.0942  0.8916
 7431TIP3    H243709   0.347  -0.030  16.974 -1.0713  0.3280 -0.3261
 7432TIP3   OH243710   1.462   0.300  16.587  0.4847  0.4501  0.0509
 7432TIP3    H143711   1.555   0.317  16.571  0.1095  1.3247 -1.3193
 7432TIP3    H243712   1.416   0.364  16.532 -0.9396 -1.0342 -0.5414
 7433TIP3   OH243713   1.412   6.543   0.852  0.2810  0.1459  0.2297
 7433TIP3    H143714   1.365   6.545   0.935  2.1123  0.9374  1.2664
 7433TIP3    H243715   1.416   6.450   0.829  1.0892 -0.2318  1.8101
 7434TIP3   OH243716   2.154   0.411  12.097 -0.0481 -0.4244 -0.0607
 7434TIP3    H143717   2.172   0.429  12.005 -1.7159 -1.0729 -0.5272
 7434TIP3    H243718   2.130   0.319  12.099 -0.0867 -0.3932  1.0174
 7435TIP3   OH243719   2.297   2.720  15.881 -0.4223 -0.0806 -0.1179
 7435TIP3    H143720   2.358   2.657  15.919 -2.1882 -2.2537 -0.7450
 7435TIP3    H243721   2.263   2.769  15.956  1.6826  0.8396  0.2776
 7436TIP3   OH243722   1.902   3.213  11.644  0.1503 -0.4739 -0.5520
 7436TIP3    H143723   1.925   3.201  11.736 -0.9888 -0.8564 -0.3082
 7436TIP3    H243724   1.884   3.125  11.611 -0.1900 -0.2627 -0.9449
 7437TIP3   OH243725   4.616   6.685  13.860  0.3334  0.2053 -0.3804
 7437TIP3    H143726   4.625   6.739  13.939  0.6127  0.9340 -0.9045
 7437TIP3    H243727   4.565   6.739  13.800  1.9472  0.5454 -1.4915
 7438TIP3   OH243728   1.092   2.634  11.880 -0.2063 -0.6451  0.0864
 7438TIP3    H143729   1.138   2.718  11.872  0.0905 -0.6391  1.7629
 7438TIP3    H243730   1.134   2.578  11.814  0.9041 -0.0501  0.2732
 7439TIP3   OH243731   4.580   1.157  12.384  0.4176  0.3411 -0.3818
 7439TIP3    H143732   4.507   1.217  12.400 -0.2932 -0.5425 -0.2000
 7439TIP3    H243733   4.643   1.175  12.453 -1.2241 -1.2967  1.6229
 7440TIP3   OH243734   5.004   1.385  14.018 -0.4599  0.2367 -0.1410
 7440TIP3    H143735   4.986   1.294  13.994  1.5469  0.4179 -2.5257
 7440TIP3    H243736   4.945   1.436  13.962 -0.5782  0.4694  0.1938
 7441TIP3   OH243737   5.091   5.386  12.695  0.1011 -0.2735 -0.4326
 7441TIP3    H143738   5.078   5.477  12.721 -0.4730  0.2001 -2.2559
 7441TIP3    H243739   5.062   5.384  12.604 -0.0276 -2.3214 -0.3518
 7442TIP3   OH243740   0.745   4.274  11.322 -0.6463  0.1915  0.0174
 7442TIP3    H143741   0.670   4.235  11.367 -0.2380  1.5664  1.9766
 7442TIP3    H243742   0.716   4.285  11.231 -2.6092  0.1415  0.6229
 7443TIP3   OH243743   5.666   0.604   4.584 -0.2043 -0.5441  0.0345
 7443TIP3    H143744   5.674   0.598   4.680  1.8796  0.0096 -0.0680
 7443TIP3    H243745   5.585   0.559   4.564 -1.6000  0.8476  2.2339
 7444TIP3   OH243746   5.923   1.577  17.118  0.3757  0.5283  0.0841
 7444TIP3    H143747   5.973   1.529  17.052 -0.1611 -2.4397  1.7128
 7444TIP3    H243748   5.951   1.668  17.109  1.1086  0.0237 -3.4433
 7445TIP3   OH243749   1.575   6.340  13.921  0.0590  0.4050  0.2467
 7445TIP3    H143750   1.592   6.295  14.004 -0.4631 -0.1599  0.0598
 7445TIP3    H243751   1.482   6.363  13.925  0.0095  0.2953 -0.2161
 7446TIP3   OH243752   6.606   3.124   2.996  0.3154  0.0283 -0.0115
 7446TIP3    H143753   6.657   3.062   2.943  2.3276 -0.1852  2.1360
 7446TIP3    H243754   6.621   3.209   2.954  0.0911 -0.4499 -1.0915
 7447TIP3   OH243755   3.403   4.932   3.102 -0.3498 -0.3136 -0.0819
 7447TIP3    H143756   3.426   4.845   3.134  0.4200 -0.3995 -0.8564
 7447TIP3    H243757   3.396   4.986   3.180  0.7195 -0.7063  0.2855
 7448TIP3   OH243758   0.248   6.779  16.023 -0.5430  0.6491  0.4331
 7448TIP3    H143759   0.245   6.842  15.951 -1.9935  0.1278  0.0159
 7448TIP3    H243760   0.315   6.716  15.998  0.1091  1.3854  0.3155
 7449TIP3   OH243761   2.946   6.224  13.754  0.0240  0.3644 -0.1550
 7449TIP3    H143762   2.916   6.279  13.682 -0.2336 -0.1296 -0.4234
 7449TIP3    H243763   2.935   6.279  13.832  0.9336  1.1388 -0.5594
 7450TIP3   OH243764   2.104   0.642   6.663 -0.4422  0.7055 -0.4808
 7450TIP3    H143765   2.052   0.570   6.698  0.3976  0.7940  0.9833
 7450TIP3    H243766   2.140   0.608   6.581 -0.3629 -0.4106  0.0051
 7451TIP3   OH243767   5.857   1.468  14.869  0.3358  0.0994 -0.0331
 7451TIP3    H143768   5.762   1.459  14.861  0.4070 -0.8208  0.0477
 7451TIP3    H243769   5.888   1.379  14.888  1.1647  0.4793  0.4269
 7452TIP3   OH243770   2.254   4.520  16.824  0.3705 -0.0458  0.3502
 7452TIP3    H143771   2.244   4.548  16.915  0.3744 -1.3181  0.7571
 7452TIP3    H243772   2.270   4.600  16.775 -1.6067  0.8813  1.1809
 7453TIP3   OH243773   0.807   6.703   4.589 -0.0198 -0.6170 -0.3451
 7453TIP3    H143774   0.891   6.727   4.550  1.1673 -2.9239  0.7021
 7453TIP3    H243775   0.765   6.648   4.523 -0.7102  0.5146 -0.8570
 7454TIP3   OH243776   2.359   1.286  16.638  0.4491  0.2995 -0.0660
 7454TIP3    H143777   2.404   1.241  16.710  0.1815 -0.7148 -0.5235
 7454TIP3    H243778   2.383   1.236  16.560  2.7706  2.8789 -1.0577
 7455TIP3   OH243779   0.700   5.591   1.702 -0.2804 -0.2055 -0.5527
 7455TIP3    H143780   0.675   5.559   1.789  1.9679  1.3399  0.7172
 7455TIP3    H243781   0.766   5.528   1.672 -2.6212 -1.9909 -2.1540
 7456TIP3   OH243782   4.104   4.120  14.830  0.0640 -0.5934 -0.3628
 7456TIP3    H143783   4.016   4.123  14.866  0.1005 -2.0746 -0.0852
 7456TIP3    H243784   4.119   4.027  14.811  1.0087 -0.1658 -1.8111
 7457TIP3   OH243785   0.608   5.102  15.360  0.0243  0.0028  0.1859
 7457TIP3    H143786   0.565   5.049  15.427  0.1363 -1.0196 -0.5616
 7457TIP3    H243787   0.572   5.072  15.277  0.0560  1.1203 -0.2425
 7458TIP3   OH243788   5.293   0.977  15.840 -0.2901  0.0683  0.3595
 7458TIP3    H143789   5.270   0.919  15.767 -1.0182  1.4988 -0.5807
 7458TIP3    H243790   5.357   0.928  15.891  1.7938 -0.1485 -2.4007
 7459TIP3   OH243791   0.425   4.739  10.573 -0.1349  0.1193 -0.2559
 7459TIP3    H143792   0.392   4.817  10.528 -2.3060 -0.1072  0.8500
 7459TIP3    H243793   0.497   4.770  10.627 -1.1596  1.4321  0.3790
 7460TIP3   OH243794   0.440   4.643   0.968 -0.4516 -0.4433 -0.0045
 7460TIP3    H143795   0.356   4.644   1.014 -0.5822  1.6908 -0.2363
 7460TIP3    H243796   0.456   4.734   0.945  0.9265 -1.1122 -1.8212
 7461TIP3   OH243797   5.794   3.721  13.376  0.3759 -0.1089 -0.1112
 7461TIP3    H143798   5.741   3.772  13.315  0.6136  1.9081  1.3073
 7461TIP3    H243799   5.806   3.636  13.333 -1.5724  0.3952 -1.7150
 7462TIP3   OH243800   5.497   5.830  14.374  0.9909  0.1507 -0.0663
 7462TIP3    H143801   5.407   5.822  14.405  0.4377 -0.4270 -1.7658
 7462TIP3    H243802   5.537   5.896  14.431 -0.6235  0.6944  0.4434
 7463TIP3   OH243803   1.458   2.498   5.179 -0.4549 -0.2814 -0.5038
 7463TIP3    H143804   1.400   2.437   5.225 -1.3395  1.7849  1.1884
 7463TIP3    H243805   1.428   2.494   5.088 -1.3696 -1.3774 -0.1740
 7464TIP3   OH243806   1.750   2.928   1.754  0.3584  0.3290 -0.0808
 7464TIP3    H143807   1.800   2.944   1.834  1.9620  2.2071 -1.4183
 7464TIP3    H243808   1.660   2.915   1.785  1.2330 -0.7489  2.1596
 7465TIP3   OH243809   5.319   3.823   5.362 -0.0395 -0.5145  0.1084
 7465TIP3    H143810   5.316   3.892   5.430 -2.2461  1.6300 -2.0535
 7465TIP3    H243811   5.376   3.858   5.295 -0.4491 -1.2016 -0.6048
 7466TIP3   OH243812   4.522   1.352  13.453  0.0823  0.6739  0.0585
 7466TIP3    H143813   4.542   1.363  13.360  0.6078  0.5923  0.1611
 7466TIP3    H243814   4.573   1.420  13.497  0.8021 -0.0907  0.3995
 7467TIP3   OH243815   1.431   4.416  11.175 -0.2157  0.3151  0.2320
 7467TIP3    H143816   1.456   4.324  11.163  0.8587  0.2577  2.6804
 7467TIP3    H243817   1.353   4.426  11.120  0.1240 -1.8305 -0.7246
 7468TIP3   OH243818   5.472   5.704  16.579 -0.5000  0.8748 -0.6138
 7468TIP3    H143819   5.391   5.681  16.534 -0.8235 -0.2868  0.5274
 7468TIP3    H243820   5.447   5.707  16.671  0.9661 -0.5103 -0.1476
 7469TIP3   OH243821   0.097   5.373  15.026 -0.7338  0.3434  0.5251
 7469TIP3    H143822   0.064   5.322  14.951  2.4246  0.7794 -1.2584
 7469TIP3    H243823   0.066   5.324  15.103 -0.4512 -2.5461 -1.1003
 7470TIP3   OH243824   2.330   5.882   3.496 -0.1528 -0.2829 -0.3485
 7470TIP3    H143825   2.396   5.870   3.428 -0.0751 -2.0157  0.0101
 7470TIP3    H243826   2.310   5.793   3.526 -0.5578  0.4214  1.5338
 7471TIP3   OH243827   4.900   2.304   5.053  0.1859 -0.4548  0.0841
 7471TIP3    H143828   4.995   2.303   5.067  0.3193 -1.7103 -0.8591
 7471TIP3    H243829   4.865   2.343   5.133  1.4378 -0.8160  0.8274
 7472TIP3   OH243830   4.274   3.533   4.830 -0.8510 -0.2917 -0.1410
 7472TIP3    H143831   4.341   3.488   4.778 -0.0879  0.2696  0.3454
 7472TIP3    H243832   4.323   3.591   4.888 -1.7835  0.4432 -0.0656
 7473TIP3   OH243833   3.343   5.478   0.665  0.0496 -0.0033 -0.0712
 7473TIP3    H143834   3.258   5.441   0.688 -0.5722  1.4887  0.0841
 7473TIP3    H243835   3.380   5.417   0.602 -0.1490 -1.8541  1.5598
 7474TIP3   OH243836   2.324   5.237   5.563  0.1471 -0.3228  0.1674
 7474TIP3    H143837   2.300   5.267   5.651 -1.4504  1.4829 -0.8346
 7474TIP3    H243838   2.279   5.154   5.552 -1.0322  0.2608  0.4647
 7475TIP3   OH243839   1.140   3.291   0.662  0.2329 -0.5378 -0.6174
 7475TIP3    H143840   1.128   3.219   0.724  2.7433 -0.0094  0.5674
 7475TIP3    H243841   1.175   3.250   0.583 -0.0887 -0.8458 -0.5986
 7476TIP3   OH243842   5.023   2.962  13.146 -0.0214  0.1148 -0.5113
 7476TIP3    H143843   5.041   2.970  13.052  2.2719 -2.7837 -0.4055
 7476TIP3    H243844   5.104   2.987  13.189 -0.6281  0.1345  0.6422
 7477TIP3   OH243845   5.459   2.793   5.739 -0.0752 -0.3027  0.6330
 7477TIP3    H143846   5.503   2.782   5.824 -1.0972  3.8328  1.8233
 7477TIP3    H243847   5.367   2.771   5.757 -0.4470  1.3539  0.8534
 7478TIP3   OH243848   6.481   3.254  13.479  0.5764  0.3863 -0.4942
 7478TIP3    H143849   6.493   3.337  13.432 -0.0552  2.1159  2.3258
 7478TIP3    H243850   6.540   3.260  13.554  1.4922 -2.3031 -0.9582
 7479TIP3   OH243851   3.596   5.876  12.736  0.4457  0.3270 -0.0598
 7479TIP3    H143852   3.539   5.894  12.661 -0.2727  0.1490  0.4417
 7479TIP3    H243853   3.558   5.798  12.777  1.3612 -0.1142 -0.0315
 7480TIP3   OH243854   1.777   3.949  14.908 -0.8961 -0.4755 -0.0352
 7480TIP3    H143855   1.847   3.976  14.968 -0.0690 -1.4603 -0.5386
 7480TIP3    H243856   1.817   3.954  14.821 -2.1350  1.0958 -0.5335
 7481TIP3   OH243857   6.456   0.615   3.072 -0.0386  0.3299  0.6465
 7481TIP3    H143858   6.392   0.561   3.118  0.4620 -0.7024  0.1556
 7481TIP3    H243859   6.524   0.633   3.138  0.6529 -1.1033  0.3370
 7482TIP3   OH243860   0.665   6.036  13.095 -0.0611  0.2021  0.2457
 7482TIP3    H143861   0.675   6.022  13.190  0.7269 -0.1877  0.1125
 7482TIP3    H243862   0.740   6.091  13.071  0.2136 -0.3989 -0.2932
 7483TIP3   OH243863   1.418   6.720   3.309 -0.5289  0.1279 -0.0562
 7483TIP3    H143864   1.414   6.669   3.227  0.0872  0.2628 -0.1798
 7483TIP3    H243865   1.370   6.667   3.372 -1.1118  0.0771 -0.5375
 7484TIP3   OH243866   0.945   1.302   6.145  0.0681 -0.0399 -0.7683
 7484TIP3    H143867   0.935   1.271   6.235  0.9450  1.3938 -0.1567
 7484TIP3    H243868   1.019   1.251   6.111 -1.8989 -2.4291 -1.5452
 7485TIP3   OH243869   0.164   0.627   3.203  0.1943  0.0384  0.1862
 7485TIP3    H143870   0.222   0.699   3.223  1.1606 -1.0235  1.2792
 7485TIP3    H243871   0.210   0.549   3.234 -1.9605 -0.7972  1.4273
 7486TIP3   OH243872   6.547   3.707   2.720  0.1682  0.6487 -0.3208
 7486TIP3    H143873   6.618   3.688   2.659  1.1592  0.2150  0.9455
 7486TIP3    H243874   6.589   3.756   2.791 -0.8982  0.8609  0.1716
 7487TIP3   OH243875   3.568   4.027  11.254 -0.0488 -0.4852 -0.3726
 7487TIP3    H143876   3.474   4.009  11.261  0.1142 -0.6536  1.9296
 7487TIP3    H243877   3.609   3.952  11.299  1.2409 -0.9716 -2.3243
 7488TIP3   OH243878   2.033   0.836   3.067  0.2179 -0.4233  0.3940
 7488TIP3    H143879   2.061   0.892   2.996 -1.8112  0.2342  0.0596
 7488TIP3    H243880   1.947   0.871   3.093 -0.3235 -2.3224  1.3109
 7489TIP3   OH243881   1.114   6.219  12.473 -0.3195 -0.2142  0.2959
 7489TIP3    H143882   1.146   6.298  12.517  1.5734 -0.0159 -1.3882
 7489TIP3    H243883   1.193   6.170  12.452 -1.3405 -1.3685 -0.9071
 7490TIP3   OH243884   5.686   5.745  13.346  0.2848  0.1085  0.0231
 7490TIP3    H143885   5.600   5.744  13.388 -0.0662 -0.2879 -0.6916
 7490TIP3    H243886   5.717   5.654  13.353 -0.5175 -0.3695 -2.0437
 7491TIP3   OH243887   4.150   0.139   2.807  0.0797 -0.0773  0.0692
 7491TIP3    H143888   4.068   0.165   2.766  0.7394 -1.1860 -2.0507
 7491TIP3    H243889   4.168   0.207   2.871 -2.8545 -0.1945  1.0889
 7492TIP3   OH243890   2.865   3.022   4.889 -0.0785 -0.4380  0.0481
 7492TIP3    H143891   2.955   3.045   4.863 -0.4797  0.7455 -0.3158
 7492TIP3    H243892   2.831   2.970   4.816 -0.3048  0.6579 -0.6386
 7493TIP3   OH243893   2.578   5.716   0.116 -0.3292  0.4351 -0.5815
 7493TIP3    H143894   2.559   5.623   0.122  0.2796  0.2473 -1.5118
 7493TIP3    H243895   2.671   5.723   0.138  0.4786  0.4223 -3.8074
 7494TIP3   OH243896   2.885   2.728  12.126  0.0715 -0.0837 -0.4344
 7494TIP3    H143897   2.854   2.688  12.045  3.2461 -0.7287 -1.4054
 7494TIP3    H243898   2.876   2.822  12.112 -0.7501 -0.2353 -0.9435
 7495TIP3   OH243899   0.839   4.428  16.807 -0.1622  0.5234  0.0165
 7495TIP3    H143900   0.831   4.505  16.750 -0.0164  1.7285  1.5872
 7495TIP3    H243901   0.925   4.438  16.848  0.5281 -1.3059 -0.9004
 7496TIP3   OH243902   2.709   0.205  12.184  0.0594  0.0492 -0.2998
 7496TIP3    H143903   2.693   0.111  12.173 -2.1994  0.2706  0.8291
 7496TIP3    H243904   2.802   0.212  12.205  0.4598 -1.8482 -1.3906
 7497TIP3   OH243905   4.111   0.087  10.311 -0.6466 -0.4266  0.5173
 7497TIP3    H143906   4.103   0.182  10.303  0.6949 -0.2960  0.5879
 7497TIP3    H243907   4.167   0.074  10.388 -0.8936 -1.2808  0.5590
 7498TIP3   OH243908   4.971   6.601  15.612 -0.1739  0.0254 -0.4244
 7498TIP3    H143909   5.056   6.639  15.634  0.6740 -0.8604 -2.1298
 7498TIP3    H243910   4.981   6.507  15.629 -0.6015 -0.1715 -1.2335
 7499TIP3   OH243911   1.023   2.287   3.710  0.2591 -0.3185 -0.3042
 7499TIP3    H143912   0.988   2.239   3.785 -0.0850  2.0986  1.1028
 7499TIP3    H243913   0.948   2.299   3.652  0.1519 -0.6980 -0.2465
 7500TIP3   OH243914   0.409   4.036   1.002 -0.4348  0.5542  0.6711
 7500TIP3    H143915   0.479   3.981   1.037  1.0971  0.3588 -2.5361
 7500TIP3    H243916   0.349   3.976   0.958  1.4014  1.3306 -3.1085
 7501TIP3   OH243917   4.435   3.216   2.041  0.2020 -0.0801 -0.2785
 7501TIP3    H143918   4.342   3.223   2.019 -0.6166 -3.7575  1.6278
 7501TIP3    H243919   4.473   3.161   1.973  0.0157 -2.1839  1.2714
 7502TIP3   OH243920   3.053   2.726   5.052 -0.0397  0.0182  0.2000
 7502TIP3    H143921   2.988   2.722   4.982 -0.8233  0.4955  0.9041
 7502TIP3    H243922   3.011   2.687   5.128 -0.3936  2.4736  1.3313
 7503TIP3   OH243923   5.751   3.108  15.727  0.4294 -0.0604  0.3630
 7503TIP3    H143924   5.783   3.144  15.644  1.6647 -0.4439  0.6680
 7503TIP3    H243925   5.713   3.024  15.703 -0.6922  0.5493 -0.0527
 7504TIP3   OH243926   0.359   0.615   5.732 -0.4492 -0.6728  0.0556
 7504TIP3    H143927   0.425   0.611   5.801  1.0682 -0.1646 -1.3352
 7504TIP3    H243928   0.348   0.709   5.715 -2.7615 -0.6527  1.4035
 7505TIP3   OH243929   6.173   2.482   3.579 -0.0585  0.2932  0.2797
 7505TIP3    H143930   6.100   2.482   3.518  1.2251 -0.3723 -1.2999
 7505TIP3    H243931   6.163   2.562   3.630 -2.5651 -0.3908  0.9351
 7506TIP3   OH243932   6.784   1.345  13.845 -0.2523 -0.4798 -0.2508
 7506TIP3    H143933   6.862   1.371  13.895  0.3161 -1.4608 -0.6020
 7506TIP3    H243934   6.714   1.399  13.880  0.4160 -0.2061  0.6929
 7507TIP3   OH243935   1.780   5.876  13.095  0.0607  0.3234  0.0722
 7507TIP3    H143936   1.715   5.905  13.031  0.4348  0.9526 -0.0251
 7507TIP3    H243937   1.760   5.927  13.174  0.0264  0.0422  0.2464
 7508TIP3   OH243938   4.169   0.664   3.918  0.2657 -0.3470 -0.0140
 7508TIP3    H143939   4.188   0.752   3.951  1.3434  0.0080 -1.5371
 7508TIP3    H243940   4.159   0.610   3.997 -0.1101  1.0696  0.9175
 7509TIP3   OH243941   5.057   3.686  12.707  0.0783  0.0728  0.4829
 7509TIP3    H143942   5.064   3.780  12.690 -1.4554  0.1068 -0.0845
 7509TIP3    H243943   5.088   3.644  12.626  0.3021  0.0934  0.5570
 7510TIP3   OH243944   5.380   6.007  10.403 -0.2588 -0.4878  0.1988
 7510TIP3    H143945   5.380   5.915  10.375 -0.7505 -0.5399  0.3506
 7510TIP3    H243946   5.287   6.027  10.418 -0.1216 -0.0681  0.4964
 7511TIP3   OH243947   5.731   4.542   3.713  0.0431 -0.0372  0.2610
 7511TIP3    H143948   5.719   4.463   3.765 -1.5298 -0.6763 -1.0746
 7511TIP3    H243949   5.666   4.537   3.643  0.2956  2.1471 -0.1939
 7512TIP3   OH243950   0.696   5.710  13.338 -0.0813 -0.7992  0.1375
 7512TIP3    H143951   0.737   5.794  13.360 -0.8444 -0.4236  0.1342
 7512TIP3    H243952   0.713   5.655  13.414  0.8000 -0.7824 -0.0406
 7513TIP3   OH243953   2.637   2.203  13.678  0.0459  0.5298 -0.3219
 7513TIP3    H143954   2.561   2.214  13.735  0.1722  1.0774 -0.2538
 7513TIP3    H243955   2.606   2.150  13.606 -0.5750  1.2717 -0.6116
 7514TIP3   OH243956   3.185   3.343  16.798  0.0449 -0.3793 -0.2757
 7514TIP3    H143957   3.281   3.349  16.797  0.1080 -0.8775  1.5520
 7514TIP3    H243958   3.157   3.397  16.724  1.6202  1.7898  0.6727
 7515TIP3   OH243959   6.180   5.659  15.897 -0.6300 -0.7769 -0.1085
 7515TIP3    H143960   6.177   5.715  15.975  0.7230  2.1897 -2.1304
 7515TIP3    H243961   6.094   5.670  15.856 -0.8390 -1.2574  0.1881
 7516TIP3   OH243962   5.219   1.088  16.461  0.2205  0.3830  0.5406
 7516TIP3    H143963   5.303   1.133  16.457  0.7893 -0.5151  2.1282
 7516TIP3    H243964   5.175   1.125  16.538 -0.6128  0.4516  0.0390
 7517TIP3   OH243965   3.060   5.766  13.865 -0.7584 -0.1066 -0.1851
 7517TIP3    H143966   3.102   5.769  13.779 -0.9430  0.5352 -0.2563
 7517TIP3    H243967   3.061   5.857  13.896 -1.7956 -0.1246 -0.0530
 7518TIP3   OH243968   5.156   4.626   0.742 -0.1983  0.0043 -0.3431
 7518TIP3    H143969   5.119   4.651   0.657  0.9249  0.9039 -0.5809
 7518TIP3    H243970   5.225   4.691   0.758  0.0937 -0.6072  0.9042
 7519TIP3   OH243971   2.209   5.292   1.315  0.3782 -0.2808  0.5309
 7519TIP3    H143972   2.158   5.229   1.264  0.1318  0.7893 -0.5615
 7519TIP3    H243973   2.290   5.302   1.267 -0.2566  1.4813 -0.2031
 7520TIP3   OH243974   6.301   3.122  17.180 -0.2551  0.1867  0.2994
 7520TIP3    H143975   6.386   3.143  17.219  0.2066  0.9110 -1.0743
 7520TIP3    H243976   6.322   3.085  17.094 -1.2862 -0.7851  0.4521
 7521TIP3   OH243977   2.722   3.679  14.567  0.0609 -0.0063 -0.0524
 7521TIP3    H143978   2.694   3.672  14.658 -0.2013 -0.5846 -0.1710
 7521TIP3    H243979   2.811   3.714  14.571 -0.6395  1.7626  0.3359
 7522TIP3   OH243980   5.193   1.973  15.372 -0.0848 -0.0748  0.0580
 7522TIP3    H143981   5.102   1.949  15.383  0.0755 -1.1350 -0.8921
 7522TIP3    H243982   5.222   2.000  15.460 -1.4041  0.6391  0.2770
 7523TIP3   OH243983   0.694   0.742   3.807 -0.5393  0.0595 -0.0562
 7523TIP3    H143984   0.747   0.714   3.881 -2.0654 -0.5029  0.8426
 7523TIP3    H243985   0.653   0.662   3.775 -2.7737  0.8208  0.8145
 7524TIP3   OH243986   5.728   3.358  12.582  0.4365 -0.1675  0.4057
 7524TIP3    H143987   5.648   3.328  12.539  0.3610 -0.1260  0.5162
 7524TIP3    H243988   5.703   3.370  12.674  0.2386  1.0680  0.1979
 7525TIP3   OH243989   3.884   5.165   1.616 -0.3926 -0.1694 -0.1633
 7525TIP3    H143990   3.852   5.180   1.705  0.0941 -0.9371  0.1477
 7525TIP3    H243991   3.972   5.202   1.616  0.1769 -1.4871  0.1207
 7526TIP3   OH243992   6.681   6.725   2.431  0.5791 -0.2600 -0.3986
 7526TIP3    H143993   6.755   6.714   2.491 -0.6069 -0.0307  1.1242
 7526TIP3    H243994   6.636   6.804   2.461 -0.4553 -0.5542 -1.1255
 7527TIP3   OH243995   0.272   1.352   5.040 -0.3438 -0.2471  0.0586
 7527TIP3    H143996   0.357   1.329   5.078 -1.0437 -0.6696  1.3981
 7527TIP3    H243997   0.214   1.280   5.064 -1.6593  1.1396  1.1799
 7528TIP3   OH243998   4.508   6.615  14.745 -0.5931  0.0551  0.1613
 7528TIP3    H143999   4.552   6.533  14.770 -1.1929 -0.2247  0.3290
 7528TIP3    H244000   4.438   6.587  14.685  0.4824  0.6629 -1.4006
 7529TIP3   OH244001   3.438   6.083  17.130  0.0784 -0.8627 -0.0044
 7529TIP3    H144002   3.453   5.990  17.116  0.3592 -1.3002  2.9369
 7529TIP3    H244003   3.343   6.094  17.124 -0.1271 -1.6993  1.5883
 7530TIP3   OH244004   2.926   0.922   0.991  0.1234 -0.1971  0.3833
 7530TIP3    H144005   2.972   0.863   0.931 -0.0630  0.0263  0.0206
 7530TIP3    H244006   2.878   0.864   1.049  0.5097 -0.4217  0.4804
 7531TIP3   OH244007   0.200   2.868  16.623 -0.1771  0.0572  0.0517
 7531TIP3    H144008   0.134   2.862  16.554 -1.9061  0.3367  1.6481
 7531TIP3    H244009   0.164   2.930  16.686  1.1730 -0.5263  1.4350
 7532TIP3   OH244010   2.902   2.719   0.928 -0.0935 -0.1456  0.5088
 7532TIP3    H144011   2.915   2.739   0.835  0.5555  1.6398  0.9686
 7532TIP3    H244012   2.818   2.674   0.931 -0.2768  0.0682 -0.9029
 7533TIP3   OH244013   1.491   0.893  15.597  0.4584 -0.3884  0.2911
 7533TIP3    H144014   1.555   0.841  15.646 -0.1655 -0.9560  0.5171
 7533TIP3    H244015   1.428   0.922  15.663 -0.9685 -2.0297 -0.3049
 7534TIP3   OH244016   4.233   2.364   0.836  0.0100  0.1983 -0.1304
 7534TIP3    H144017   4.164   2.331   0.778  0.5274  1.4470 -1.4681
 7534TIP3    H244018   4.301   2.296   0.832  0.6581  0.9290 -2.1232
 7535TIP3   OH244019   3.910   4.581  12.855  0.2629 -0.7955 -0.0409
 7535TIP3    H144020   4.006   4.581  12.862  0.1259 -1.5083  2.1197
 7535TIP3    H244021   3.890   4.502  12.805  0.7891 -0.6312 -0.5302
 7536TIP3   OH244022   3.909   4.777   2.690  0.3818  0.3083 -0.0312
 7536TIP3    H144023   3.953   4.793   2.773  0.4311 -0.5692  0.1097
 7536TIP3    H244024   3.853   4.854   2.677  0.5125  0.5286  0.7206
 7537TIP3   OH244025   3.199   5.242  11.215  0.0427 -0.4183  0.0343
 7537TIP3    H144026   3.244   5.285  11.143  0.2701 -1.1211 -0.2467
 7537TIP3    H244027   3.154   5.167  11.175 -0.6397 -0.2454  0.4574
 7538TIP3   OH244028   3.850   4.607  16.717  0.4026 -0.3609 -0.2745
 7538TIP3    H144029   3.811   4.682  16.761  1.8963 -0.1144  0.6808
 7538TIP3    H244030   3.781   4.542  16.712 -0.6564  0.7465 -0.3222
 7539TIP3   OH244031   5.989   3.231   0.573 -0.1984  0.2993  0.4025
 7539TIP3    H144032   6.057   3.279   0.620  0.7143 -0.5140 -0.0603
 7539TIP3    H244033   6.026   3.144   0.560 -0.6386  0.3499 -1.3445
 7540TIP3   OH244034   0.429   2.141   1.975  0.0661  0.4604  0.2410
 7540TIP3    H144035   0.334   2.128   1.971  0.0662  1.0289 -1.7139
 7540TIP3    H244036   0.440   2.220   2.027 -0.5758  0.9520 -0.3656
 7541TIP3   OH244037   4.104   0.040  10.671  0.4429 -0.0549  0.4254
 7541TIP3    H144038   4.040   0.089  10.618  2.4039  1.9514 -0.1694
 7541TIP3    H244039   4.138  -0.026  10.611  0.0147 -0.1584  0.2910
 7542TIP3   OH244040   5.922   1.200   1.846 -0.2062  0.5462 -0.2333
 7542TIP3    H144041   5.991   1.232   1.787 -0.4634  0.4068 -0.6070
 7542TIP3    H244042   5.958   1.120   1.883  0.5154  1.3473  0.8389
 7543TIP3   OH244043   6.634   5.826   6.336  0.4889  0.1910  0.2506
 7543TIP3    H144044   6.663   5.818   6.426 -0.4982 -0.3566  0.5302
 7543TIP3    H244045   6.700   5.882   6.294  1.4866 -0.3759  1.0474
 7544TIP3   OH244046   2.036   0.740  15.629 -0.2356 -0.1616 -0.0182
 7544TIP3    H144047   1.975   0.776  15.565  0.0887  0.1099 -0.1800
 7544TIP3    H244048   1.981   0.699  15.696 -0.5929  0.2735 -0.0479
 7545TIP3   OH244049   6.293   3.838  16.857  0.3022 -0.3834  0.0140
 7545TIP3    H144050   6.324   3.750  16.837  1.7736 -1.0333  4.4137
 7545TIP3    H244051   6.264   3.832  16.948  1.7567  3.9893  0.8758
 7546TIP3   OH244052   2.021   0.330  13.006 -0.0238  0.3555  0.4088
 7546TIP3    H144053   2.059   0.361  13.088 -0.5204 -1.2244  1.2432
 7546TIP3    H244054   1.959   0.262  13.032  1.9707 -2.2815 -1.4368
 7547TIP3   OH244055   6.133   0.036  17.035 -0.2226  0.1064 -0.4146
 7547TIP3    H144056   6.188  -0.026  16.986 -0.0860  0.0682 -0.2126
 7547TIP3    H244057   6.095  -0.016  17.105 -1.1055 -0.0354 -0.9973
 7548TIP3   OH244058   1.071   5.998   3.766 -0.1390 -0.2046  0.0215
 7548TIP3    H144059   1.064   5.981   3.672 -1.7069  0.6671 -0.0357
 7548TIP3    H244060   0.981   5.997   3.798  0.2434  1.2065  1.2015
 7549TIP3   OH244061   4.873   2.187  17.111 -0.4849 -0.8521 -0.6834
 7549TIP3    H144062   4.939   2.250  17.080 -0.0287 -0.3875  1.1728
 7549TIP3    H244063   4.897   2.105  17.069  0.3140 -0.3057 -1.3163
 7550TIP3   OH244064   2.760   5.934   4.809 -0.0403 -0.3636 -0.2268
 7550TIP3    H144065   2.798   5.854   4.775  2.2649 -0.8902  3.3661
 7550TIP3    H244066   2.829   6.000   4.800 -0.5634  0.2718  0.3168
 7551TIP3   OH244067   2.328   3.465  13.466 -0.0113  0.1889 -0.4957
 7551TIP3    H144068   2.385   3.530  13.423  0.0734 -0.5643 -1.5506
 7551TIP3    H244069   2.289   3.512  13.539  2.0279  0.7081  0.2951
 7552TIP3   OH244070   1.535   1.543  15.596 -0.0003  0.0636 -0.3747
 7552TIP3    H144071   1.451   1.568  15.634  0.4780  1.9380 -0.4771
 7552TIP3    H244072   1.527   1.564  15.503  1.5295  3.0256  0.0931
 7553TIP3   OH244073   2.839   4.618  16.559  0.3434  0.2242  0.0692
 7553TIP3    H144074   2.804   4.674  16.629 -1.1291 -1.0724  0.3917
 7553TIP3    H244075   2.783   4.636  16.484  1.8657  1.5410 -0.7900
 7554TIP3   OH244076   6.591   5.672   6.065 -0.1236 -0.0091 -0.3620
 7554TIP3    H144077   6.587   5.682   6.160 -0.2473 -1.4063 -0.2007
 7554TIP3    H244078   6.510   5.625   6.043  0.8469 -1.4675 -0.8905
 7555TIP3   OH244079   0.515   5.015  13.664 -0.0412  0.3274 -0.4752
 7555TIP3    H144080   0.610   5.002  13.665 -0.1795 -0.6744 -0.6492
 7555TIP3    H244081   0.500   5.074  13.590  0.5806  1.5811  0.3782
 7556TIP3   OH244082   4.131   4.305   5.915 -0.6880  0.3664  0.0032
 7556TIP3    H144083   4.131   4.394   5.950 -1.5974  0.3782 -0.0220
 7556TIP3    H244084   4.210   4.301   5.861 -0.9816  1.3708 -0.5232
 7557TIP3   OH244085   2.251   4.808   0.143  0.1936 -0.1215 -0.1079
 7557TIP3    H144086   2.293   4.893   0.130 -1.4148  1.0163  1.8207
 7557TIP3    H244087   2.289   4.752   0.075  2.8345  1.5392 -0.0832
 7558TIP3   OH244088   0.335   5.212   1.718  0.6057 -0.1189  0.0672
 7558TIP3    H144089   0.348   5.118   1.713  0.5916 -0.1330  0.2765
 7558TIP3    H244090   0.245   5.225   1.687  1.5319  0.1178 -2.6400
 7559TIP3   OH244091   0.791   3.975  13.045  0.1428  0.3492  0.3989
 7559TIP3    H144092   0.794   4.064  13.011 -0.7331  1.0175  2.0195
 7559TIP3    H244093   0.840   3.923  12.982 -1.1607  1.6104 -1.7022
 7560TIP3   OH244094   0.274   2.563  12.154 -0.3840 -0.2446  0.4945
 7560TIP3    H144095   0.216   2.600  12.220 -0.6822 -2.1555  1.3457
 7560TIP3    H244096   0.301   2.638  12.101 -0.6303  1.2308  2.3911
 7561TIP3   OH244097   2.566   5.716  13.573 -0.0888  0.2168 -0.4616
 7561TIP3    H144098   2.531   5.677  13.653 -1.7338  0.8988 -0.8290
 7561TIP3    H244099   2.543   5.654  13.504  1.1015 -0.2441 -0.4631
 7562TIP3   OH244100   4.556   4.904  13.352  0.1920  0.5918  0.2091
 7562TIP3    H144101   4.477   4.918  13.299  0.5788  0.7024 -0.3368
 7562TIP3    H244102   4.538   4.949  13.434 -0.6611 -0.0947  0.4026
 7563TIP3   OH244103   6.098   2.681   3.227 -0.2979  0.1824  0.5261
 7563TIP3    H144104   6.067   2.595   3.254  0.0211  0.7629  2.8881
 7563TIP3    H244105   6.179   2.663   3.178 -1.5120 -0.9756 -1.1358
 7564TIP3   OH244106   1.426   1.714  12.477  0.2053 -0.0684 -0.0488
 7564TIP3    H144107   1.402   1.802  12.504 -0.5742 -0.5463  0.8303
 7564TIP3    H244108   1.505   1.726  12.423 -1.2517  1.4047 -1.9257
 7565TIP3   OH244109   0.088   5.355  12.818  0.2820  0.0210  0.3709
 7565TIP3    H144110   0.062   5.373  12.727 -1.3707  0.4659  0.9036
 7565TIP3    H244111   0.090   5.441  12.860  1.1842 -0.1682  0.7225
 7566TIP3   OH244112   5.771   4.910   4.054 -0.0352 -0.2039  0.0421
 7566TIP3    H144113   5.716   4.880   4.127  0.7537 -1.9556 -0.0578
 7566TIP3    H244114   5.745   4.854   3.981  1.0223 -0.2306 -0.3180
 7567TIP3   OH244115   3.065   6.085  10.491  0.1558  0.2750  0.1069
 7567TIP3    H144116   3.064   5.990  10.485  0.8295  0.3451 -1.0967
 7567TIP3    H244117   3.018   6.104  10.573 -4.2909 -0.8740 -1.9850
 7568TIP3   OH244118   1.129   5.089  15.089  0.3580  0.7551  0.3798
 7568TIP3    H144119   1.083   5.012  15.057  0.8679  0.4427  0.3951
 7568TIP3    H244120   1.060   5.147  15.120 -0.0523  0.4803 -0.0194
 7569TIP3   OH244121   4.346   4.002  13.018  0.2951 -0.1686 -0.0593
 7569TIP3    H144122   4.321   4.079  12.966 -0.2591  1.4522  2.5071
 7569TIP3    H244123   4.422   4.031  13.068  1.1111 -1.8448 -0.3248
 7570TIP3   OH244124   4.130   0.287  11.957  0.0381 -0.3714 -0.2322
 7570TIP3    H144125   4.063   0.320  12.016 -1.0109  1.8742 -2.5836
 7570TIP3    H244126   4.178   0.221  12.008 -1.9409  0.2469  2.4784
 7571TIP3   OH244127   0.239   6.378   4.474 -0.3469  0.0146  0.1797
 7571TIP3    H144128   0.267   6.327   4.397  1.9344 -0.0741  1.0278
 7571TIP3    H244129   0.254   6.469   4.448  1.3022 -0.0522  0.8048
 7572TIP3   OH244130   3.013   4.583   5.541  0.1830  0.2958  0.2042
 7572TIP3    H144131   3.022   4.541   5.626  0.4901 -0.4603 -0.1948
 7572TIP3    H244132   3.093   4.635   5.532 -0.0734  0.7607  0.5821
 7573TIP3   OH244133   3.294   5.261  11.555  0.0955  0.3993  0.5297
 7573TIP3    H144134   3.232   5.333  11.543 -0.1570  0.3828  1.6570
 7573TIP3    H244135   3.376   5.303  11.580  1.0077  0.5267 -2.4576
 7574TIP3   OH244136   2.627   0.462   1.475  0.1279  0.2120 -0.0935
 7574TIP3    H144137   2.707   0.503   1.507  0.7685 -1.8140  0.9696
 7574TIP3    H244138   2.638   0.369   1.494 -1.6728 -0.3548 -1.6375
 7575TIP3   OH244139   2.486   3.666  12.834 -0.2189 -0.1483 -0.0371
 7575TIP3    H144140   2.546   3.596  12.809  0.0389  0.6518 -1.7775
 7575TIP3    H244141   2.510   3.740  12.777 -2.7670  0.2169 -0.7363
 7576TIP3   OH244142   5.268   2.786  11.008 -0.3016  0.0036 -0.4127
 7576TIP3    H144143   5.209   2.809  11.080 -0.7184 -0.7625 -0.4999
 7576TIP3    H244144   5.214   2.731  10.950 -0.9671  3.1514 -2.9303
 7577TIP3   OH244145   1.569   5.058   3.897  0.5445  0.4689  0.2037
 7577TIP3    H144146   1.599   4.991   3.960  0.1533  1.3905  1.3980
 7577TIP3    H244147   1.475   5.064   3.912  0.6005  1.3851  0.1976
 7578TIP3   OH244148   6.722   3.703  13.167 -0.0933  1.1134  0.4028
 7578TIP3    H144149   6.718   3.678  13.075  2.0915  2.1727 -0.0083
 7578TIP3    H244150   6.649   3.765  13.178  1.6152  3.5381 -1.4627
 7579TIP3   OH244151   6.143   5.783   0.702  0.0624 -0.3771 -0.3928
 7579TIP3    H144152   6.122   5.694   0.671  0.2714 -0.1285 -1.2789
 7579TIP3    H244153   6.230   5.775   0.740 -0.3783 -0.7805  0.5385
 7580TIP3   OH244154   4.815   1.995  15.113  0.1035  0.3050  0.0251
 7580TIP3    H144155   4.738   2.052  15.109  0.0922  0.2606 -0.4086
 7580TIP3    H244156   4.867   2.020  15.036  0.5374  0.3621  0.3370
 7581TIP3   OH244157   6.198   5.786   0.264  0.2917  0.3524  0.5693
 7581TIP3    H144158   6.262   5.761   0.331  0.3573  2.8710  1.4709
 7581TIP3    H244159   6.124   5.728   0.279  1.4103 -0.9879  1.0251
 7582TIP3   OH244160   4.665   5.798   5.847  0.0381 -0.7836 -0.5728
 7582TIP3    H144161   4.666   5.861   5.776  0.1149 -0.9118 -0.6861
 7582TIP3    H244162   4.575   5.765   5.848  0.0677 -0.8687 -0.6886
 7583TIP3   OH244163   4.308   5.254  16.785  0.1759  0.2909 -0.8185
 7583TIP3    H144164   4.296   5.178  16.729  0.6383 -0.1679 -0.3004
 7583TIP3    H244165   4.397   5.245  16.819 -0.0071  0.7020 -0.2237
 7584TIP3   OH244166   5.767   1.770  15.125 -0.4210  0.4697 -0.0616
 7584TIP3    H144167   5.841   1.830  15.118 -0.7431  0.7546 -0.9993
 7584TIP3    H244168   5.724   1.796  15.207  2.5073 -1.9804  2.3965
 7585TIP3   OH244169   5.730   4.711  16.685  0.3274 -0.0268  0.2323
 7585TIP3    H144170   5.810   4.680  16.642  0.8216  0.7823  0.5549
 7585TIP3    H244171   5.739   4.682  16.776 -0.6894 -1.6826 -0.1781
 7586TIP3   OH244172   0.482   0.008   1.295  0.2733  0.2644  0.4953
 7586TIP3    H144173   0.430   0.085   1.270  1.2350 -0.2629 -3.5478
 7586TIP3    H244174   0.439  -0.065   1.249  1.9035 -0.9079  0.8097
 7587TIP3   OH244175   5.689   1.222   2.238 -0.4576  0.3355  0.4063
 7587TIP3    H144176   5.679   1.298   2.180 -2.4628 -0.4077 -0.2623
 7587TIP3    H244177   5.683   1.147   2.179 -3.3274 -0.4534  1.6261
 7588TIP3   OH244178   3.446   0.782   4.631  0.3841 -0.4486  0.0178
 7588TIP3    H144179   3.448   0.690   4.603  0.0879 -1.1446  2.1920
 7588TIP3    H244180   3.501   0.784   4.709  0.2237  1.1999  0.0915
 7589TIP3   OH244181   3.898   5.274   4.380 -0.3075  0.0153  0.2932
 7589TIP3    H144182   3.868   5.200   4.432 -1.3306  1.1073  1.2750
 7589TIP3    H244183   3.859   5.351   4.422 -0.5698  0.9805 -1.6716
 7590TIP3   OH244184   4.864   4.535   3.297 -0.5141  0.5077 -0.0235
 7590TIP3    H144185   4.789   4.477   3.310 -1.3651  1.0716 -2.2649
 7590TIP3    H244186   4.938   4.487   3.335 -1.7718 -0.5721  1.1242
 7591TIP3   OH244187   6.467   0.037  14.396 -0.4972  0.3034  0.1872
 7591TIP3    H144188   6.420   0.104  14.446  0.3610  0.8513  0.2631
 7591TIP3    H244189   6.558   0.045  14.425 -0.0744  0.3183 -1.1232
 7592TIP3   OH244190   6.744   5.038   3.548  0.2259 -0.2996  0.0280
 7592TIP3    H144191   6.719   4.946   3.550 -2.5884  0.4027 -0.2418
 7592TIP3    H244192   6.721   5.072   3.634 -0.0069  0.4357 -0.3133
 7593TIP3   OH244193   6.515   2.322  13.685  0.1162  0.1066  0.3197
 7593TIP3    H144194   6.608   2.311  13.704  0.0459  1.9850  1.8616
 7593TIP3    H244195   6.484   2.386  13.749 -2.2245 -0.4170 -0.2340
 7594TIP3   OH244196   3.697   1.072  12.932  0.0536  0.0707 -0.1216
 7594TIP3    H144197   3.787   1.067  12.900 -0.6235 -1.4355 -1.9034
 7594TIP3    H244198   3.670   0.981  12.940 -1.1428  0.5081  0.9368
 7595TIP3   OH244199   1.078   6.545   5.456  0.2020  0.4847 -0.2011
 7595TIP3    H144200   1.026   6.545   5.376  0.6411  3.4442 -0.5414
 7595TIP3    H244201   1.014   6.561   5.526  0.4545  3.1002 -0.5185
 7596TIP3   OH244202   4.037   6.559  13.552 -0.0058 -0.0770 -0.3360
 7596TIP3    H144203   4.034   6.466  13.574  1.1134  0.0182  0.2913
 7596TIP3    H244204   4.045   6.561  13.457 -3.7825 -0.5221 -0.7198
 7597TIP3   OH244205   1.883   4.801   6.232 -0.4252  0.0165 -0.3250
 7597TIP3    H144206   1.894   4.894   6.251 -0.9734 -0.0917  0.5529
 7597TIP3    H244207   1.831   4.768   6.305  0.5156 -1.1579 -0.1702
 7598TIP3   OH244208   2.612   3.850  11.343 -0.0688 -0.2783  0.2774
 7598TIP3    H144209   2.609   3.905  11.264  0.1146  0.7450  0.9724
 7598TIP3    H244210   2.650   3.767  11.314 -0.3319 -0.0337 -0.7812
 7599TIP3   OH244211   2.142   5.843   2.366 -0.1842 -0.4700 -0.5749
 7599TIP3    H144212   2.201   5.918   2.367 -1.5443  0.6751 -2.2260
 7599TIP3    H244213   2.192   5.772   2.405  1.9910  0.6782 -1.2146
 7600TIP3   OH244214   4.687   3.311  13.374 -0.0915  0.0447  0.3927
 7600TIP3    H144215   4.755   3.248  13.352  1.6764  1.6934  0.9928
 7600TIP3    H244216   4.606   3.273  13.340  1.2370 -1.6137 -0.9498
 7601TIP3   OH244217   2.648   1.322   4.160 -0.0876  0.5486  0.0034
 7601TIP3    H144218   2.635   1.379   4.084  0.2276  0.4499 -0.1241
 7601TIP3    H244219   2.724   1.359   4.205 -0.2275  0.5617  0.2278
 7602TIP3   OH244220   3.261   5.854  16.489 -0.3636  0.3395 -0.1512
 7602TIP3    H144221   3.192   5.815  16.436  0.4619 -0.2352 -0.8176
 7602TIP3    H244222   3.335   5.864  16.429  0.5036 -0.0851  0.8270
 7603TIP3   OH244223   5.886   3.498  16.943  0.7611  0.1187 -0.8699
 7603TIP3    H144224   5.845   3.515  17.028  1.5285 -1.6892 -0.1010
 7603TIP3    H244225   5.974   3.466  16.965  1.2363  0.3486 -2.3705
 7604TIP3   OH244226   2.823   3.124   2.431 -0.4336  0.0100  1.1862
 7604TIP3    H144227   2.885   3.187   2.467  2.6422 -0.3765 -3.0281
 7604TIP3    H244228   2.764   3.177   2.377 -0.7795 -0.1660  1.3929
 7605TIP3   OH244229   4.938   2.747   5.361  0.6092 -0.0648  0.0370
 7605TIP3    H144230   4.863   2.764   5.304 -0.8481  1.4161  2.3338
 7605TIP3    H244231   5.009   2.797   5.322 -0.1586  0.3062 -0.9135
 7606TIP3   OH244232   0.462   2.048  14.638  0.5301  0.1859  0.6664
 7606TIP3    H144233   0.525   1.980  14.616 -0.5267 -0.2518 -1.0541
 7606TIP3    H244234   0.500   2.128  14.602 -1.5932 -0.6495 -3.7627
 7607TIP3   OH244235   0.704   6.263  15.413  0.3124 -0.4029  0.2590
 7607TIP3    H144236   0.797   6.285  15.409  0.0386  0.6217 -0.5174
 7607TIP3    H244237   0.660   6.330  15.361 -0.6093 -2.3655 -1.5852
 7608TIP3   OH244238   0.466   4.433   3.866 -0.0504 -0.0906 -0.6464
 7608TIP3    H144239   0.444   4.521   3.897 -1.8345  0.1489 -2.4516
 7608TIP3    H244240   0.531   4.447   3.797 -1.1648 -0.0609 -1.7190
 7609TIP3   OH244241   2.990   4.152   5.568  0.1128 -0.0008 -0.0755
 7609TIP3    H144242   3.034   4.228   5.529  0.3887 -0.3160 -0.3911
 7609TIP3    H244243   3.040   4.076   5.535  0.0769 -0.2950  0.5462
 7610TIP3   OH244244   6.459   0.177   0.991 -0.6198 -0.0765 -0.1912
 7610TIP3    H144245   6.467   0.087   0.960 -1.0586 -0.0825 -0.2972
 7610TIP3    H244246   6.417   0.169   1.077 -2.0536  0.1090 -0.8495
 7611TIP3   OH244247   3.588   2.424   0.404  0.4436  0.2922 -0.6012
 7611TIP3    H144248   3.650   2.490   0.436  0.5964 -0.2882  0.3431
 7611TIP3    H244249   3.504   2.449   0.442  0.6610 -0.5054  0.4437
 7612TIP3   OH244250   5.643   2.815   4.556 -0.1315 -0.0877 -0.0045
 7612TIP3    H144251   5.564   2.762   4.560 -0.1376 -0.1184 -0.4484
 7612TIP3    H244252   5.637   2.861   4.472  0.0814  0.2867  0.1853
 7613TIP3   OH244253   6.640   5.186   4.205 -0.2458 -0.7848  0.2657
 7613TIP3    H144254   6.575   5.198   4.136 -0.0239 -1.8105 -0.1267
 7613TIP3    H244255   6.590   5.186   4.286 -0.5871 -0.2806  0.0544
 7614TIP3   OH244256   6.323   2.074   0.586  0.2571  0.1773  0.0113
 7614TIP3    H144257   6.235   2.043   0.562  0.5320  0.7306 -1.7946
 7614TIP3    H244258   6.380   2.039   0.518  1.2195  1.0795  0.3342
 7615TIP3   OH244259   2.519   0.380  11.323 -0.7196 -0.0718 -0.0407
 7615TIP3    H144260   2.539   0.471  11.303  0.8520 -0.0810  1.3881
 7615TIP3    H244261   2.572   0.329  11.261 -0.5766 -0.0198  0.0367
 7616TIP3   OH244262   2.000   3.141  14.749 -0.6286  0.2637  0.2945
 7616TIP3    H144263   2.034   3.066  14.799 -0.7641  0.7547  1.1428
 7616TIP3    H244264   2.071   3.205  14.752 -0.8529  0.5107  0.3305
 7617TIP3   OH244265   4.313   6.360   1.722 -0.1301  0.4024 -0.2634
 7617TIP3    H144266   4.276   6.385   1.807 -0.9856 -2.1379  0.1606
 7617TIP3    H244267   4.274   6.275   1.704  1.8822 -0.1518 -2.1011
 7618TIP3   OH244268   3.141   1.206   3.559 -0.2666  0.6374  0.2512
 7618TIP3    H144269   3.220   1.208   3.506  0.0158 -0.7661  0.6102
 7618TIP3    H244270   3.097   1.289   3.540  0.5461  0.7674 -1.0826
 7619TIP3   OH244271   2.352   5.848  11.665 -0.9901  0.0547  0.0149
 7619TIP3    H144272   2.299   5.773  11.636  0.9890 -0.6262 -2.0142
 7619TIP3    H244273   2.392   5.818  11.747  0.3455 -1.4177 -1.1363
 7620TIP3   OH244274   6.486   6.469  13.521 -0.0175 -0.2746 -0.0119
 7620TIP3    H144275   6.536   6.452  13.441  1.1113 -0.5006  0.7288
 7620TIP3    H244276   6.484   6.565  13.528 -0.2568 -0.2509 -0.3921
 7621TIP3   OH244277   0.660   6.747   4.206  0.1497  0.1440 -1.1854
 7621TIP3    H144278   0.753   6.725   4.210  0.5299  1.7331 -0.7150
 7621TIP3    H244279   0.625   6.716   4.289  0.8431  1.9654 -0.1793
 7622TIP3   OH244280   3.491   6.541  11.656 -0.0304  0.1342 -0.5494
 7622TIP3    H144281   3.532   6.489  11.586  0.6180  0.3918 -0.3637
 7622TIP3    H244282   3.549   6.616  11.666 -0.4158  0.3689 -0.0992
 7623TIP3   OH244283   2.787   3.261   4.620  0.2022 -0.1258  0.6591
 7623TIP3    H144284   2.751   3.266   4.709 -0.4473  0.7399  0.3618
 7623TIP3    H244285   2.716   3.223   4.568  0.0591  0.6824  0.2504
 7624TIP3   OH244286   3.655   2.131   3.376 -0.0182 -1.0115  0.2659
 7624TIP3    H144287   3.714   2.206   3.369 -0.2419 -0.9515 -1.1999
 7624TIP3    H244288   3.610   2.144   3.460  1.0886 -0.3594  0.7705
 7625TIP3   OH244289   6.276   0.764   0.738  0.4524  0.3875  0.0977
 7625TIP3    H144290   6.249   0.819   0.812 -0.8993  0.3758 -0.3823
 7625TIP3    H244291   6.228   0.682   0.751  1.8206 -0.3948  0.3528
 7626TIP3   OH244292   3.532   0.219   2.821  0.4819 -0.1672 -0.2827
 7626TIP3    H144293   3.496   0.134   2.848  1.7822 -0.7952 -0.4742
 7626TIP3    H244294   3.460   0.262   2.777 -0.3771 -0.9328  0.3373
 7627TIP3   OH244295   6.300   0.841  14.480  0.5006 -0.0039 -0.0702
 7627TIP3    H144296   6.246   0.840  14.401  0.7750  0.4521 -0.2638
 7627TIP3    H244297   6.245   0.800  14.547 -0.6194  1.7564  0.0962
 7628TIP3   OH244298   3.231   3.905  11.985 -0.3443  0.5471 -0.1584
 7628TIP3    H144299   3.235   3.879  12.078 -0.2849 -0.2089 -0.3641
 7628TIP3    H244300   3.283   3.985  11.980 -2.7269  2.2192  0.9997
 7629TIP3   OH244301   1.496   2.670   2.065  0.0734  0.1566 -0.2025
 7629TIP3    H144302   1.464   2.642   1.980  0.2828  0.0368 -0.2413
 7629TIP3    H244303   1.565   2.608   2.087  0.0133  0.1822  0.0578
 7630TIP3   OH244304   2.610   4.383  15.608 -0.0718  0.1425 -0.1050
 7630TIP3    H144305   2.629   4.291  15.625 -0.0859  0.2607  0.5768
 7630TIP3    H244306   2.580   4.417  15.692 -0.9441  0.5480 -0.5716
 7631TIP3   OH244307   6.704   4.771  14.449  0.1508 -0.6926 -0.2290
 7631TIP3    H144308   6.712   4.718  14.370  1.5827  0.4203 -0.8531
 7631TIP3    H244309   6.616   4.807  14.445 -0.2130 -1.6174 -0.6896
 7632TIP3   OH244310   2.895   0.720  15.683 -0.2931 -0.1430  0.0033
 7632TIP3    H144311   2.968   0.729  15.746 -1.3617 -2.8493  1.6961
 7632TIP3    H244312   2.822   0.764  15.727 -0.5954 -0.5188 -0.1342
 7633TIP3   OH244313   1.936   4.474  15.014  0.1099  0.6720  0.2102
 7633TIP3    H144314   1.961   4.475  14.922 -1.3406 -0.9404 -0.2219
 7633TIP3    H244315   1.843   4.496  15.014  0.1519  0.8920  1.3271
 7634TIP3   OH244316   2.834   1.220  15.596  0.2199 -0.1618  0.1408
 7634TIP3    H144317   2.765   1.154  15.587  1.9363 -1.8386 -1.0185
 7634TIP3    H244318   2.805   1.292  15.540  0.0033 -1.3904 -1.3853
 7635TIP3   OH244319   5.019   3.164   1.749 -0.4736 -0.0811  0.2294
 7635TIP3    H144320   4.987   3.075   1.731  0.1923 -0.3925  0.5559
 7635TIP3    H244321   5.064   3.156   1.834 -0.1836  0.5044  0.1311
 7636TIP3   OH244322   2.827   6.291  10.979 -1.0790 -0.2850 -0.2005
 7636TIP3    H144323   2.790   6.330  11.059 -0.5731 -0.8528  0.3169
 7636TIP3    H244324   2.896   6.233  11.011  1.3323  1.9196 -1.2309
 7637TIP3   OH244325   5.249   3.546  16.890  0.1028  0.1553  0.0130
 7637TIP3    H144326   5.212   3.631  16.911  0.1934 -0.2197  1.7263
 7637TIP3    H244327   5.210   3.523  16.805 -0.6279  1.4697 -0.0112
 7638TIP3   OH244328   4.411   1.304   4.220  0.3474  0.3543  0.2620
 7638TIP3    H144329   4.317   1.290   4.205  0.2692  0.3307  0.7469
 7638TIP3    H244330   4.438   1.229   4.273  0.8534 -0.1454 -0.6844
 7639TIP3   OH244331   3.663   0.203   2.564  0.7491 -0.6296  0.0809
 7639TIP3    H144332   3.649   0.257   2.642 -0.0990 -0.6469 -0.0583
 7639TIP3    H244333   3.612   0.124   2.579  0.8358 -0.7711 -0.3534
 7640TIP3   OH244334   3.413   4.737  15.841 -0.0162  0.4462 -0.1500
 7640TIP3    H144335   3.376   4.799  15.904  1.3244  2.0993 -0.9323
 7640TIP3    H244336   3.346   4.669  15.832 -1.1267  1.2974  1.4408
 7641TIP3   OH244337   3.340   6.105  16.158 -1.0572 -0.0390  0.4563
 7641TIP3    H144338   3.371   6.156  16.234 -2.9707  0.2284  1.0916
 7641TIP3    H244339   3.371   6.154  16.082  1.3170 -0.5722  1.0303
 7642TIP3   OH244340   5.775   2.229  11.507 -0.0965  0.3885 -0.6417
 7642TIP3    H144341   5.726   2.240  11.426 -1.7301  3.0808  0.6397
 7642TIP3    H244342   5.715   2.259  11.576  1.9028 -0.1002  1.3716
 7643TIP3   OH244343   6.273   1.606   5.421 -0.7330 -0.2035  0.3283
 7643TIP3    H144344   6.248   1.698   5.420  0.1446  0.0281 -0.6400
 7643TIP3    H244345   6.195   1.560   5.390 -0.0500  0.5098 -2.5778
 7644TIP3   OH244346   4.991   3.324  13.354  0.8242 -0.2813 -0.3885
 7644TIP3    H144347   4.964   3.234  13.339 -2.3123  0.8461 -1.9402
 7644TIP3    H244348   5.038   3.348  13.275  0.7078 -0.2065 -0.4338
 7645TIP3   OH244349   6.651   1.079   1.399  0.0174 -0.2907 -0.0968
 7645TIP3    H144350   6.745   1.094   1.404  0.0092 -0.4134  0.5092
 7645TIP3    H244351   6.615   1.158   1.359  0.3105  0.0051  0.2246
 7646TIP3   OH244352   5.889   6.326   0.107  0.7660  0.2275  0.3260
 7646TIP3    H144353   5.866   6.237   0.136 -0.0535  0.2385 -0.2552
 7646TIP3    H244354   5.971   6.346   0.151 -0.9681  0.6617  3.5134
 7647TIP3   OH244355   3.899   3.188  11.036  0.3759 -0.1145  0.1098
 7647TIP3    H144356   3.935   3.101  11.020  2.4642  0.5934  0.8308
 7647TIP3    H244357   3.861   3.184  11.124 -1.5385 -0.9045 -0.7118
 7648TIP3   OH244358   5.869   5.843  14.248  0.3507  0.2361 -0.0415
 7648TIP3    H144359   5.926   5.894  14.190  0.1496 -0.2386 -0.6745
 7648TIP3    H244360   5.818   5.788  14.188  0.0166 -0.1417  0.5826
 7649TIP3   OH244361   1.707   4.060   0.979 -0.0574  0.4230  0.3057
 7649TIP3    H144362   1.710   4.069   0.884 -0.4513 -0.8800  0.1658
 7649TIP3    H244363   1.795   4.031   1.003  0.1789  1.2059  0.3888
 7650TIP3   OH244364   0.739   0.896  10.990  0.0105 -0.1507  0.1941
 7650TIP3    H144365   0.662   0.872  10.939 -0.8528 -1.6965  2.1767
 7650TIP3    H244366   0.799   0.823  10.980  1.3296  1.1110 -1.4624
 7651TIP3   OH244367   2.271   1.789  15.879 -0.6834  0.3866  0.3919
 7651TIP3    H144368   2.324   1.712  15.856 -0.9745  0.5032 -0.6749
 7651TIP3    H244369   2.187   1.773  15.837 -0.6314  1.4566 -0.1305
 7652TIP3   OH244370   3.020   5.201   4.288 -0.0228  0.5097 -0.7514
 7652TIP3    H144371   2.962   5.277   4.279 -0.0063  0.4797 -1.1263
 7652TIP3    H244372   2.960   5.126   4.283 -0.2340  0.5141  1.1139
 7653TIP3   OH244373   5.175   3.163  15.826  0.6281  0.1821 -0.5680
 7653TIP3    H144374   5.139   3.091  15.879  0.7958  0.0181 -0.6783
 7653TIP3    H244375   5.268   3.143  15.818  0.5836  0.1619 -1.0073
 7654TIP3   OH244376   2.881   2.944  11.704  0.1917 -0.4095  0.4673
 7654TIP3    H144377   2.940   2.963  11.776 -0.7935 -0.6121  1.3297
 7654TIP3    H244378   2.857   3.029  11.669  1.6312 -0.3436 -0.4220
 7655TIP3   OH244379   3.419   2.134  11.823  0.0837  0.3992 -0.2849
 7655TIP3    H144380   3.346   2.075  11.807  1.4117 -0.8924 -1.6597
 7655TIP3    H244381   3.441   2.121  11.916  0.1909 -1.0532 -0.5117
 7656TIP3   OH244382   6.363   1.657   1.672 -0.3338  0.1795 -0.3569
 7656TIP3    H144383   6.285   1.712   1.665 -0.1379  0.6349  0.8958
 7656TIP3    H244384   6.382   1.654   1.766  0.1070 -1.4058 -0.4915
 7657TIP3   OH244385   5.693   1.954  11.564  0.2134 -0.0820  0.0872
 7657TIP3    H144386   5.640   2.022  11.605  1.7701  0.5424  1.1060
 7657TIP3    H244387   5.741   2.000  11.496  1.7146 -0.0232  1.1665
 7658TIP3   OH244388   5.343   1.158  13.412  0.4659 -0.4384  0.5458
 7658TIP3    H144389   5.373   1.068  13.399  2.5104  0.1098  1.2708
 7658TIP3    H244390   5.264   1.150  13.465 -0.0255 -1.8750 -0.3982
 7659TIP3   OH244391   2.234   3.286  12.101  0.1265 -0.4600 -0.0959
 7659TIP3    H144392   2.139   3.302  12.104  0.1742 -0.5251  3.5260
 7659TIP3    H244393   2.261   3.286  12.192  3.7075 -0.1703 -1.1044
 7660TIP3   OH244394   1.094   0.575  15.621 -0.1302  0.2052  0.1887
 7660TIP3    H144395   1.096   0.617  15.707 -1.5260  0.0808  0.2877
 7660TIP3    H244396   1.160   0.623  15.570  1.2561 -0.2386  1.5468
 7661TIP3   OH244397   1.481   0.390  15.652 -0.3140 -0.1193  0.3708
 7661TIP3    H144398   1.530   0.327  15.704 -0.7989 -0.3166  0.5868
 7661TIP3    H244399   1.547   0.453  15.622  0.3170 -1.2753 -0.6700
 7662TIP3   OH244400   4.127   2.144   5.779 -0.1289 -0.3783  0.1640
 7662TIP3    H144401   4.090   2.059   5.756 -0.9068  0.3861 -1.5717
 7662TIP3    H244402   4.091   2.164   5.865 -2.7010 -0.2733 -0.9075
 7663TIP3   OH244403   1.449   6.559   4.489 -0.0372 -0.4736  0.0215
 7663TIP3    H144404   1.496   6.602   4.418 -0.7424 -0.6027 -0.5254
 7663TIP3    H244405   1.468   6.465   4.476  0.0390 -0.4768  0.1549
 7664TIP3   OH244406   1.117   4.808  12.527 -0.2861  0.1369 -0.6636
 7664TIP3    H144407   1.189   4.798  12.464  0.7270 -0.2411  0.5335
 7664TIP3    H244408   1.083   4.895  12.510  2.4026  1.5408  0.7111
 7665TIP3   OH244409   4.396   5.208  13.693 -0.3933 -0.0705  0.4134
 7665TIP3    H144410   4.331   5.189  13.760  0.7849 -0.3889  1.4847
 7665TIP3    H244411   4.375   5.296  13.662 -2.3794 -0.8393 -0.4785
 7666TIP3   OH244412   0.594   6.097   2.146 -0.5321  0.1071  0.0665
 7666TIP3    H144413   0.639   6.136   2.222 -2.2182 -0.2346  1.2769
 7666TIP3    H244414   0.554   6.172   2.102 -0.5540  0.1668  0.1876
 7667TIP3   OH244415   1.204   5.706   2.236 -0.2120  0.2275 -0.3047
 7667TIP3    H144416   1.248   5.622   2.243 -0.3398  0.4017  3.4230
 7667TIP3    H244417   1.112   5.687   2.252 -0.3631  0.9392 -0.2991
 7668TIP3   OH244418   4.221   0.848  16.615 -0.0149  0.8010 -0.2577
 7668TIP3    H144419   4.129   0.847  16.641  0.2520 -1.2384  0.6988
 7668TIP3    H244420   4.223   0.804  16.530  0.0070  1.3899 -0.5669
 7669TIP3   OH244421   1.544   2.374  16.139 -0.0014 -0.8714 -0.0736
 7669TIP3    H144422   1.512   2.307  16.199 -0.2829 -0.8541 -0.2012
 7669TIP3    H244423   1.505   2.352  16.054 -0.3148 -0.3953 -0.0565
 7670TIP3   OH244424   4.276   3.738   3.633 -0.5237  0.5133 -0.5604
 7670TIP3    H144425   4.258   3.663   3.689  0.0504 -2.1863 -3.8313
 7670TIP3    H244426   4.210   3.733   3.564  1.3841  1.2224 -2.5033
 7671TIP3   OH244427   3.927   5.345  14.907 -0.4572  0.0305 -0.4797
 7671TIP3    H144428   4.014   5.304  14.905  0.2880  1.6279 -1.1387
 7671TIP3    H244429   3.896   5.339  14.816 -1.6944 -1.8648  0.0269
 7672TIP3   OH244430   3.738   4.360  15.268  0.4079 -0.4565  0.5218
 7672TIP3    H144431   3.794   4.421  15.220 -0.6965 -0.0405 -0.2510
 7672TIP3    H244432   3.763   4.274  15.234  1.4303 -0.3932  1.0681
 7673TIP3   OH244433   0.658   0.471   5.901  1.1173  0.1990  0.2324
 7673TIP3    H144434   0.667   0.457   5.996  1.2116 -0.2488  0.1611
 7673TIP3    H244435   0.733   0.425   5.863 -0.0663 -1.4196 -0.1982
 7674TIP3   OH244436   2.652   0.332  13.628  0.0198 -0.5551 -0.3874
 7674TIP3    H144437   2.659   0.325  13.533  1.9750 -0.4227 -0.2622
 7674TIP3    H244438   2.739   0.310  13.661 -0.6654 -0.7239  1.3913
 7675TIP3   OH244439   2.442   1.530  15.914 -0.5468  0.2875  0.8108
 7675TIP3    H144440   2.362   1.496  15.875  0.1994  1.1506 -1.5619
 7675TIP3    H244441   2.511   1.473  15.882 -0.0598  0.2072  1.9673
 7676TIP3   OH244442   4.594   3.047   4.040  0.0497 -0.2746  0.4764
 7676TIP3    H144443   4.528   3.060   4.108  0.7081  2.0789  0.7357
 7676TIP3    H244444   4.562   3.098   3.965  1.2170  0.3415  0.3830
 7677TIP3   OH244445   0.350   0.429   3.312 -0.3843  0.4119  0.6277
 7677TIP3    H144446   0.439   0.408   3.340 -0.0255 -0.3855 -1.0582
 7677TIP3    H244447   0.303   0.447   3.393  1.3207  0.9105  1.5362
 7678TIP3   OH244448   3.370   1.851   6.149 -0.1747  0.0072  0.4151
 7678TIP3    H144449   3.355   1.896   6.232  1.0946 -0.2451  0.7964
 7678TIP3    H244450   3.410   1.916   6.093 -2.9524  0.7956 -0.7330
 7679TIP3   OH244451   0.109   1.542  11.495  0.5213 -0.3933  0.1418
 7679TIP3    H144452   0.170   1.581  11.432  0.4720  0.0983  0.3890
 7679TIP3    H244453   0.108   1.604  11.568  1.3927 -1.4886  1.1001
 7680TIP3   OH244454   6.281   3.558   5.911  0.1409 -0.1083 -0.6469
 7680TIP3    H144455   6.256   3.528   5.823  0.7160 -0.3821 -0.7210
 7680TIP3    H244456   6.220   3.630   5.930  0.8107  0.7767 -1.7886
 7681TIP3   OH244457   2.905   0.629  16.899  0.4993  0.3621 -0.1487
 7681TIP3    H144458   2.867   0.701  16.850 -0.5622  0.2622  0.5007
 7681TIP3    H244459   2.988   0.663  16.932  0.4003  1.0013 -0.5445
 7682TIP3   OH244460   3.392   6.354  11.253  0.1732 -0.0598  0.2606
 7682TIP3    H144461   3.305   6.368  11.291  0.5737  0.1666  1.0804
 7682TIP3    H244462   3.418   6.441  11.222  0.6179  0.1052  1.0876
 7683TIP3   OH244463   2.067   5.739  16.097 -0.4233 -0.6425 -0.2452
 7683TIP3    H144464   2.017   5.767  16.173 -1.0350 -0.1496 -0.8238
 7683TIP3    H244465   2.158   5.753  16.121 -0.7139  2.2000 -0.6377
 7684TIP3   OH244466   4.963   2.149   0.894  0.1062 -0.4725 -0.4231
 7684TIP3    H144467   5.006   2.065   0.877 -0.6045 -1.0639  0.6881
 7684TIP3    H244468   4.897   2.130   0.961  0.9612  1.2686  0.9590
 7685TIP3   OH244469   4.096   5.138  11.853 -0.1586 -0.1816 -0.4915
 7685TIP3    H144470   4.168   5.147  11.790 -0.8807  0.4999 -1.2443
 7685TIP3    H244471   4.076   5.228  11.879 -0.7159 -0.3690 -0.2672
 7686TIP3   OH244472   5.039   2.415  17.069 -0.2776  0.1328 -0.5133
 7686TIP3    H144473   5.001   2.441  16.985 -0.1737 -1.9573 -1.2404
 7686TIP3    H244474   5.111   2.356  17.045  0.6882  0.6545  1.0062
 7687TIP3   OH244475   2.554   2.394   2.065  0.0835  0.6499 -0.7245
 7687TIP3    H144476   2.577   2.311   2.107  0.2678  0.3840 -1.3354
 7687TIP3    H244477   2.582   2.383   1.974 -0.7993  1.0127 -1.0472
 7688TIP3   OH244478   5.571   0.829  14.804 -0.1688  0.7206 -0.6624
 7688TIP3    H144479   5.607   0.742  14.787  1.5576  1.2091  0.3398
 7688TIP3    H244480   5.580   0.875  14.720 -1.7726 -0.2897 -1.4007
 7689TIP3   OH244481   1.913   4.202   4.501  0.0264 -0.4833 -0.3388
 7689TIP3    H144482   1.951   4.144   4.436 -1.4966 -1.7053 -0.1550
 7689TIP3    H244483   1.820   4.203   4.481 -0.1441  0.9349  0.4299
 7690TIP3   OH244484   0.064   0.525  12.078  0.0510 -0.6939  0.2903
 7690TIP3    H144485   0.036   0.499  12.165  0.0539  0.8748  0.7687
 7690TIP3    H244486   0.156   0.547  12.088 -0.3675  1.1172  0.2592
 7691TIP3   OH244487   1.240   4.813   5.517  0.7651 -0.4646  0.1175
 7691TIP3    H144488   1.191   4.827   5.436  0.4364 -0.6186  0.2886
 7691TIP3    H244489   1.269   4.900   5.544 -1.3507 -0.0751  1.2345
 7692TIP3   OH244490   2.455   1.457  16.190  0.0412  0.9383 -0.2538
 7692TIP3    H144491   2.429   1.373  16.152 -0.1042  0.6268  0.5269
 7692TIP3    H244492   2.459   1.517  16.116  0.0209  0.2705 -0.7969
 7693TIP3   OH244493   0.049   0.437   2.218  0.0789  0.1269 -0.2648
 7693TIP3    H144494  -0.036   0.471   2.192 -0.1485  0.5041  0.9496
 7693TIP3    H244495   0.099   0.514   2.243  0.6058 -0.1476 -0.4680
 7694TIP3   OH244496   5.268   3.517   1.708 -0.5209 -0.4361  0.3743
 7694TIP3    H144497   5.242   3.531   1.618 -0.4504 -2.3521  0.0324
 7694TIP3    H244498   5.192   3.542   1.760 -0.3811  1.1603 -0.1661
 7695TIP3   OH244499   0.458   4.471  10.643 -0.4736 -0.1954 -0.0902
 7695TIP3    H144500   0.429   4.554  10.604  0.3307 -0.7409 -1.9050
 7695TIP3    H244501   0.428   4.475  10.734  0.2261  2.4217  0.0583
 7696TIP3   OH244502   2.395   4.533  12.602  0.0302 -0.6115  0.1369
 7696TIP3    H144503   2.399   4.438  12.613 -0.0769 -0.7290 -0.8110
 7696TIP3    H244504   2.477   4.564  12.642 -0.6982 -0.9431  1.9302
 7697TIP3   OH244505   5.287   1.168  11.684  0.2829  0.0909 -0.3094
 7697TIP3    H144506   5.305   1.138  11.595  2.7774  2.0564 -0.4947
 7697TIP3    H244507   5.329   1.103  11.740  0.7692  0.1570 -0.5972
 7698TIP3   OH244508   0.314   3.667   2.606  0.3005 -0.0127 -0.0166
 7698TIP3    H144509   0.279   3.582   2.632 -1.0145  0.8874  1.2715
 7698TIP3    H244510   0.352   3.703   2.686 -1.2685  1.6019  0.0374
 7699TIP3   OH244511   6.653   4.132  13.076  0.3689  0.1247  0.4232
 7699TIP3    H144512   6.607   4.129  12.992 -0.9359  0.1945  1.1147
 7699TIP3    H244513   6.616   4.208  13.121 -1.2459 -1.6738  2.3117
 7700TIP3   OH244514   5.619   0.532   0.884  0.4228  0.4375  0.0209
 7700TIP3    H144515   5.624   0.576   0.969  0.9939  1.8412 -0.7100
 7700TIP3    H244516   5.676   0.585   0.827 -0.2835 -0.2368 -1.3298
 7701TIP3   OH244517   1.856   6.186  13.641 -0.2412  0.1223  0.0663
 7701TIP3    H144518   1.920   6.191  13.570 -0.0124  0.8207  0.3133
 7701TIP3    H244519   1.882   6.109  13.691  0.2460  0.2407  0.0027
 7702TIP3   OH244520   0.991   4.373  14.344 -0.1396 -0.0533  0.5248
 7702TIP3    H144521   0.991   4.421  14.261 -0.5974 -0.8346  0.0630
 7702TIP3    H244522   1.080   4.382  14.377 -0.0129  0.4565  0.0615
 7703TIP3   OH244523   5.449   6.018   3.770  0.0742 -0.1014 -0.3568
 7703TIP3    H144524   5.400   6.098   3.753 -0.5214 -0.4328 -0.2240
 7703TIP3    H244525   5.494   6.034   3.853 -1.2635 -0.4715  0.4501
 7704TIP3   OH244526   2.606   2.477  15.601  0.4009 -0.0938  0.5235
 7704TIP3    H144527   2.629   2.386  15.585  3.1393  0.7244 -0.5240
 7704TIP3    H244528   2.538   2.496  15.537  1.4535 -0.7868 -0.8377
 7705TIP3   OH244529   0.095   4.853   0.062  0.1342  0.2764 -0.4404
 7705TIP3    H144530   0.181   4.888   0.037 -0.2506  1.0474 -0.7003
 7705TIP3    H244531   0.062   4.812  -0.018  0.0177  0.4748 -0.4954
 7706TIP3   OH244532   4.379   6.445  14.302  0.1670  0.1879 -0.0443
 7706TIP3    H144533   4.374   6.352  14.327 -1.6328  0.2052 -0.2276
 7706TIP3    H244534   4.466   6.455  14.264  0.5094 -1.3514  0.2807
 7707TIP3   OH244535   2.297   1.965   2.118  0.3166  0.3090 -0.1323
 7707TIP3    H144536   2.274   1.888   2.171 -0.3992  0.4826 -0.1837
 7707TIP3    H244537   2.371   2.004   2.164  0.3083 -0.0816  0.2184
 7708TIP3   OH244538   3.142   2.708  13.289 -0.0303  0.1934  0.1291
 7708TIP3    H144539   3.053   2.685  13.319 -0.3511  0.2220 -0.8051
 7708TIP3    H244540   3.129   2.748  13.204  0.7903  1.3171  0.5326
 7709TIP3   OH244541   6.190   5.550   2.863  0.6461 -0.3552 -0.2440
 7709TIP3    H144542   6.144   5.531   2.944 -2.9748 -1.9612 -2.5213
 7709TIP3    H244543   6.270   5.497   2.867  0.2733 -0.7889  1.9791
 7710TIP3   OH244544   1.410   2.723  16.608 -0.1909 -0.1168 -0.5984
 7710TIP3    H144545   1.376   2.795  16.554 -2.6445 -2.0055 -1.6399
 7710TIP3    H244546   1.495   2.755  16.638 -1.0890  3.1190 -1.2454
 7711TIP3   OH244547   1.894   1.671   0.547 -0.1884  0.0444  0.4906
 7711TIP3    H144548   1.899   1.757   0.588 -0.4603  0.0350  0.5455
 7711TIP3    H244549   1.925   1.685   0.458 -2.1471  0.6185 -0.1247
 7712TIP3   OH244550   1.247   2.887   2.652  0.0416 -0.1510 -0.2037
 7712TIP3    H144551   1.163   2.867   2.610  0.5976  0.0438 -1.3933
 7712TIP3    H244552   1.275   2.803   2.690 -0.2920 -0.3926 -0.4902
 7713TIP3   OH244553   0.535   1.774  12.972 -0.2264  0.1307 -0.3630
 7713TIP3    H144554   0.620   1.782  12.928 -0.2481 -0.0261 -0.4348
 7713TIP3    H244555   0.502   1.688  12.946 -0.4678  0.2453 -0.4442
 7714TIP3   OH244556   1.968   0.624   5.910 -0.2228  0.5037 -0.5091
 7714TIP3    H144557   1.958   0.547   5.854  3.1685  0.0892 -0.6724
 7714TIP3    H244558   2.029   0.596   5.978 -1.9388  1.9267  1.6741
 7715TIP3   OH244559   6.243   5.473   4.015  0.2445  0.0462  0.3332
 7715TIP3    H144560   6.205   5.386   4.008 -1.8224  0.8104  1.4763
 7715TIP3    H244561   6.270   5.495   3.926 -0.4484 -1.2333 -0.2020
 7716TIP3   OH244562   0.715   3.794  12.461 -0.1655  0.2815 -0.1271
 7716TIP3    H144563   0.632   3.752  12.436  0.7234 -1.1072 -0.8357
 7716TIP3    H244564   0.765   3.724  12.502 -0.0605  1.5841  2.0210
 7717TIP3   OH244565   4.261   5.158  11.597  0.5937 -0.0714  0.2738
 7717TIP3    H144566   4.356   5.148  11.586  0.4843 -0.7369 -0.0632
 7717TIP3    H244567   4.246   5.252  11.585  1.1770  0.0005  0.0693
 7718TIP3   OH244568   2.505   3.250  15.941 -0.1181 -0.3354 -0.2863
 7718TIP3    H144569   2.488   3.158  15.962  1.2897 -1.1082 -2.3381
 7718TIP3    H244570   2.419   3.285  15.918 -0.5639 -1.3438 -0.1969
 7719TIP3   OH244571   6.694   4.970  14.166 -0.0025  0.2884  0.0513
 7719TIP3    H144572   6.739   4.886  14.162  0.2797  0.3387  1.6846
 7719TIP3    H244573   6.705   4.998  14.257 -0.8152  1.6906 -0.2735
 7720TIP3   OH244574   0.078   1.241  12.674 -0.2765  0.0427  0.4933
 7720TIP3    H144575   0.054   1.185  12.600 -1.2900 -0.9748  1.5652
 7720TIP3    H244576   0.174   1.244  12.671 -0.3147  0.2205 -0.9948
 7721TIP3   OH244577   2.297   1.672   6.014  0.1096  0.6104 -0.1761
 7721TIP3    H144578   2.303   1.576   6.017 -2.3971  0.4144 -0.3880
 7721TIP3    H244579   2.353   1.702   6.085  1.3678 -0.9974 -0.4783
 7722TIP3   OH244580   3.924   4.452   2.329 -0.0738  0.3701  0.5789
 7722TIP3    H144581   3.831   4.430   2.328  0.9116 -4.2178 -0.3813
 7722TIP3    H244582   3.940   4.483   2.418 -2.7090  2.3745  0.4160
 7723TIP3   OH244583   3.866   5.961  12.637  0.3870 -0.1488  0.4827
 7723TIP3    H144584   3.819   5.943  12.555 -0.8009  1.4624  0.7920
 7723TIP3    H244585   3.801   5.944  12.705  0.1640  2.3262  0.9072
 7724TIP3   OH244586   4.468   1.185   2.496  0.5452  0.3774 -0.5457
 7724TIP3    H144587   4.434   1.142   2.418 -0.1988 -0.2090  0.0950
 7724TIP3    H244588   4.508   1.114   2.547  0.9067  0.7352 -0.3225
 7725TIP3   OH244589   0.638   4.349   4.057  0.2017  0.2786 -0.2361
 7725TIP3    H144590   0.591   4.367   4.138  0.6986  1.7797 -0.2534
 7725TIP3    H244591   0.570   4.350   3.989 -0.5682 -3.2278  0.3740
 7726TIP3   OH244592   1.641   3.210  12.208 -0.1326 -0.2071 -0.4003
 7726TIP3    H144593   1.617   3.267  12.282 -0.0652 -1.0972  0.3157
 7726TIP3    H244594   1.563   3.157  12.193 -0.4592  0.5868 -1.5635
 7727TIP3   OH244595   1.091   1.974   1.679 -0.0802  0.3857 -0.2400
 7727TIP3    H144596   1.036   2.016   1.746  0.1409  0.1152  0.1096
 7727TIP3    H244597   1.045   1.991   1.597  1.4987  3.9355 -0.4840
 7728TIP3   OH244598   6.046   0.959   1.986 -0.3647  0.1242  0.0705
 7728TIP3    H144599   6.055   0.970   2.081 -0.6489 -0.2098  0.1374
 7728TIP3    H244600   5.980   0.890   1.976  0.5705 -0.7130 -0.3554
 7729TIP3   OH244601   2.567   2.291   0.060 -0.1939  0.9184 -0.4235
 7729TIP3    H144602   2.509   2.296  -0.016 -0.1319 -0.6385 -0.5851
 7729TIP3    H244603   2.529   2.352   0.123 -0.7606  1.5518 -1.3631
 7730TIP3   OH244604   3.438   0.544  15.525 -0.4537  0.2625  0.1893
 7730TIP3    H144605   3.399   0.561  15.439 -1.6808 -0.2220  0.6388
 7730TIP3    H244606   3.509   0.483  15.508 -0.5175  0.3809 -0.5223
 7731TIP3   OH244607   3.869   0.645   4.989  0.5467 -0.6295  0.2309
 7731TIP3    H144608   3.864   0.736   4.960  0.9977 -0.1713  1.5470
 7731TIP3    H244609   3.947   0.610   4.947  2.0382  0.4603  2.0186
 7732TIP3   OH244610   1.148   2.838  10.810  0.1026  0.2431  0.0162
 7732TIP3    H144611   1.145   2.921  10.762 -0.4139  0.3825  0.2868
 7732TIP3    H244612   1.241   2.814  10.810  0.2515  0.8098 -0.0840
 7733TIP3   OH244613   2.766   5.548   3.658 -0.4654  0.4053  0.4065
 7733TIP3    H144614   2.730   5.577   3.742  0.1859  0.0275  0.8207
 7733TIP3    H244615   2.740   5.616   3.596 -1.1195  0.5861  0.8743
 7734TIP3   OH244616   0.113   0.928   3.313 -0.0547 -0.1580  0.0037
 7734TIP3    H144617   0.066   0.958   3.235 -0.3793 -2.6742 -0.7963
 7734TIP3    H244618   0.199   0.970   3.307  0.6435 -1.8711 -2.7713
 7735TIP3   OH244619   3.805   3.435  14.856 -0.0394 -0.0047 -0.2787
 7735TIP3    H144620   3.888   3.396  14.831  1.3795  2.5602  0.1819
 7735TIP3    H244621   3.780   3.489  14.781 -0.9208 -0.1841 -0.1246
 7736TIP3   OH244622   2.677   2.223  12.444  0.1370  0.1551  0.3048
 7736TIP3    H144623   2.584   2.244  12.440  0.2707  0.6767 -0.2615
 7736TIP3    H244624   2.721   2.307  12.431  0.6891  0.3022  2.9059
 7737TIP3   OH244625   0.092   5.453  13.281  0.3123  0.2845 -0.1532
 7737TIP3    H144626   0.005   5.439  13.319 -0.1661 -1.3664 -1.7758
 7737TIP3    H244627   0.075   5.473  13.189  1.6097  1.0684 -0.2414
 7738TIP3   OH244628   4.573   3.983   5.247 -0.3677 -0.7241  0.4332
 7738TIP3    H144629   4.497   3.937   5.212 -1.1891  1.7916 -1.2637
 7738TIP3    H244630   4.633   3.914   5.274 -3.7748 -2.7746  3.0556
 7739TIP3   OH244631   1.857   0.899  17.011 -0.4185 -0.4693  0.4025
 7739TIP3    H144632   1.902   0.984  17.012 -1.3238  0.0568 -1.7060
 7739TIP3    H244633   1.928   0.835  17.000  0.0521  0.1739 -0.3752
 7740TIP3   OH244634   5.274   5.906   0.504  0.2115  0.1654 -0.3707
 7740TIP3    H144635   5.181   5.895   0.489 -0.0913  1.4197  0.5408
 7740TIP3    H244636   5.314   5.829   0.463 -1.1709 -0.1419 -1.1779
 7741TIP3   OH244637   2.700   2.940   2.104  0.4634 -0.0331 -0.1787
 7741TIP3    H144638   2.758   2.962   2.031 -0.0955  0.3667 -0.5052
 7741TIP3    H244639   2.756   2.892   2.165  1.5074  1.5411  0.1465
 7742TIP3   OH244640   2.737   4.426  14.551 -0.0318 -0.1265 -0.0651
 7742TIP3    H144641   2.694   4.496  14.600 -1.2910  0.1631 -1.5555
 7742TIP3    H244642   2.793   4.383  14.615  0.7307  2.2050  0.8887
 7743TIP3   OH244643   3.660   2.667  12.883  0.5996  0.6911 -0.0759
 7743TIP3    H144644   3.649   2.751  12.838  1.2135  0.8603  0.0710
 7743TIP3    H244645   3.755   2.656  12.887  0.5750  1.0435  1.8218
 7744TIP3   OH244646   1.244   0.209   4.855  0.2361 -0.4583 -0.0753
 7744TIP3    H144647   1.259   0.289   4.803 -0.6880 -1.0230 -1.2325
 7744TIP3    H244648   1.230   0.241   4.944 -0.3687  0.6902 -0.5726
 7745TIP3   OH244649   2.548   2.171   4.453  0.0019 -0.0379  0.1362
 7745TIP3    H144650   2.542   2.245   4.513 -2.2128 -1.7967  2.1858
 7745TIP3    H244651   2.462   2.168   4.410 -0.7076 -2.6149  1.6110
 7746TIP3   OH244652   5.104   4.828  16.277  0.4668 -0.4194 -0.5264
 7746TIP3    H144653   5.164   4.855  16.347 -0.1123  0.9384 -0.5389
 7746TIP3    H244654   5.065   4.747  16.309  2.4699 -1.4494 -0.6209
 7747TIP3   OH244655   1.697   2.270  15.910 -0.3878  0.4343  0.3023
 7747TIP3    H144656   1.643   2.267  15.831 -0.1447 -0.9593  0.1849
 7747TIP3    H244657   1.657   2.206  15.969  0.9545 -0.3979  0.3240
 7748TIP3   OH244658   2.223   3.441   0.219 -0.2846 -0.3072  0.2863
 7748TIP3    H144659   2.146   3.436   0.276 -0.6185 -0.9996 -0.2195
 7748TIP3    H244660   2.213   3.367   0.159  1.3609 -1.0853  0.9466
 7749TIP3   OH244661   0.814   2.994  16.473  0.0371  0.1681  0.1368
 7749TIP3    H144662   0.808   2.923  16.537  0.0275  0.2754  0.2551
 7749TIP3    H244663   0.908   3.011  16.465  0.0759 -0.2282 -0.2978
 7750TIP3   OH244664   2.906   3.519   5.285  0.0256  0.2327  0.2415
 7750TIP3    H144665   2.988   3.568   5.286 -0.1677  0.5413  1.5544
 7750TIP3    H244666   2.926   3.438   5.331 -0.2218 -0.0115 -0.0743
 7751TIP3   OH244667   3.652   6.567   0.051  0.6849  0.0921  0.2852
 7751TIP3    H144668   3.682   6.658   0.051 -0.0156  0.3625  2.3405
 7751TIP3    H244669   3.623   6.551  -0.038  0.5354  1.9886 -0.0289
 7752TIP3   OH244670   0.908   0.470  15.441 -0.0937  0.4416  0.1547
 7752TIP3    H144671   0.973   0.471  15.512  0.2776 -0.0944 -0.1821
 7752TIP3    H244672   0.903   0.561  15.412  1.0775  0.3497 -0.3397
 7753TIP3   OH244673   3.848   3.807  15.723 -0.2525 -0.1231  0.1594
 7753TIP3    H144674   3.908   3.830  15.651 -0.2017 -1.1894 -0.1491
 7753TIP3    H244675   3.881   3.723  15.755 -1.3198 -0.4943  0.2843
 7754TIP3   OH244676   0.648   4.434  10.849 -0.2215 -0.1395 -0.0068
 7754TIP3    H144677   0.710   4.363  10.836  0.0577  0.1955 -0.5606
 7754TIP3    H244678   0.621   4.458  10.760  0.0287  0.7338  0.1485
 7755TIP3   OH244679   0.581   2.138  13.927 -0.0293  0.3135 -0.1748
 7755TIP3    H144680   0.637   2.139  14.005  1.6848 -0.3092 -1.3618
 7755TIP3    H244681   0.602   2.220  13.881 -0.1001  0.0898 -0.6124
 7756TIP3   OH244682   2.520   6.488  16.151  0.1522 -0.4613 -0.1445
 7756TIP3    H144683   2.542   6.461  16.240  1.2563 -0.5168 -0.4184
 7756TIP3    H244684   2.602   6.523  16.116  0.3011 -2.4600 -1.8785
 7757TIP3   OH244685   1.082   0.092  13.099 -0.2604  0.5145  0.0771
 7757TIP3    H144686   1.015   0.110  13.165 -0.9567  1.6388 -0.9263
 7757TIP3    H244687   1.165   0.092  13.148 -0.8786  0.1665  1.1327
 7758TIP3   OH244688   3.953   2.781   0.069 -0.2970 -0.5152 -0.6671
 7758TIP3    H144689   4.014   2.854   0.059 -0.5265 -0.3669 -0.9961
 7758TIP3    H244690   3.928   2.758  -0.021 -0.3796 -0.8675 -0.5543
 7759TIP3   OH244691   6.344   1.925   3.952 -0.2113 -0.0021  0.0479
 7759TIP3    H144692   6.402   1.976   3.897 -1.6693  1.5043 -0.1474
 7759TIP3    H244693   6.262   1.975   3.954 -1.9502 -2.6974 -0.7474
 7760TIP3   OH244694   0.063   2.409   0.244  0.1121  0.1244  0.2250
 7760TIP3    H144695   0.043   2.421   0.336  0.6250 -0.1417  0.3705
 7760TIP3    H244696   0.147   2.362   0.243  0.1351  0.1730 -0.3708
 7761TIP3   OH244697   3.867   0.780  11.411 -0.5030 -0.2463 -0.5313
 7761TIP3    H144698   3.938   0.722  11.437 -1.1491 -1.4132 -1.3052
 7761TIP3    H244699   3.897   0.821  11.330 -0.2373  0.1545 -0.2313
 7762TIP3   OH244700   6.307   6.760  11.198 -0.3291 -0.4364  1.4990
 7762TIP3    H144701   6.262   6.708  11.132  0.1970 -0.5879  1.2578
 7762TIP3    H244702   6.279   6.850  11.181  1.9833 -0.0747 -0.7579
 7763TIP3   OH244703   4.996   4.277  14.596 -0.0393  0.0734  0.3560
 7763TIP3    H144704   5.016   4.301  14.687  0.6050 -0.1663  0.2722
 7763TIP3    H244705   5.078   4.290  14.548  0.1046 -1.5083  0.1424
 7764TIP3   OH244706   2.494   4.883   1.076 -0.5796  0.0176  0.3249
 7764TIP3    H144707   2.410   4.854   1.111 -0.1815 -1.3059  0.2055
 7764TIP3    H244708   2.515   4.820   1.007  0.4490  0.4025  0.2691
 7765TIP3   OH244709   1.803   4.094  16.498 -0.0001 -0.0772 -0.6090
 7765TIP3    H144710   1.749   4.100  16.576 -0.8602 -0.6683 -1.1486
 7765TIP3    H244711   1.741   4.093  16.425  0.8316  1.7019 -1.3824
 7766TIP3   OH244712   1.440   5.993   4.089  0.2550 -0.2206 -0.7645
 7766TIP3    H144713   1.401   5.986   4.002  0.9407 -0.4964 -1.0534
 7766TIP3    H244714   1.535   5.986   4.074  0.4702  1.1565 -0.1441
 7767TIP3   OH244715   5.988   0.106   0.919  0.2553  0.3690  0.1281
 7767TIP3    H144716   6.020   0.034   0.865 -1.4221 -1.2042  1.1649
 7767TIP3    H244717   5.965   0.175   0.857  2.2730  0.2075 -0.8572
 7768TIP3   OH244718   6.072   3.449  17.123  0.3301 -0.6308  0.1151
 7768TIP3    H144719   6.099   3.532  17.163  0.2595 -0.7882  0.4981
 7768TIP3    H244720   6.036   3.398  17.196 -2.3282  0.1111 -0.6266
 7769TIP3   OH244721   5.650   1.169  13.500 -0.1675 -0.2077  0.4009
 7769TIP3    H144722   5.618   1.086  13.535  0.3429 -0.7378 -0.3789
 7769TIP3    H244723   5.641   1.161  13.405 -1.6062  1.2449  0.4001
 7770TIP3   OH244724   1.065   0.655   4.925  0.2095 -0.1963  0.0900
 7770TIP3    H144725   1.138   0.673   4.866 -0.7339  0.9880 -0.7402
 7770TIP3    H244726   1.100   0.672   5.012  0.8527  0.6597 -0.3277
 7771TIP3   OH244727   0.964   5.600  17.230 -0.4927  0.4847  0.3179
 7771TIP3    H144728   0.972   5.505  17.218 -0.4442  0.4850  0.3446
 7771TIP3    H244729   1.022   5.637  17.163 -1.0860  0.5114 -0.1805
 7772TIP3   OH244730   0.158   3.061   5.303 -0.0302 -0.3783  0.6614
 7772TIP3    H144731   0.180   3.017   5.385  1.1107  0.6367  0.9305
 7772TIP3    H244732   0.227   3.034   5.243  0.4854  0.7456  0.7340
 7773TIP3   OH244733   3.071   5.222  14.728  0.1128 -0.3551  0.4095
 7773TIP3    H144734   3.147   5.180  14.768 -0.2798 -0.4739  1.0464
 7773TIP3    H244735   3.014   5.149  14.703  0.3671 -0.2796 -0.3814
 7774TIP3   OH244736   5.211   5.262   3.857 -0.1379 -0.0684  0.1270
 7774TIP3    H144737   5.130   5.234   3.814 -0.1877 -0.2920  0.3676
 7774TIP3    H244738   5.234   5.344   3.813  0.2034 -0.6710 -0.8219
 7775TIP3   OH244739   5.114   2.485  12.473 -0.2802 -0.2905  0.3874
 7775TIP3    H144740   5.134   2.501  12.380  1.0422 -0.5958  0.6150
 7775TIP3    H244741   5.159   2.403  12.494 -1.7611 -0.9806  0.9330
 7776TIP3   OH244742   0.774   2.811   3.834  0.7276 -0.2645 -0.2302
 7776TIP3    H144743   0.727   2.816   3.917  1.0380  0.1040 -0.0736
 7776TIP3    H244744   0.775   2.718   3.812 -1.7950 -0.0841 -1.2421
 7777TIP3   OH244745   2.230   0.857  17.030  0.4680 -0.1459 -0.1096
 7777TIP3    H144746   2.183   0.849  16.946 -0.9035  2.0222  0.4238
 7777TIP3    H244747   2.292   0.929  17.016  1.5938 -1.0526  0.1472
 7778TIP3   OH244748   1.675   0.712  10.506 -0.1393 -0.2802  0.0711
 7778TIP3    H144749   1.671   0.620  10.531 -2.1859 -0.1182  0.4309
 7778TIP3    H244750   1.722   0.755  10.578 -1.6102 -0.6243  1.2751
 7779TIP3   OH244751   5.550   2.257  15.556  0.2529 -0.2551  0.0083
 7779TIP3    H144752   5.593   2.339  15.530 -0.9838  1.0592  1.9262
 7779TIP3    H244753   5.485   2.241  15.487 -0.3384  1.0792  0.2230
 7780TIP3   OH244754   0.906   1.780   0.968  0.7615 -0.1356 -0.8054
 7780TIP3    H144755   0.975   1.731   0.923 -0.2186 -1.5738 -0.7630
 7780TIP3    H244756   0.854   1.713   1.013 -0.2066  1.0047 -0.1968
 7781TIP3   OH244757   2.956   5.736  15.201  0.6417  0.1754 -0.1973
 7781TIP3    H144758   2.894   5.808  15.198  1.2722  0.7315  0.0577
 7781TIP3    H244759   2.958   5.703  15.111  1.0841  1.1004 -0.5255
 7782TIP3   OH244760   0.048   6.187   3.024  0.0743  0.2939  0.2214
 7782TIP3    H144761   0.028   6.243   2.950  0.4816  0.8171  0.5061
 7782TIP3    H244762  -0.024   6.203   3.086  0.4035  0.8063  0.4734
 7783TIP3   OH244763   4.348   3.813  16.375 -0.0436 -0.4677 -0.1390
 7783TIP3    H144764   4.300   3.884  16.417 -0.0028 -0.6406  0.1999
 7783TIP3    H244765   4.281   3.749  16.350 -0.1034 -0.2087 -0.6426
 7784TIP3   OH244766   0.112   5.034  11.795 -0.4415  0.4057 -0.1583
 7784TIP3    H144767   0.039   4.978  11.821  0.1557 -0.0387  0.5628
 7784TIP3    H244768   0.190   4.985  11.819  0.0945  1.0518 -0.5690
 7785TIP3   OH244769   6.268   1.713  15.841 -0.1856 -0.3041  0.1845
 7785TIP3    H144770   6.293   1.622  15.852  0.1725 -0.4570 -1.7572
 7785TIP3    H244771   6.292   1.755  15.924  1.6792 -1.5066  0.2782
 7786TIP3   OH244772   5.439   5.697  13.436  0.0128  0.1375  0.0342
 7786TIP3    H144773   5.399   5.696  13.523  1.1505  1.3078  0.5778
 7786TIP3    H244774   5.383   5.640  13.383 -0.3188 -1.1027  1.6895
 7787TIP3   OH244775   6.520   0.459   6.336  0.8836 -0.6896  0.3023
 7787TIP3    H144776   6.570   0.454   6.255 -0.2039  0.3527 -0.4516
 7787TIP3    H244777   6.586   0.468   6.405  1.7302  2.2001 -0.8079
 7788TIP3   OH244778   2.593   3.720   5.989  0.0215 -0.1165  0.4166
 7788TIP3    H144779   2.687   3.727   5.975  0.4627 -1.6506  2.5122
 7788TIP3    H244780   2.571   3.631   5.963 -0.4602 -0.4893  2.0886
 7789TIP3   OH244781   4.620   3.882   2.209 -0.0599  0.2596  0.2389
 7789TIP3    H144782   4.595   3.973   2.196 -1.0028  0.3595  2.5684
 7789TIP3    H244783   4.593   3.838   2.128  1.0242  2.1363 -1.1771
 7790TIP3   OH244784   2.050   6.430  10.566  0.0908 -0.0107 -0.0751
 7790TIP3    H144785   2.142   6.406  10.572 -0.0622 -0.0209  2.8533
 7790TIP3    H244786   2.050   6.523  10.545  0.7581  0.0008 -0.0284
 7791TIP3   OH244787   5.456   3.932   0.321  0.2726 -0.0428 -0.7482
 7791TIP3    H144788   5.538   3.895   0.288  1.1639 -0.0324  1.3933
 7791TIP3    H244789   5.452   4.019   0.281  1.2961 -0.0463 -0.8865
 7792TIP3   OH244790   1.771   5.495   5.313 -0.6971 -0.0859  0.4056
 7792TIP3    H144791   1.782   5.582   5.351 -3.2864  0.5696 -0.2447
 7792TIP3    H244792   1.741   5.511   5.224  0.8132 -1.6569 -0.4224
 7793TIP3   OH244793   4.823   4.888  16.304  0.4260  0.7598  0.1552
 7793TIP3    H144794   4.860   4.959  16.357  2.0035 -0.0513  0.1733
 7793TIP3    H244795   4.868   4.809  16.334 -0.8940 -0.1839 -0.2634
 7794TIP3   OH244796   3.664   6.122  11.110 -0.2066  0.1734 -0.2600
 7794TIP3    H144797   3.654   6.071  11.190 -1.0149 -0.3623 -0.6920
 7794TIP3    H244798   3.681   6.057  11.042 -1.3910  0.4484 -0.8417
 7795TIP3   OH244799   5.152   1.508   1.587 -0.0522  0.3407 -0.5207
 7795TIP3    H144800   5.217   1.450   1.550 -0.5717  0.2479 -1.2991
 7795TIP3    H244801   5.076   1.452   1.603  0.0875  0.4212  0.4917
 7796TIP3   OH244802   1.660   6.695  15.503 -0.2432  0.6885 -0.3440
 7796TIP3    H144803   1.728   6.762  15.498 -0.4602  0.9797  0.4675
 7796TIP3    H244804   1.595   6.731  15.565 -0.7110  0.0482 -0.4550
 7797TIP3   OH244805   2.203   5.157  12.882 -0.4115  0.1682  0.0522
 7797TIP3    H144806   2.147   5.234  12.884 -1.3250 -0.4949  0.2897
 7797TIP3    H244807   2.204   5.126  12.973  0.5604  0.3280  0.1054
 7798TIP3   OH244808   3.416   5.079   1.007  0.6769 -0.4112  0.4396
 7798TIP3    H144809   3.452   5.043   0.927 -1.3979  0.0913 -0.7650
 7798TIP3    H244810   3.426   5.174   0.998  1.1973 -0.3943  1.1508
 7799TIP3   OH244811   6.298   4.931   0.003  0.2400  0.7641 -0.5143
 7799TIP3    H144812   6.307   4.857  -0.057  1.0729  0.0428  0.5028
 7799TIP3    H244813   6.264   5.002  -0.053  1.1935  0.1661 -1.8884
 7800TIP3   OH244814   4.148   3.933   3.319  0.4977  0.2435  0.1550
 7800TIP3    H144815   4.215   3.984   3.274  1.5505  0.4706  1.9375
 7800TIP3    H244816   4.067   3.982   3.304  0.5812 -0.3803 -2.5692
 7801TIP3   OH244817   2.279   2.991  15.356 -0.5320  0.0735 -0.5468
 7801TIP3    H144818   2.240   2.907  15.378 -0.4000 -0.2286 -1.4191
 7801TIP3    H244819   2.367   2.969  15.324 -0.8543  0.4429 -1.7178
 7802TIP3   OH244820   5.188   2.057  15.661 -0.4655 -0.0146 -0.2132
 7802TIP3    H144821   5.280   2.058  15.688  0.0415 -1.6270 -1.7116
 7802TIP3    H244822   5.142   2.017  15.735  0.0946  0.4299  0.3857
 7803TIP3   OH244823   0.441   2.729   1.043  0.5184 -0.0766  0.5397
 7803TIP3    H144824   0.373   2.662   1.037  0.2361  0.1026  1.6977
 7803TIP3    H244825   0.516   2.684   1.082  0.5811  0.0918  0.6136
 7804TIP3   OH244826   5.282   3.845  12.292 -0.2846  0.1646  0.2857
 7804TIP3    H144827   5.191   3.863  12.315 -0.5953 -1.8522  0.8028
 7804TIP3    H244828   5.299   3.899  12.215 -1.4206  1.7451  1.1090
 7805TIP3   OH244829   5.160   2.785  15.424 -0.3530 -0.3575 -0.1866
 7805TIP3    H144830   5.092   2.812  15.362 -0.1959  0.2003 -0.1242
 7805TIP3    H244831   5.123   2.709  15.468 -0.0619 -1.3535 -1.6414
 7806TIP3   OH244832   5.191   2.773   6.071 -0.2217 -0.3938  0.7634
 7806TIP3    H144833   5.250   2.849   6.071 -0.5238 -0.1427 -0.7263
 7806TIP3    H244834   5.225   2.718   6.001 -0.0658 -1.6077  1.7794
 7807TIP3   OH244835   6.575   5.775   2.899  0.6315  0.3890 -0.1661
 7807TIP3    H144836   6.565   5.687   2.862  2.6133 -0.8183  1.9640
 7807TIP3    H244837   6.632   5.821   2.837 -0.6274  0.2914 -1.4272
 7808TIP3   OH244838   1.036   4.065  13.465 -0.3544  0.0345 -0.4887
 7808TIP3    H144839   1.096   3.995  13.439  0.2085  1.4430 -3.2057
 7808TIP3    H244840   0.958   4.052  13.411 -1.6057 -0.4200  1.3772
 7809TIP3   OH244841   0.467   3.718   2.861 -0.4474  0.4348 -0.2896
 7809TIP3    H144842   0.540   3.727   2.800  0.1741 -0.1362  0.3640
 7809TIP3    H244843   0.468   3.799   2.912  0.4346 -0.0638  0.4839
 7810TIP3   OH244844   4.629   4.790  13.765 -0.1656  0.1044 -0.2407
 7810TIP3    H144845   4.537   4.768  13.783 -0.7862  2.4361 -0.4545
 7810TIP3    H244846   4.665   4.711  13.725 -1.1255 -2.0887  3.0112
 7811TIP3   OH244847   4.037   3.948   2.986  0.1850 -0.2594 -0.2142
 7811TIP3    H144848   4.018   4.011   2.916 -1.3526 -1.5333 -0.9870
 7811TIP3    H244849   4.051   4.002   3.064 -0.2037  1.0812 -1.0590
 7812TIP3   OH244850   6.286   0.393  15.816  0.0151 -0.1097 -0.4145
 7812TIP3    H144851   6.281   0.327  15.885  1.0465 -0.6380 -0.8385
 7812TIP3    H244852   6.355   0.452  15.846  1.6634 -1.2983 -1.8021
 7813TIP3   OH244853   2.933   2.537  14.213  0.1931 -0.6444 -0.2730
 7813TIP3    H144854   2.946   2.488  14.294 -0.9800  1.9767  1.5656
 7813TIP3    H244855   2.847   2.509  14.181  0.8329 -1.9814 -0.8537
 7814TIP3   OH244856   0.200   1.145   4.584  0.2553 -0.2707  0.1146
 7814TIP3    H144857   0.128   1.113   4.530  0.0756 -0.3655  0.4091
 7814TIP3    H244858   0.174   1.123   4.674 -0.1630  1.2389  0.3796
 7815TIP3   OH244859   4.963   1.506  14.754 -0.0814 -0.2893  0.2328
 7815TIP3    H144860   4.923   1.477  14.835 -1.3134  0.3075 -0.1556
 7815TIP3    H244861   4.934   1.597  14.744  2.4933  0.6358  0.6628
 7816TIP3   OH244862   2.457   3.328   4.865  0.0221  0.6360 -0.3707
 7816TIP3    H144863   2.443   3.422   4.854  0.2443  0.2942 -4.5123
 7816TIP3    H244864   2.550   3.320   4.886  0.4607  1.2840 -1.9625
 7817TIP3   OH244865   1.168   1.842  11.376  0.3468 -0.0280 -0.3522
 7817TIP3    H144866   1.113   1.773  11.415 -2.3218  2.0220 -0.3547
 7817TIP3    H244867   1.122   1.867  11.296  1.8882  0.9749 -0.9429
 7818TIP3   OH244868   4.364   3.805  15.066  0.2070 -0.4017 -0.3381
 7818TIP3    H144869   4.293   3.853  15.025  0.4076  0.6986  0.5951
 7818TIP3    H244870   4.442   3.857  15.048  0.5812 -0.9116 -0.2064
 7819TIP3   OH244871   1.326   1.190   1.774 -0.1062 -0.3211 -0.1677
 7819TIP3    H144872   1.287   1.147   1.697  0.7810 -0.6765 -0.4256
 7819TIP3    H244873   1.306   1.131   1.846 -0.4755 -0.2558 -0.2148
 7820TIP3   OH244874   4.080   6.452  12.372 -0.5420  0.1644  0.4084
 7820TIP3    H144875   4.082   6.496  12.287  1.2239 -0.1756  0.2610
 7820TIP3    H244876   4.023   6.376  12.358 -0.6637  0.3913 -0.3340
 7821TIP3   OH244877   2.052   6.072   3.858 -0.1503 -0.2370 -0.3014
 7821TIP3    H144878   2.116   6.065   3.788  0.4698 -1.5849  0.3798
 7821TIP3    H244879   2.014   6.159   3.848 -0.6421 -0.6891 -2.8014
 7822TIP3   OH244880   2.771   1.676   1.528  0.4157  0.5635 -0.1722
 7822TIP3    H144881   2.854   1.673   1.481 -0.6262  0.2781 -2.0773
 7822TIP3    H244882   2.712   1.622   1.475 -1.3119  1.8171  0.4321
 7823TIP3   OH244883   0.100   2.302  13.066  0.4698  0.1421 -0.2876
 7823TIP3    H144884   0.107   2.372  13.131  1.9465 -0.7638  0.5483
 7823TIP3    H244885   0.188   2.295  13.029  0.3443 -1.3243 -0.3189
 7824TIP3   OH244886   4.633   2.339  12.242  0.1062 -0.3298  0.1907
 7824TIP3    H144887   4.726   2.339  12.265 -0.0485 -1.0116  0.8587
 7824TIP3    H244888   4.619   2.422  12.197  0.7402  0.4068  1.3240
 7825TIP3   OH244889   1.837   1.638  11.428  0.1385 -0.0041  0.0246
 7825TIP3    H144890   1.778   1.573  11.468 -0.3316  1.0025  0.9851
 7825TIP3    H244891   1.782   1.685  11.366  0.8026 -1.3847 -1.6630
 7826TIP3   OH244892   3.999   1.574   3.543  0.3810 -0.4161  0.0164
 7826TIP3    H144893   3.991   1.663   3.510 -0.6774  0.3796  2.3407
 7826TIP3    H244894   4.076   1.575   3.600 -0.5697 -0.5635  1.3242
 7827TIP3   OH244895   5.098   3.004   2.003  0.1321 -0.0886  0.5192
 7827TIP3    H144896   5.010   2.976   1.981  0.6816 -0.1868 -1.6114
 7827TIP3    H244897   5.142   2.925   2.035  0.2488 -0.6334 -0.9638
 7828TIP3   OH244898   5.108   2.294   3.844  0.3136 -0.2115  0.7160
 7828TIP3    H144899   5.155   2.290   3.927  0.7509  0.3178  0.4945
 7828TIP3    H244900   5.025   2.337   3.865  0.6698  0.4487  0.7628
 7829TIP3   OH244901   4.639   4.598   3.530 -0.1855 -0.1128  0.9214
 7829TIP3    H144902   4.626   4.679   3.482 -1.0681 -0.8399 -0.1090
 7829TIP3    H244903   4.690   4.623   3.607  2.1317  0.8874 -0.9046
 7830TIP3   OH244904   3.522   4.359   4.927  0.5242 -0.7181  0.0946
 7830TIP3    H144905   3.462   4.287   4.910 -0.6055  0.4213 -0.8627
 7830TIP3    H244906   3.517   4.372   5.022  0.8201 -1.9407  0.2933
 7831TIP3   OH244907   6.718   4.874   0.998 -0.1649  0.1277 -0.4572
 7831TIP3    H144908   6.665   4.840   0.925  1.3715 -0.8341 -1.1418
 7831TIP3    H244909   6.689   4.965   1.008 -0.7145  0.1346 -1.9848
 7832TIP3   OH244910   0.354   5.182   2.190 -0.2937  0.0055 -0.3813
 7832TIP3    H144911   0.284   5.246   2.204  0.5451  1.0516 -0.8629
 7832TIP3    H244912   0.334   5.112   2.251 -1.9215  0.1511 -0.7233
 7833TIP3   OH244913   2.169   2.496   3.998  0.1811  0.9802 -0.4180
 7833TIP3    H144914   2.168   2.526   4.089  0.9069 -0.2396  0.0089
 7833TIP3    H244915   2.114   2.417   3.999  0.5330  0.7294 -0.9452
 7834TIP3   OH244916   4.138   0.330   2.170 -0.5100 -0.3398  0.2855
 7834TIP3    H144917   4.188   0.316   2.089 -2.5120 -0.2925 -1.0053
 7834TIP3    H244918   4.074   0.259   2.170 -1.2805  0.3565  1.2419
 7835TIP3   OH244919   1.018   4.869  14.879  0.3600 -0.0595  0.4100
 7835TIP3    H144920   0.974   4.785  14.868 -0.4476  0.3320  0.6310
 7835TIP3    H244921   1.003   4.915  14.797 -1.1607  0.7719  1.1343
 7836TIP3   OH244922   4.500   4.265   1.317  0.0618 -0.0903  0.1271
 7836TIP3    H144923   4.471   4.268   1.408 -0.8169 -0.2454 -0.1413
 7836TIP3    H244924   4.422   4.285   1.266  0.7642  0.9396 -0.5671
 7837TIP3   OH244925   0.351   1.974   3.833  0.2665  0.0515  0.3067
 7837TIP3    H144926   0.269   2.023   3.841  0.5055  0.8714 -1.9372
 7837TIP3    H244927   0.393   1.983   3.919 -1.2512  0.9482  0.9678
 7838TIP3   OH244928   4.444   5.745   2.810  0.0089  0.2460  0.2783
 7838TIP3    H144929   4.395   5.712   2.886  0.7982  2.4733  1.8017
 7838TIP3    H244930   4.379   5.795   2.761  0.3196  1.8412  1.4434
 7839TIP3   OH244931   3.691   4.770  15.727 -0.2762 -0.1266 -0.4739
 7839TIP3    H144932   3.712   4.685  15.687 -2.4035 -0.7878 -0.2792
 7839TIP3    H244933   3.607   4.755  15.771  0.0770  1.6761  0.8677
 7840TIP3   OH244934   2.027   4.418  13.910  0.3263  0.0087 -0.6162
 7840TIP3    H144935   2.078   4.433  13.831  1.3595  1.3290  0.2910
 7840TIP3    H244936   1.940   4.392  13.877  0.9524 -0.2010 -2.1623
 7841TIP3   OH244937   5.357   0.833  14.011  0.1235 -0.2454 -0.5605
 7841TIP3    H144938   5.446   0.804  13.991  0.1476  0.1723 -1.0840
 7841TIP3    H244939   5.310   0.825  13.927 -0.4376 -0.8389 -0.1980
 7842TIP3   OH244940   1.178   5.901  15.705  0.1128  0.2500 -0.2221
 7842TIP3    H144941   1.268   5.932  15.707 -0.2764  1.6395 -2.4606
 7842TIP3    H244942   1.178   5.823  15.760  3.1022 -0.8923 -1.7365
 7843TIP3   OH244943   2.340   0.787   3.305  0.3572 -0.5076 -0.1173
 7843TIP3    H144944   2.354   0.756   3.395  0.5760 -1.1823 -0.3808
 7843TIP3    H244945   2.286   0.865   3.315 -0.2363 -0.9893  0.5620
 7844TIP3   OH244946   6.260   2.550   3.904  0.5307  0.1866  0.3375
 7844TIP3    H144947   6.220   2.630   3.869 -1.0324 -1.0948 -0.8561
 7844TIP3    H244948   6.352   2.557   3.879  0.7844  2.4126  1.7236
 7845TIP3   OH244949   6.722   1.777   5.341 -0.3126  0.7160  0.5543
 7845TIP3    H144950   6.730   1.708   5.274 -0.3670 -0.0193  1.2972
 7845TIP3    H244951   6.627   1.783   5.356 -0.2382  0.1953  1.2635
 7846TIP3   OH244952   2.977   3.338   6.073 -0.1609  0.0041 -0.0236
 7846TIP3    H144953   3.061   3.386   6.069 -0.4280  0.4303 -0.6199
 7846TIP3    H244954   2.992   3.269   6.137  0.2778  0.8133  0.7599
 7847TIP3   OH244955   4.628   4.807   3.143  0.3346  0.0523 -0.1397
 7847TIP3    H144956   4.609   4.851   3.060 -0.4895  2.7740  1.4126
 7847TIP3    H244957   4.553   4.751   3.159  0.0464  0.2558 -0.7738
 7848TIP3   OH244958   0.871   0.421   4.402  0.2823 -0.1582  0.4762
 7848TIP3    H144959   0.798   0.416   4.339  0.9820  0.6806 -0.4090
 7848TIP3    H244960   0.847   0.359   4.470 -1.0395 -0.2531 -0.0544
 7849TIP3   OH244961   3.182   6.251   0.213 -0.7214  0.0057 -0.0807
 7849TIP3    H144962   3.136   6.170   0.237  1.2116 -1.8637 -2.4153
 7849TIP3    H244963   3.123   6.294   0.151 -1.1078 -0.3553  0.0351
 7850TIP3   OH244964   6.669   0.600  16.515  0.2104  0.2252  0.3626
 7850TIP3    H144965   6.699   0.552  16.592  0.3689  0.0792  0.2074
 7850TIP3    H244966   6.748   0.613  16.462 -0.1344 -0.8836 -0.4458
 7851TIP3   OH244967   2.457   2.960  14.983  0.1845 -0.2949 -0.1033
 7851TIP3    H144968   2.483   2.969  15.075 -0.0330 -1.1004  0.0407
 7851TIP3    H244969   2.421   3.045  14.959  1.7664  0.4358  0.0762
 7852TIP3   OH244970   6.630   6.570  15.955  0.8968  0.3809 -1.4241
 7852TIP3    H144971   6.592   6.588  15.869 -1.0584 -0.1182 -0.7018
 7852TIP3    H244972   6.610   6.478  15.971 -0.8000  1.0360  0.5194
 7853TIP3   OH244973   1.893   0.659  14.148 -0.5347 -0.2046 -0.6626
 7853TIP3    H144974   1.863   0.635  14.236 -0.2030 -0.3350 -0.5852
 7853TIP3    H244975   1.883   0.579  14.097  1.2624 -0.7290 -0.2296
 7854TIP3   OH244976   3.679   0.946  14.076  0.1044  0.0022  0.0212
 7854TIP3    H144977   3.729   0.908  14.148 -0.4042  0.8294  0.8355
 7854TIP3    H244978   3.739   1.009  14.036 -0.1898  0.8121  0.8393
 7855TIP3   OH244979   4.390   5.187  10.602 -0.0017  0.3916 -0.0609
 7855TIP3    H144980   4.405   5.185  10.696  0.9997 -1.5297 -0.2209
 7855TIP3    H244981   4.477   5.184  10.564 -0.4361 -0.6022 -1.0240
 7856TIP3   OH244982   0.760   0.627  16.580 -0.0227 -0.1117 -0.0636
 7856TIP3    H144983   0.731   0.711  16.616 -0.9862 -0.1931 -0.6305
 7856TIP3    H244984   0.744   0.635  16.486  0.7836 -0.5742 -0.2435
 7857TIP3   OH244985   3.851   2.335   3.393 -0.4225  0.4405 -0.2351
 7857TIP3    H144986   3.838   2.418   3.438 -0.5522  0.3532 -0.1149
 7857TIP3    H244987   3.929   2.350   3.339 -0.7851  0.8284 -0.6617
 7858TIP3   OH244988   3.001   2.209  16.557  0.1466  0.8763  0.2212
 7858TIP3    H144989   2.929   2.250  16.509 -0.0662  1.9324  1.4225
 7858TIP3    H244990   3.058   2.281  16.583  2.2985 -0.0536 -1.7290
 7859TIP3   OH244991   6.307   2.210  15.835  0.1697 -0.4385 -0.1983
 7859TIP3    H144992   6.266   2.169  15.759  0.4118  0.9048 -1.0811
 7859TIP3    H244993   6.271   2.299  15.837  0.5594 -0.2989  0.9464
 7860TIP3   OH244994   0.306   0.934   5.995  0.4831 -0.0403  0.6894
 7860TIP3    H144995   0.250   0.930   6.072 -0.5609  3.0880  0.1809
 7860TIP3    H244996   0.390   0.896   6.023 -1.3369 -3.3203  1.9136
 7861TIP3   OH244997   1.396   4.408   3.608 -0.0255  0.4325 -0.2878
 7861TIP3    H144998   1.322   4.368   3.653 -1.5461  1.4983 -1.7823
 7861TIP3    H244999   1.450   4.333   3.581 -1.0838 -0.4159 -0.0963
 7862TIP3   OH245000   4.987   5.008   5.644  0.0822 -0.2201  0.0667
 7862TIP3    H145001   4.919   5.075   5.647  0.0098 -0.1774 -1.9492
 7862TIP3    H245002   4.996   4.979   5.735 -1.5224  0.8754  0.5954
 7863TIP3   OH245003   4.026   4.338   1.620  0.4798 -0.2324  0.3288
 7863TIP3    H145004   4.044   4.415   1.565  1.6652 -1.5507 -1.1888
 7863TIP3    H245005   3.969   4.283   1.566 -1.6544  0.2692  2.0218
 7864TIP3   OH245006   2.530   6.530  15.004 -0.1014 -0.1632 -0.2861
 7864TIP3    H145007   2.494   6.490  15.083  1.5767  1.0295  1.1270
 7864TIP3    H245008   2.463   6.592  14.975  0.3583  1.2805  1.7033
 7865TIP3   OH245009   4.630   3.366  15.162  0.4619 -0.0389  0.0488
 7865TIP3    H145010   4.671   3.449  15.185 -1.0166  0.8531 -0.4949
 7865TIP3    H245011   4.568   3.349  15.234 -0.0598 -0.1006 -0.4145
 7866TIP3   OH245012   1.056   0.653  14.236 -0.4064 -0.2057  0.1787
 7866TIP3    H145013   1.122   0.611  14.291 -0.1726 -1.3738 -0.9770
 7866TIP3    H245014   0.994   0.584  14.214 -1.0333  0.4716 -0.2241
 7867TIP3   OH245015   6.512   4.072  12.172 -0.0223  0.3264  0.1419
 7867TIP3    H145016   6.602   4.045  12.151 -0.3624  0.2442 -1.2527
 7867TIP3    H245017   6.460   3.993  12.162 -0.3839  0.5689  0.1085
 7868TIP3   OH245018   2.699   1.548  12.003  0.4741 -0.1647  0.1972
 7868TIP3    H145019   2.635   1.482  11.976  0.8970 -0.3442 -0.3526
 7868TIP3    H245020   2.681   1.623  11.947  0.9851 -0.3444 -0.2148
 7869TIP3   OH245021   2.009   0.742  14.830  0.0427 -0.0372 -0.3800
 7869TIP3    H145022   1.947   0.676  14.800  1.5399 -1.0751 -1.2528
 7869TIP3    H245023   1.985   0.821  14.782 -0.5519 -0.4446 -0.7583
 7870TIP3   OH245024   3.035   2.173   5.570 -0.5863  0.0294  0.1350
 7870TIP3    H145025   2.945   2.148   5.551 -1.1964  0.7976  1.8603
 7870TIP3    H245026   3.042   2.263   5.538  0.1475 -0.6730 -1.7071
 7871TIP3   OH245027   4.010   1.347   6.309 -0.0807 -0.0186  0.0604
 7871TIP3    H145028   3.934   1.346   6.367  0.3687  0.2946  0.6608
 7871TIP3    H245029   4.085   1.356   6.368  0.2781  1.9593 -0.6882
 7872TIP3   OH245030   4.771   5.480   5.907 -0.2187  0.1889  0.3708
 7872TIP3    H145031   4.686   5.455   5.942  0.3148 -0.8786  0.9262
 7872TIP3    H245032   4.755   5.563   5.862 -2.1140 -1.2600 -1.7424
 7873TIP3   OH245033   2.757   1.245  16.997  0.4615  0.2953  0.4094
 7873TIP3    H145034   2.802   1.328  16.979  2.0789  0.1241  3.3172
 7873TIP3    H245035   2.824   1.178  16.982 -0.0649 -0.2852  0.6392
 7874TIP3   OH245036   4.896   3.658  10.856  0.5462 -0.2571 -0.5464
 7874TIP3    H145037   4.916   3.678  10.947  0.5225 -0.3665 -0.5184
 7874TIP3    H245038   4.937   3.573  10.839  0.3621 -0.3435 -0.5720
 7875TIP3   OH245039   5.121   4.849  11.825  0.0682 -0.6810  0.1963
 7875TIP3    H145040   5.148   4.768  11.867 -1.3191 -1.4877 -0.4078
 7875TIP3    H245041   5.035   4.869  11.863  0.3878  0.4896  0.3275
 7876TIP3   OH245042   5.787   3.831   4.458 -0.2048 -0.6801  0.0140
 7876TIP3    H145043   5.740   3.749   4.474 -0.3226 -0.5524  0.3422
 7876TIP3    H245044   5.858   3.831   4.523 -0.5662 -0.2451  0.4135
 7877TIP3   OH245045   4.006   6.567   3.383  0.5373 -0.1538 -0.2722
 7877TIP3    H145046   3.991   6.624   3.459  1.8962  0.3396 -0.3628
 7877TIP3    H245047   3.976   6.619   3.308 -0.9895 -0.7167 -0.0669
 7878TIP3   OH245048   3.485   0.754   0.285  0.2562  0.5404  0.0478
 7878TIP3    H145049   3.529   0.813   0.346  1.7684  0.1969 -0.6793
 7878TIP3    H245050   3.497   0.796   0.199 -1.1134  0.5970 -0.1243
 7879TIP3   OH245051   1.007   2.023   0.072  0.7202  0.0727  0.3292
 7879TIP3    H145052   0.967   2.069  -0.002 -1.2725 -1.0673  0.6415
 7879TIP3    H245053   0.984   2.075   0.148  0.9945  0.1364  0.3690
 7880TIP3   OH245054   3.997   3.883  15.171  0.3552  0.1367 -0.0536
 7880TIP3    H145055   4.051   3.927  15.106  0.9659  0.9145  0.9479
 7880TIP3    H245056   4.025   3.792  15.168 -0.4774 -0.0722 -1.7153
 7881TIP3   OH245057   5.633   0.934   2.750 -0.1329 -0.4841 -0.0270
 7881TIP3    H145058   5.557   0.979   2.787  0.4842  1.7211 -1.3532
 7881TIP3    H245059   5.655   0.867   2.815 -1.8536  0.2931  1.4086
 7882TIP3   OH245060   4.537   1.170  16.540 -0.2887  0.6132  0.0125
 7882TIP3    H145061   4.567   1.135  16.456 -1.4555 -0.2705 -0.0393
 7882TIP3    H245062   4.513   1.261  16.521  0.3011  0.6854 -0.4053
 7883TIP3   OH245063   2.776   0.198  10.525  0.0785  0.6320  0.4891
 7883TIP3    H145064   2.708   0.191  10.458  0.3466 -0.4747  0.3255
 7883TIP3    H245065   2.735   0.162  10.604  0.0162  1.2442  0.7413
 7884TIP3   OH245066   4.970   4.459   2.286 -0.1095  0.0663 -0.2107
 7884TIP3    H145067   5.012   4.542   2.311 -1.9242  0.0622  3.1145
 7884TIP3    H245068   5.018   4.392   2.334 -1.2565 -0.3687  0.3419
 7885TIP3   OH245069   0.573   1.999  11.262 -0.1009 -0.3181 -0.1356
 7885TIP3    H145070   0.528   1.915  11.252 -0.7994 -0.0150  0.4071
 7885TIP3    H245071   0.518   2.062  11.215  2.0670 -0.6841 -3.2650
 7886TIP3   OH245072   3.382   4.232  15.055  0.0714  0.0978 -0.2492
 7886TIP3    H145073   3.435   4.296  15.007  0.3175 -0.6213 -0.9380
 7886TIP3    H245074   3.303   4.222  15.003  0.3250 -0.6612 -0.5010
 7887TIP3   OH245075   6.685   1.633  16.905  0.5054 -0.3612  0.2004
 7887TIP3    H145076   6.641   1.548  16.897  2.1106 -1.0606 -1.3070
 7887TIP3    H245077   6.764   1.625  16.852  1.7416  1.3750  1.7084
 7888TIP3   OH245078   1.559   6.476   2.110  0.1353 -0.2805 -0.1839
 7888TIP3    H145079   1.511   6.514   2.037 -1.5641 -0.3165  0.8910
 7888TIP3    H245080   1.543   6.382   2.103 -0.3089 -0.2517  0.4193
 7889TIP3   OH245081   4.851   1.810  11.053  1.1316  0.0283 -0.0937
 7889TIP3    H145082   4.771   1.764  11.029  0.8342  0.3099  0.3395
 7889TIP3    H245083   4.876   1.858  10.974  0.4075  0.5971  0.0147
 7890TIP3   OH245084   5.189   0.743   1.560  0.2011 -0.3191  0.0826
 7890TIP3    H145085   5.144   0.695   1.490  0.9065 -1.2130  0.2324
 7890TIP3    H245086   5.119   0.766   1.622 -0.0408 -1.8944  0.4186
 7891TIP3   OH245087   0.602   5.267  10.375  0.0529 -0.1390  0.7567
 7891TIP3    H145088   0.667   5.267  10.445  1.6967  0.2962 -0.7336
 7891TIP3    H245089   0.603   5.356  10.340 -0.7477 -0.3462  0.1704
 7892TIP3   OH245090   6.665   2.913   3.843  0.3973 -1.0807  0.1500
 7892TIP3    H145091   6.632   2.944   3.758 -0.1338 -0.8771  0.4314
 7892TIP3    H245092   6.656   2.988   3.901  0.1288 -1.4274  0.5583
 7893TIP3   OH245093   2.973   2.871   3.893  0.0603  0.3197 -0.6764
 7893TIP3    H145094   3.043   2.884   3.956 -0.1923  1.4887 -0.6387
 7893TIP3    H245095   3.007   2.909   3.811 -1.3825  2.9416 -0.1099
 7894TIP3   OH245096   5.407   5.729  16.888  0.5813  0.0275  0.0423
 7894TIP3    H145097   5.351   5.804  16.908  1.5488  0.5891  0.6702
 7894TIP3    H245098   5.419   5.685  16.972  1.6961  0.3397  0.0446
 7895TIP3   OH245099   4.418   3.062  16.259 -0.5466 -0.4721  0.0931
 7895TIP3    H145100   4.394   3.122  16.330 -0.3769  0.6995 -0.8428
 7895TIP3    H245101   4.336   3.044  16.214 -0.2625  0.7291 -0.9213
 7896TIP3   OH245102   0.129   5.535   0.082 -0.4269 -0.4787  0.3205
 7896TIP3    H145103   0.117   5.527  -0.013 -0.0619  2.0686  0.0320
 7896TIP3    H245104   0.048   5.575   0.113 -0.1739 -0.4819  0.9831
 7897TIP3   OH245105   6.769   4.201   1.327 -0.0537 -0.0581 -0.0684
 7897TIP3    H145106   6.773   4.107   1.343 -1.4068  0.0157  0.7679
 7897TIP3    H245107   6.827   4.240   1.393  0.1547 -0.2719 -0.1262
 7898TIP3   OH245108   0.734   1.783   4.333 -0.5689 -0.6669 -0.1215
 7898TIP3    H145109   0.675   1.841   4.285 -1.1934 -2.8466 -2.1024
 7898TIP3    H245110   0.820   1.797   4.293 -0.1804  0.7710  1.1695
 7899TIP3   OH245111   5.204   5.331   0.225 -0.4447 -0.2870  0.3158
 7899TIP3    H145112   5.157   5.414   0.233 -1.0042 -0.5489 -0.1798
 7899TIP3    H245113   5.147   5.276   0.171  0.0082 -0.9278  0.4738
 7900TIP3   OH245114   5.201   2.291  16.235 -0.7491 -0.8219  0.2582
 7900TIP3    H145115   5.122   2.243  16.262 -0.3512 -0.9331  1.2710
 7900TIP3    H245116   5.193   2.376  16.279  0.1230 -1.1650  1.1097
 7901TIP3   OH245117   5.367   0.525   5.166 -0.2706 -0.3712  0.0954
 7901TIP3    H145118   5.381   0.490   5.078 -1.5775  1.3304 -0.8213
 7901TIP3    H245119   5.435   0.593   5.176  1.4196 -2.1961  1.3578
 7902TIP3   OH245120   1.057   4.398  16.514 -0.4021 -0.9271  0.1252
 7902TIP3    H145121   1.000   4.447  16.573 -0.5367 -0.5799 -0.2875
 7902TIP3    H245122   0.999   4.341  16.465 -0.2166 -1.6666  0.7647
 7903TIP3   OH245123   1.022   1.534   4.355 -0.5100  0.3778  0.1434
 7903TIP3    H145124   1.107   1.565   4.386 -0.7027  0.8967  0.1421
 7903TIP3    H245125   0.968   1.529   4.434 -0.3728 -0.2980  0.1990
 7904TIP3   OH245126   0.411   4.450   2.810  0.2200 -0.2038  0.0849
 7904TIP3    H145127   0.488   4.404   2.843 -0.4418 -1.3012  0.1193
 7904TIP3    H245128   0.418   4.443   2.715 -0.6954 -1.7721  0.1119
 7905TIP3   OH245129   3.318   1.139  13.560 -0.0823  0.2372 -0.7264
 7905TIP3    H145130   3.289   1.156  13.470  0.7484 -0.5319 -1.1426
 7905TIP3    H245131   3.411   1.161  13.560  0.0081 -0.1312 -0.1547
 7906TIP3   OH245132   5.014   4.259   3.892  0.2345 -0.2302  0.2980
 7906TIP3    H145133   5.009   4.259   3.796  0.4824  1.2141  0.2822
 7906TIP3    H245134   4.984   4.345   3.918  0.0514 -0.6598  1.5424
 7907TIP3   OH245135   6.023   4.076   2.510 -0.0033 -0.0729 -0.5444
 7907TIP3    H145136   6.003   4.060   2.418  1.5893 -1.6563 -0.6526
 7907TIP3    H245137   6.001   3.994   2.554 -4.3636  1.8890  1.1780
 7908TIP3   OH245138   3.856   5.383   5.887  1.1635 -0.2189  0.0227
 7908TIP3    H145139   3.881   5.474   5.876  1.6051 -0.6142 -2.5643
 7908TIP3    H245140   3.773   5.374   5.840  2.3621 -1.6923 -1.8690
 7909TIP3   OH245141   6.358   6.216   5.995  0.5420 -0.1800 -0.1574
 7909TIP3    H145142   6.407   6.222   5.914  0.2305  1.7471 -0.2116
 7909TIP3    H245143   6.394   6.285   6.051 -2.1056  1.3205 -0.2165
 7910TIP3   OH245144   2.760   5.172  11.989 -0.3581  0.1021  0.2172
 7910TIP3    H145145   2.733   5.116  11.916  0.8727 -0.3830  0.1115
 7910TIP3    H245146   2.770   5.113  12.063 -0.1839  0.3661  0.4064
 7911TIP3   OH245147   4.016   3.681   0.925  0.5710  0.1879  0.1542
 7911TIP3    H145148   3.974   3.762   0.956  1.3053  0.3261  0.7835
 7911TIP3    H245149   3.942   3.621   0.910  0.1276  0.4847  1.1040
 7912TIP3   OH245150   5.040   3.391  15.730  0.0220  0.3352  0.0887
 7912TIP3    H145151   5.056   3.416  15.639 -0.6961  0.5773  0.0282
 7912TIP3    H245152   5.109   3.328  15.750 -0.1414 -0.1331 -0.7920
 7913TIP3   OH245153   0.306   3.531  15.259 -0.3938 -0.2380 -0.0421
 7913TIP3    H145154   0.242   3.602  15.267 -1.5521 -1.3409  0.4466
 7913TIP3    H245155   0.274   3.462  15.316  0.0280 -1.6887 -1.5384
 7914TIP3   OH245156   4.421   6.759   0.077 -0.0392  0.1757  0.0609
 7914TIP3    H145157   4.408   6.801  -0.007  1.2133 -0.3888 -0.4313
 7914TIP3    H245158   4.514   6.735   0.078 -0.4857 -1.6376  0.7458
 7915TIP3   OH245159   2.348   0.838   1.352 -0.3409  0.2459  0.6252
 7915TIP3    H145160   2.307   0.916   1.391 -0.6510 -0.7000  2.2393
 7915TIP3    H245161   2.293   0.817   1.277  0.3447  2.1963 -0.4701
 7916TIP3   OH245162   6.590   2.281   2.274 -0.2166  0.3240 -0.0616
 7916TIP3    H145163   6.522   2.285   2.207 -1.3391  0.1977  1.0623
 7916TIP3    H245164   6.643   2.206   2.250 -0.6630  0.2268 -0.7624
 7917TIP3   OH245165   5.398   2.960   6.050  0.0958 -0.1224 -0.5968
 7917TIP3    H145166   5.426   2.981   6.139  0.6080 -2.8994 -0.0712
 7917TIP3    H245167   5.448   3.021   5.995  1.0834  0.4537  0.8857
 7918TIP3   OH245168   6.525   1.735  13.718  0.7617 -0.1004  0.0794
 7918TIP3    H145169   6.555   1.795  13.650  0.6511  1.1983  1.1587
 7918TIP3    H245170   6.433   1.758  13.732  0.6858 -0.5946  0.4116
 7919TIP3   OH245171   6.557   4.790   0.556  0.3601  0.8724 -0.3858
 7919TIP3    H145172   6.463   4.776   0.560  0.6508 -1.1867 -0.2159
 7919TIP3    H245173   6.576   4.799   0.462 -0.1653  2.6768 -0.3397
 7920TIP3   OH245174   5.786   6.734  15.061  0.0221  0.5394  0.1566
 7920TIP3    H145175   5.730   6.809  15.078 -1.6034 -0.6888  0.4127
 7920TIP3    H245176   5.853   6.766  15.000 -1.9182  1.6177 -1.4556
 7921TIP3   OH245177   5.758   4.420   5.596  0.0235  0.3010 -0.0273
 7921TIP3    H145178   5.812   4.461   5.664 -0.1183  1.3105 -0.5227
 7921TIP3    H245179   5.683   4.385   5.644  1.4408 -1.7817  0.7899
 7922TIP3   OH245180   1.521   2.704  14.933  0.0149  0.2001  0.0892
 7922TIP3    H145181   1.543   2.782  14.882  1.4208 -0.0682  0.2515
 7922TIP3    H245182   1.597   2.646  14.922 -1.9337 -2.0995 -1.8530
 7923TIP3   OH245183   5.219   4.904  12.628 -0.2198  0.9739  0.0078
 7923TIP3    H145184   5.138   4.942  12.595 -1.5146 -1.4857  0.2342
 7923TIP3    H245185   5.191   4.831  12.683  2.1162  0.8051  1.0278
 7924TIP3   OH245186   2.114   4.045  16.316  0.3688  0.1463  0.0428
 7924TIP3    H145187   2.117   4.123  16.261  1.6722  0.5335  0.6516
 7924TIP3    H245188   2.126   4.077  16.405 -1.2305 -0.5292  0.5276
 7925TIP3   OH245189   5.623   3.594   5.430 -0.0952  0.8738  0.1229
 7925TIP3    H145190   5.619   3.505   5.396 -2.0169  0.9184  0.1876
 7925TIP3    H245191   5.645   3.583   5.523 -1.9294  0.3401  0.5251
 7926TIP3   OH245192   1.680   6.577   1.602 -0.6843  0.1951  0.6064
 7926TIP3    H145193   1.689   6.518   1.677 -2.3695 -2.8470 -1.4553
 7926TIP3    H245194   1.757   6.560   1.548 -0.4586  0.9565  0.6794
 7927TIP3   OH245195   1.546   6.710   4.706  0.1364  0.5465  0.1549
 7927TIP3    H145196   1.486   6.662   4.649  1.1218  0.4932 -0.8350
 7927TIP3    H245197   1.555   6.796   4.665  1.8572  0.0776 -0.5005
 7928TIP3   OH245198   2.521   0.021  11.883 -0.0030  0.0506  0.2078
 7928TIP3    H145199   2.474   0.074  11.818 -0.4670 -0.2138  0.3229
 7928TIP3    H245200   2.494  -0.069  11.864  0.2582 -0.0774  0.4403
 7929TIP3   OH245201   2.006   5.279  12.711 -0.3987 -0.0507 -0.1348
 7929TIP3    H145202   2.072   5.231  12.661  1.4792 -0.4209  2.6389
 7929TIP3    H245203   1.932   5.218  12.717  0.2843 -0.9154 -0.3770
 7930TIP3   OH245204   2.264   3.011   0.326 -0.4587 -0.2562 -0.8223
 7930TIP3    H145205   2.251   2.918   0.305  0.5870 -0.2703 -1.4271
 7930TIP3    H245206   2.298   3.050   0.246  0.9853  0.2468 -0.0005
 7931TIP3   OH245207   4.783   1.983   0.375  0.4044  0.1623 -0.5528
 7931TIP3    H145208   4.799   1.978   0.281 -0.6924 -1.6904 -0.6544
 7931TIP3    H245209   4.864   2.020   0.411  1.0498  0.3389 -2.1588
 7932TIP3   OH245210   4.058   4.073   1.026 -0.1588 -0.0308  0.2602
 7932TIP3    H145211   4.009   4.018   1.086 -0.8741  1.0628  0.6893
 7932TIP3    H245212   4.150   4.046   1.038 -0.2680  0.3242  1.9868
 7933TIP3   OH245213   5.378   1.714  16.770  0.3189  0.1556 -0.1021
 7933TIP3    H145214   5.293   1.711  16.815 -0.3496 -1.3979 -1.4532
 7933TIP3    H245215   5.442   1.720  16.841 -0.6819 -2.9896  1.1345
 7934TIP3   OH245216   6.334   4.399  12.645  0.0929  0.1725 -0.4839
 7934TIP3    H145217   6.276   4.469  12.616 -0.0365 -0.8807 -2.9181
 7934TIP3    H245218   6.356   4.352  12.564  2.5941 -0.7502  0.6836
 7935TIP3   OH245219   3.728   6.292   1.065 -0.1016  0.6537 -0.1677
 7935TIP3    H145220   3.740   6.200   1.038  1.0318  1.1074 -1.2679
 7935TIP3    H245221   3.792   6.340   1.012 -0.0053  1.9605  1.1391
 7936TIP3   OH245222   1.083   2.520   5.138  0.0367 -0.2425 -0.1522
 7936TIP3    H145223   1.145   2.449   5.119 -0.4973 -0.6376 -0.4348
 7936TIP3    H245224   0.999   2.476   5.150 -0.4425  0.4058 -1.0492
 7937TIP3   OH245225   2.412   0.069   5.586 -0.8218 -0.2632  0.4133
 7937TIP3    H145226   2.322   0.100   5.579 -0.5370 -0.0420 -3.0129
 7937TIP3    H245227   2.406  -0.026   5.574 -0.7410 -0.4450  1.7497
 7938TIP3   OH245228   2.770   1.652   4.516 -0.0255  0.1577 -0.1278
 7938TIP3    H145229   2.757   1.744   4.538  1.2187  0.6673 -1.4829
 7938TIP3    H245230   2.750   1.605   4.598 -0.7752  1.6053  0.5361
 7939TIP3   OH245231   4.938   1.105   5.369 -0.5533  0.1137 -0.5277
 7939TIP3    H145232   4.927   1.024   5.319  1.3153 -0.5380  0.0458
 7939TIP3    H245233   5.011   1.150   5.325 -0.4302  0.6412  0.2020
 7940TIP3   OH245234   3.405   2.424  11.806 -0.0903 -0.0060  0.3330
 7940TIP3    H145235   3.311   2.441  11.806 -0.4007 -1.6757  1.5825
 7940TIP3    H245236   3.413   2.329  11.811  1.6591  0.1072 -0.0419
 7941TIP3   OH245237   4.131   5.801   4.156  0.3181 -0.1789 -0.2658
 7941TIP3    H145238   4.212   5.802   4.105 -0.1727  0.6240 -1.0446
 7941TIP3    H245239   4.091   5.717   4.135  1.0202 -0.6617  0.2646
 7942TIP3   OH245240   5.420   3.585  12.545  0.4163  0.1996  0.3467
 7942TIP3    H145241   5.373   3.581  12.463  0.0702 -0.1094  0.5598
 7942TIP3    H245242   5.428   3.679  12.564  0.3290  0.2641  0.0635
 7943TIP3   OH245243   5.178   0.925  14.196  0.1512  0.2626 -0.0837
 7943TIP3    H145244   5.250   0.921  14.133  0.2053 -0.3677  0.0168
 7943TIP3    H245245   5.101   0.896  14.146  0.3895 -1.2885  0.4179
 7944TIP3   OH245246   4.025   0.442   2.748 -0.6127  0.6123 -0.4101
 7944TIP3    H145247   4.004   0.448   2.655 -0.3487  1.6992 -0.3982
 7944TIP3    H245248   4.106   0.391   2.751 -0.2316  1.1892 -0.8238
 7945TIP3   OH245249   0.441   3.558  15.022 -0.2676  0.2572  0.1957
 7945TIP3    H145250   0.421   3.480  14.970  1.1184 -0.9193  1.4103
 7945TIP3    H245251   0.392   3.547  15.103 -0.1636  0.7119  0.3242
 7946TIP3   OH245252   4.623   1.716  12.461 -0.3480 -0.4797 -0.2071
 7946TIP3    H145253   4.658   1.802  12.484 -1.0786 -0.4945  1.0273
 7946TIP3    H245254   4.696   1.671  12.420 -0.1040  0.9121 -1.3567
 7947TIP3   OH245255   4.485   4.716  10.959 -0.9259 -0.1891  0.5992
 7947TIP3    H145256   4.422   4.655  10.997 -1.0667 -0.1001  0.5110
 7947TIP3    H245257   4.431   4.790  10.931 -0.7950 -0.1652  0.4139
 7948TIP3   OH245258   3.101   2.427  15.367 -0.7147 -0.6251 -0.1480
 7948TIP3    H145259   3.176   2.463  15.415 -0.8906  0.1138 -0.4284
 7948TIP3    H245260   3.141   2.373  15.299 -0.4380 -0.5542 -0.0445
 7949TIP3   OH245261   5.633   2.796   0.835 -0.4088 -0.3020  0.1945
 7949TIP3    H145262   5.563   2.732   0.842  0.0261 -1.1706 -2.5134
 7949TIP3    H245263   5.605   2.856   0.765  0.3833  0.8587  0.8441
 7950TIP3   OH245264   3.654   6.618  16.501 -0.0817  0.2012 -0.0645
 7950TIP3    H145265   3.649   6.527  16.475 -1.5033  0.8318 -2.1214
 7950TIP3    H245266   3.597   6.624  16.579 -0.3969 -0.5660 -0.2350
 7951TIP3   OH245267   5.133   3.136  13.871  0.0957 -0.3259 -0.3957
 7951TIP3    H145268   5.160   3.098  13.955  1.0954 -0.2092 -0.6534
 7951TIP3    H245269   5.207   3.191  13.845 -0.1326 -0.4980 -1.4342
 7952TIP3   OH245270   1.819   2.537   5.415  0.4075  0.7723 -0.5751
 7952TIP3    H145271   1.765   2.597   5.363  1.1213  0.0085 -2.2465
 7952TIP3    H245272   1.770   2.455   5.416  1.5163  0.0650 -2.1322
 7953TIP3   OH245273   1.050   5.279   2.448  0.0783  0.3409  0.0672
 7953TIP3    H145274   1.101   5.200   2.466 -0.1870  0.1830  0.1262
 7953TIP3    H245275   1.085   5.311   2.365  1.3930  1.1501  0.9139
 7954TIP3   OH245276   3.823   6.021  16.354 -0.5813  0.3472 -0.7392
 7954TIP3    H145277   3.747   5.984  16.400 -0.1133 -0.0033 -0.2346
 7954TIP3    H245278   3.849   6.096  16.408  1.5123 -1.5647  0.9707
 7955TIP3   OH245279   2.713   3.956  14.905 -1.0275 -0.1553 -0.2587
 7955TIP3    H145280   2.643   3.995  14.957 -0.4576 -0.3316  0.6579
 7955TIP3    H245281   2.774   4.028  14.890 -1.7595  0.1878 -1.7124
 7956TIP3   OH245282   4.433   3.976   3.679 -0.5688  0.3392  0.0485
 7956TIP3    H145283   4.373   4.042   3.646 -2.7440 -0.1409  2.8367
 7956TIP3    H245284   4.388   3.893   3.667  1.1327 -0.4266 -1.2269
 7957TIP3   OH245285   0.550   5.569   1.405  0.8146 -0.1199 -0.1005
 7957TIP3    H145286   0.572   5.597   1.494  1.5599 -0.3813 -0.1947
 7957TIP3    H245287   0.477   5.509   1.416  0.1595  0.7372  0.2331
 7958TIP3   OH245288   2.718   5.126   5.258  0.1507 -0.0674 -0.2254
 7958TIP3    H145289   2.750   5.050   5.307  2.3669 -0.5548 -2.3236
 7958TIP3    H245290   2.700   5.192   5.325  2.0323 -1.0903  1.3489
 7959TIP3   OH245291   3.613   4.379   3.814 -0.0021  0.3718 -0.3328
 7959TIP3    H145292   3.653   4.454   3.769 -0.3635  1.2381  0.7752
 7959TIP3    H245293   3.624   4.399   3.907 -0.9100 -0.5236 -0.0356
 7960TIP3   OH245294   6.067   5.180  11.384  0.0984  0.6445 -0.4045
 7960TIP3    H145295   6.119   5.133  11.450 -0.9361  1.0976  0.7400
 7960TIP3    H245296   6.043   5.112  11.321 -0.2263 -0.1054  0.5141
 7961TIP3   OH245297   4.528   0.863   5.584 -0.5600 -0.0260 -0.1093
 7961TIP3    H145298   4.527   0.801   5.511 -1.1726 -0.1624  0.0080
 7961TIP3    H245299   4.480   0.939   5.552  0.5565  0.5640 -0.3982
 7962TIP3   OH245300   2.199   1.450   2.735  0.2655  0.1072  0.0067
 7962TIP3    H145301   2.170   1.460   2.826  0.8457 -0.0238  0.2044
 7962TIP3    H245302   2.294   1.447   2.740  0.3209  0.6741 -0.6640
 7963TIP3   OH245303   3.318   2.088   4.666 -0.8049  0.1388 -0.0053
 7963TIP3    H145304   3.318   2.059   4.575 -0.2402  0.1558 -0.0156
 7963TIP3    H245305   3.273   2.172   4.665 -0.7977  0.1399 -0.2670
 7964TIP3   OH245306   1.229   3.941   6.059  0.1421 -0.4682 -0.1966
 7964TIP3    H145307   1.189   3.864   6.019  0.9665 -0.3006 -1.3778
 7964TIP3    H245308   1.168   3.967   6.128 -1.6922 -0.3166 -1.8337
 7965TIP3   OH245309   1.471   4.811  15.968 -0.0458 -0.4861 -0.2203
 7965TIP3    H145310   1.547   4.824  15.910  0.2666  0.5023  0.4023
 7965TIP3    H245311   1.508   4.811  16.056 -0.7481 -0.1315  0.0818
 7966TIP3   OH245312   1.683   3.306   3.410 -0.1824  0.1602  0.0777
 7966TIP3    H145313   1.765   3.349   3.386 -0.8927  0.8477 -1.2274
 7966TIP3    H245314   1.631   3.375   3.451 -0.3827 -0.0856  0.2379
 7967TIP3   OH245315   4.755   3.851  15.000 -0.3330 -1.0337  0.2237
 7967TIP3    H145316   4.722   3.922  15.055  0.7033 -1.1879  1.0600
 7967TIP3    H245317   4.802   3.895  14.929 -0.3531 -0.8697  0.3127
 7968TIP3   OH245318   4.554   6.229  14.092  0.3000 -0.3942 -0.5922
 7968TIP3    H145319   4.627   6.237  14.155  0.3891 -1.3251 -0.5593
 7968TIP3    H245320   4.535   6.319  14.065  0.6856 -0.0385  0.2910
 7969TIP3   OH245321   6.113   6.494  13.682 -0.4112 -0.7888  0.5452
 7969TIP3    H145322   6.066   6.549  13.619  0.2918 -0.6072  0.1687
 7969TIP3    H245323   6.106   6.406  13.646  0.1334 -0.6615  0.1140
 7970TIP3   OH245324   5.125   0.944  11.548  0.4206  0.1291 -0.6109
 7970TIP3    H145325   5.164   1.004  11.485 -0.1400  0.6464 -0.4710
 7970TIP3    H245326   5.086   0.875  11.494  0.1867  0.4229 -0.8202
 7971TIP3   OH245327   0.287   1.288   5.628  0.3432 -0.1432  0.1016
 7971TIP3    H145328   0.301   1.275   5.722  0.8528 -0.1917  0.0161
 7971TIP3    H245329   0.322   1.376   5.611  1.0250 -0.4741 -0.2094
 7972TIP3   OH245330   4.607   6.561  12.840  0.3958  0.0987 -0.0375
 7972TIP3    H145331   4.529   6.523  12.881  0.6259  0.6398  0.9204
 7972TIP3    H245332   4.635   6.629  12.901  0.6594  1.0295 -1.1645
 7973TIP3   OH245333   0.004   2.416  10.604 -0.8882 -0.2144 -0.1281
 7973TIP3    H145334   0.059   2.358  10.552  0.3001 -1.3298  2.3110
 7973TIP3    H245335   0.040   2.503  10.588 -1.2360 -0.3960 -2.0142
 7974TIP3   OH245336   3.291   2.294   0.533 -0.2865  0.2985  0.0151
 7974TIP3    H145337   3.328   2.218   0.578 -1.5107 -0.0423  0.4730
 7974TIP3    H245338   3.304   2.366   0.594 -0.0448  0.2481  0.0229
 7975TIP3   OH245339   3.476   2.377   3.155 -0.5138  0.0931  0.2429
 7975TIP3    H145340   3.551   2.432   3.130 -1.0527  0.6857 -0.0824
 7975TIP3    H245341   3.510   2.288   3.154 -0.4326  0.1287 -2.2641
 7976TIP3   OH245342   4.685   4.611  12.604 -0.2599  0.3513  0.5618
 7976TIP3    H145343   4.660   4.632  12.514 -0.4413  0.1855  0.5735
 7976TIP3    H245344   4.737   4.531  12.597 -0.8661 -0.0565  0.6775
 7977TIP3   OH245345   1.397   5.359  10.602  0.0211  0.2736  0.0110
 7977TIP3    H145346   1.481   5.314  10.595 -0.5011 -0.5990 -0.6493
 7977TIP3    H245347   1.332   5.289  10.610 -0.7976  0.9003 -1.0251
 7978TIP3   OH245348   1.532   2.489  15.363 -0.6434 -0.3295  0.4509
 7978TIP3    H145349   1.453   2.471  15.312 -1.4332  1.6511  0.9439
 7978TIP3    H245350   1.604   2.476  15.301 -1.4169 -0.8818 -0.3413
 7979TIP3   OH245351   1.019   6.647  10.570  0.4399 -0.3717 -0.0924
 7979TIP3    H145352   1.015   6.704  10.647 -2.0732 -2.4325  1.4003
 7979TIP3    H245353   1.095   6.591  10.586  1.1295  0.5486 -0.1047
 7980TIP3   OH245354   3.239   1.328   1.254  0.3324  0.2986 -0.5745
 7980TIP3    H145355   3.244   1.334   1.159 -0.6272  0.0491 -0.6396
 7980TIP3    H245356   3.211   1.238   1.271  1.8728 -0.0932 -0.0111
 7981TIP3   OH245357   1.137   4.548  14.048  0.4649  0.8565  0.0047
 7981TIP3    H145358   1.199   4.510  14.110 -0.9552  0.4909  1.2363
 7981TIP3    H245359   1.132   4.485  13.976  0.1317 -0.0107  0.7796
 7982TIP3   OH245360   1.758   5.614  10.928 -0.0853  0.4472  0.5526
 7982TIP3    H145361   1.773   5.535  10.981 -0.3349  1.1875  1.7525
 7982TIP3    H245362   1.670   5.601  10.891 -0.3387  0.3961  1.1662
 7983TIP3   OH245363   4.462   4.503  16.708 -0.4175  0.2905  0.3095
 7983TIP3    H145364   4.505   4.507  16.622 -2.5154 -0.5221 -0.8218
 7983TIP3    H245365   4.489   4.583  16.753 -0.8813  1.7191 -1.8881
 7984TIP3   OH245366   1.505   0.064   4.928 -0.0560  0.5427 -0.0838
 7984TIP3    H145367   1.450   0.140   4.910 -1.0242 -0.2418 -0.4807
 7984TIP3    H245368   1.507   0.015   4.846 -0.1922 -0.3390  0.4354
 7985TIP3   OH245369   6.177   2.019  12.448 -0.5426 -0.2397  0.5935
 7985TIP3    H145370   6.118   2.093  12.464  0.5298  0.8212 -0.2870
 7985TIP3    H245371   6.133   1.968  12.379 -1.4294 -0.6004  1.4206
 7986TIP3   OH245372   1.657   3.606  14.334 -0.2314  0.3090 -0.0164
 7986TIP3    H145373   1.647   3.512  14.348 -1.7863  0.3508 -0.7891
 7986TIP3    H245374   1.740   3.615  14.287  0.5689 -0.5454  1.1909
 7987TIP3   OH245375   0.351   1.279   1.835 -1.3174 -0.1932  0.0803
 7987TIP3    H145376   0.412   1.339   1.878  0.2007 -0.6088 -1.4287
 7987TIP3    H245377   0.374   1.193   1.869  0.0821 -0.5619 -1.7110
 7988TIP3   OH245378   4.373   0.233   1.094  0.0684 -0.6828  0.1094
 7988TIP3    H145379   4.427   0.186   1.158 -1.0629 -1.4695  0.4959
 7988TIP3    H245380   4.411   0.322   1.092  1.2468 -1.1624  0.5131
 7989TIP3   OH245381   5.870   1.988  11.333 -0.4641  0.2919  0.3758
 7989TIP3    H145382   5.953   1.986  11.286  0.1275  0.7763  1.4013
 7989TIP3    H245383   5.825   2.065  11.299  0.4704  1.3340  1.4455
 7990TIP3   OH245384   1.013   5.415  15.192 -0.2851  0.2455  0.0700
 7990TIP3    H145385   0.942   5.449  15.137  1.5421  1.6879 -1.4408
 7990TIP3    H245386   1.093   5.437  15.145  1.1790 -1.8431  1.4791
 7991TIP3   OH245387   1.853   5.730  12.442  0.7325  0.2555 -0.1898
 7991TIP3    H145388   1.888   5.642  12.427  2.3685  1.0316 -1.0695
 7991TIP3    H245389   1.762   5.725  12.412  0.9283 -1.0334 -0.5931
 7992TIP3   OH245390   4.333   2.243   1.088  0.5627 -0.3365  0.0766
 7992TIP3    H145391   4.269   2.285   1.032 -0.2639 -0.6862  0.7558
 7992TIP3    H245392   4.290   2.164   1.121  0.2319  0.9431  2.8977
 7993TIP3   OH245393   4.984   3.332  13.734  0.3329 -0.3354  0.3494
 7993TIP3    H145394   4.995   3.285  13.651 -2.5152 -0.9203  0.2514
 7993TIP3    H245395   5.016   3.271  13.800  1.3060 -0.4256 -0.1958
 7994TIP3   OH245396   1.037   6.348  13.961  0.1748  0.1666  0.0138
 7994TIP3    H145397   1.079   6.268  13.929  2.2980  1.8069 -1.4250
 7994TIP3    H245398   1.001   6.324  14.047  3.0515 -1.6130  0.7636
 7995TIP3   OH245399   0.726   6.323   4.039 -0.2373  0.5813  0.3983
 7995TIP3    H145400   0.798   6.372   4.078  0.0339  0.6653 -0.1995
 7995TIP3    H245401   0.746   6.321   3.945 -0.0429 -0.9962  0.4482
 7996TIP3   OH245402   0.039   1.100  12.090  0.2056 -0.1085 -0.4605
 7996TIP3    H145403   0.097   1.074  12.018 -0.0507  0.7196 -0.9758
 7996TIP3    H245404   0.006   1.018  12.125 -0.2158 -0.4964 -1.7470
 7997TIP3   OH245405   2.494   5.653   5.180 -0.4073 -0.0712  0.3552
 7997TIP3    H145406   2.561   5.640   5.247  0.8111 -0.3494 -0.8889
 7997TIP3    H245407   2.416   5.678   5.228  0.4016 -0.4599  1.8912
 7998TIP3   OH245408   2.753   6.031   5.285 -0.2506  0.0602  0.0785
 7998TIP3    H145409   2.706   6.054   5.366  0.1474 -0.5256  0.4835
 7998TIP3    H245410   2.686   5.995   5.228 -0.1130 -1.9810  1.1310
 7999TIP3   OH245411   5.948   3.235  14.565 -0.2916  0.2721 -0.0743
 7999TIP3    H145412   5.928   3.288  14.488 -0.1473  0.6887  0.1752
 7999TIP3    H245413   6.013   3.286  14.613  0.6471 -0.6080 -0.3735
 8000TIP3   OH245414   6.553   4.155   4.207 -0.1008  0.7018  0.0661
 8000TIP3    H145415   6.538   4.216   4.279  0.1836  0.2283  0.5381
 8000TIP3    H245416   6.516   4.072   4.238 -0.1303  0.5379 -0.4038
 8001TIP3   OH245417   2.435   1.758  12.515 -0.5105  0.6766  0.3999
 8001TIP3    H145418   2.494   1.691  12.482  0.4018  1.3200  0.6986
 8001TIP3    H245419   2.442   1.752  12.610  0.4893  1.9753  0.4249
 8002TIP3   OH245420   3.131   1.314  11.597 -0.3158  0.2734 -0.3382
 8002TIP3    H145421   3.037   1.321  11.614 -0.2100 -0.9138  0.8878
 8002TIP3    H245422   3.172   1.359  11.671  0.0799  1.2985 -1.1707
 8003TIP3   OH245423   0.892   5.453   6.187  0.2658  0.1675  0.1768
 8003TIP3    H145424   0.804   5.427   6.162  0.7162 -0.4906 -0.7849
 8003TIP3    H245425   0.902   5.423   6.277  0.0967 -1.2456 -0.2740
 8004TIP3   OH245426   4.781   5.056  11.672  0.1166 -0.0204 -0.6478
 8004TIP3    H145427   4.780   5.073  11.578  0.5624 -1.6860 -0.9720
 8004TIP3    H245428   4.872   5.070  11.698  0.1233 -0.1718 -0.5906
 8005TIP3   OH245429   6.296   5.948  11.793  0.5041  0.0117  0.3323
 8005TIP3    H145430   6.321   6.034  11.759  1.2602 -0.1389  0.4905
 8005TIP3    H245431   6.335   5.886  11.731  1.5139 -0.2525  1.2096
 8006TIP3   OH245432   3.512   6.722   3.000 -0.0411  0.2150 -0.0241
 8006TIP3    H145433   3.528   6.630   2.979  0.1656  0.4216 -0.7823
 8006TIP3    H245434   3.477   6.721   3.089  0.9087 -0.5143  0.3456
 8007TIP3   OH245435   4.078   4.809  14.724 -0.0811  0.4758 -0.2800
 8007TIP3    H145436   4.125   4.824  14.806 -2.6307 -1.1200  1.5378
 8007TIP3    H245437   4.040   4.895  14.703 -0.5377  0.5943  0.9685
 8008TIP3   OH245438   0.773   0.918  12.849  0.5007 -0.0259 -0.2058
 8008TIP3    H145439   0.765   0.946  12.758 -1.8628  1.1260  0.3102
 8008TIP3    H245440   0.774   1.000  12.899  2.4416 -0.6160  0.7826
 8009TIP3   OH245441   4.533   6.661  15.156  0.0126  0.6151  0.2846
 8009TIP3    H145442   4.439   6.658  15.175  0.3874 -1.4704  2.0296
 8009TIP3    H245443   4.549   6.581  15.105  1.1230  0.0960  1.4325
 8010TIP3   OH245444   2.318   5.013   4.546 -0.1229  0.0204 -0.3707
 8010TIP3    H145445   2.317   4.941   4.610 -2.0401  0.2165 -0.1496
 8010TIP3    H245446   2.297   5.091   4.597 -0.4510  0.3658 -1.0304
 8011TIP3   OH245447   5.943   1.961  14.285  0.3387  0.0234 -0.0614
 8011TIP3    H145448   5.961   1.876  14.245  0.7810  0.9442 -1.8743
 8011TIP3    H245449   6.002   2.022  14.240  0.3257  1.2290  1.4968
 8012TIP3   OH245450   1.628   1.074  16.666  0.2187 -0.9448 -0.1866
 8012TIP3    H145451   1.597   1.146  16.720 -0.0747 -1.4166  0.2830
 8012TIP3    H245452   1.636   1.111  16.578 -0.4097 -0.4797 -0.0493
 8013TIP3   OH245453   0.822   2.858   4.710  0.0767 -0.3095  0.4309
 8013TIP3    H145454   0.887   2.829   4.645 -0.8297 -0.1159 -0.5680
 8013TIP3    H245455   0.739   2.857   4.663 -0.6546 -0.5487  1.7083
 8014TIP3   OH245456   3.553   0.563  16.576 -0.0693  0.3006  0.7014
 8014TIP3    H145457   3.536   0.569  16.482  0.2673  1.6686  0.7270
 8014TIP3    H245458   3.647   0.575  16.585 -0.1895  0.8494  1.2685
 8015TIP3   OH245459   1.143   1.526  16.779 -0.3090  0.3950 -0.2722
 8015TIP3    H145460   1.225   1.526  16.828 -1.2130 -2.4595  1.3521
 8015TIP3    H245461   1.086   1.587  16.827 -0.0377  0.3024  0.1683
 8016TIP3   OH245462   0.308   2.201  14.069 -0.2573 -0.7215  0.3319
 8016TIP3    H145463   0.238   2.143  14.041  0.2504 -0.8322 -0.7056
 8016TIP3    H245464   0.388   2.157  14.044  0.1592 -0.0537  0.4750
 8017TIP3   OH245465   1.949   2.632  10.633 -0.1942 -0.2378  0.5392
 8017TIP3    H145466   2.023   2.650  10.692 -0.6684  0.9160  0.7960
 8017TIP3    H245467   1.894   2.710  10.639  0.2341  0.3340 -2.1587
 8018TIP3   OH245468   2.396   2.936   3.105  0.1625  0.1660 -0.0355
 8018TIP3    H145469   2.372   2.925   3.013  3.1874  0.3736 -0.9157
 8018TIP3    H245470   2.360   3.021   3.129  0.5903  0.7706 -1.4788
 8019TIP3   OH245471   3.576   6.421  11.898 -0.0082  0.2642 -0.4557
 8019TIP3    H145472   3.551   6.330  11.906 -2.6640  0.9899 -0.0903
 8019TIP3    H245473   3.549   6.446  11.810  1.9167  0.3768 -1.0479
 8020TIP3   OH245474   5.342   6.693  13.353  0.1191  0.2194  0.4637
 8020TIP3    H145475   5.299   6.778  13.365 -0.3675  0.0990 -0.3806
 8020TIP3    H245476   5.276   6.629  13.378  0.2096  0.0660  0.3082
 8021TIP3   OH245477   2.844   5.581   0.494  0.1458 -0.5506 -0.4768
 8021TIP3    H145478   2.830   5.566   0.588 -0.5131 -1.1625 -0.6661
 8021TIP3    H245479   2.818   5.672   0.480 -0.4138 -0.6679 -0.1925
 8022TIP3   OH245480   1.371   6.441   2.554 -0.1882  0.2249 -0.1764
 8022TIP3    H145481   1.439   6.383   2.587  0.3469  0.7109 -0.4188
 8022TIP3    H245482   1.359   6.507   2.623 -0.9491 -0.2881  0.1944
 8023TIP3   OH245483   5.274   6.230   0.887  0.1142  0.0531  0.4347
 8023TIP3    H145484   5.347   6.182   0.927  1.6050  2.3713  0.5579
 8023TIP3    H245485   5.236   6.280   0.959  0.3916  1.2682 -0.2393
 8024TIP3   OH245486   5.453   2.630   3.366 -0.4857 -0.0991  0.0007
 8024TIP3    H145487   5.512   2.566   3.406 -1.8676 -1.2269  0.3056
 8024TIP3    H245488   5.424   2.684   3.439 -2.7458 -1.9457  0.5450
 8025TIP3   OH245489   2.671   6.676   4.186  0.2206 -0.0373  0.2431
 8025TIP3    H145490   2.640   6.598   4.141 -0.5826 -0.5128  1.6015
 8025TIP3    H245491   2.600   6.739   4.176 -0.6415 -0.6805  2.2101
 8026TIP3   OH245492   3.406   6.364  13.157 -0.1910  0.2952  0.1263
 8026TIP3    H145493   3.445   6.451  13.154 -1.8612  1.1223  0.9461
 8026TIP3    H245494   3.324   6.377  13.206 -0.4986 -1.7219  0.1993
 8027TIP3   OH245495   5.374   3.275  16.822 -0.4366  0.1116 -0.3179
 8027TIP3    H145496   5.403   3.365  16.808  0.6368  0.0360  1.2255
 8027TIP3    H245497   5.310   3.280  16.893  0.2697 -0.4234  0.3736
 8028TIP3   OH245498   2.037   6.667  15.723 -0.2168  0.5691 -0.1575
 8028TIP3    H145499   2.100   6.739  15.727  0.1014  0.2818  0.0706
 8028TIP3    H245500   2.068   6.604  15.788 -0.5734  0.2909 -0.2523
 8029TIP3   OH245501   4.838   0.035  11.996 -0.4556 -0.0875  0.0437
 8029TIP3    H145502   4.866   0.079  12.076 -2.5433  0.2739  0.6087
 8029TIP3    H245503   4.774   0.094  11.957 -0.3100 -0.7924 -1.3073
 8030TIP3   OH245504   3.596   3.887  13.967  0.0058  0.1666 -0.0805
 8030TIP3    H145505   3.555   3.954  14.021 -0.0931  0.4659 -0.5204
 8030TIP3    H245506   3.627   3.934  13.890 -0.3929 -0.3477 -0.5630
 8031TIP3   OH245507   0.385   3.777   5.707  0.3935  0.0450  0.0465
 8031TIP3    H145508   0.339   3.743   5.630  1.0176  2.7308 -1.5667
 8031TIP3    H245509   0.379   3.706   5.771 -3.7140 -0.7087 -0.9985
 8032TIP3   OH245510   3.454   1.906   5.911 -0.3094  0.4679 -0.4567
 8032TIP3    H145511   3.496   1.872   5.832 -0.3810 -2.9452  0.8642
 8032TIP3    H245512   3.369   1.862   5.914 -0.6634  1.2171  1.0664
 8033TIP3   OH245513   1.332   3.814   1.736 -0.2511  0.1223  0.4143
 8033TIP3    H145514   1.403   3.806   1.673  0.8265  3.7198  1.0556
 8033TIP3    H245515   1.254   3.788   1.687  1.0620 -0.8728 -1.2153
 8034TIP3   OH245516   2.123   6.395  15.882  0.1121 -0.2755  0.3913
 8034TIP3    H145517   2.140   6.321  15.823  0.3738  0.4155 -0.4047
 8034TIP3    H245518   2.174   6.376  15.961 -1.5658 -2.0575  1.0902
 8035TIP3   OH245519   6.489   6.265  16.511 -0.2384  0.0564  0.3228
 8035TIP3    H145520   6.571   6.216  16.511 -1.0042 -1.2534  0.1183
 8035TIP3    H245521   6.476   6.290  16.602 -0.3033 -0.9202  0.5913
 8036TIP3   OH245522   1.730   1.841  11.263  0.7483 -0.3339 -0.5950
 8036TIP3    H145523   1.768   1.897  11.331 -0.0326  0.3813 -0.7335
 8036TIP3    H245524   1.645   1.881  11.244 -0.3700 -2.2773  0.1766
 8037TIP3   OH245525   3.618   4.676   0.660  0.6171  0.0522 -0.1131
 8037TIP3    H145526   3.598   4.676   0.566  1.6312  0.7112 -0.3325
 8037TIP3    H245527   3.539   4.710   0.701  0.2372 -0.0506 -0.7456
 8038TIP3   OH245528   3.276   2.820  14.821  0.4767 -0.2168  0.3658
 8038TIP3    H145529   3.332   2.744  14.832 -0.2336 -0.8428 -0.2741
 8038TIP3    H245530   3.241   2.837  14.909 -1.3544 -2.2019  0.0653
 8039TIP3   OH245531   3.226   0.887  11.863  0.3370  0.5216 -0.3698
 8039TIP3    H145532   3.193   0.805  11.826 -0.8934  1.8065 -2.2307
 8039TIP3    H245533   3.184   0.894  11.948 -1.1465  0.1903 -1.0604
 8040TIP3   OH245534   5.213   1.100   5.194  0.2775  0.9339  0.1085
 8040TIP3    H145535   5.242   1.165   5.130  0.1656  0.4891 -0.3920
 8040TIP3    H245536   5.123   1.080   5.169 -0.5382  2.4301  1.7504
 8041TIP3   OH245537   4.708   6.402  15.313 -0.7614 -0.0447  0.1201
 8041TIP3    H145538   4.778   6.337  15.311  0.8529  1.6701 -1.6898
 8041TIP3    H245539   4.631   6.357  15.279  0.6705 -0.7015 -2.4090
 8042TIP3   OH245540   4.294   5.130   2.811 -0.5585  0.2940  0.1584
 8042TIP3    H145541   4.203   5.153   2.792 -0.8763 -1.0098  0.0958
 8042TIP3    H245542   4.343   5.161   2.734 -0.9458  0.9564  0.1750
 8043TIP3   OH245543   5.190   3.992   2.162 -0.1731 -0.0071 -0.7391
 8043TIP3    H145544   5.196   3.925   2.093 -0.7457  1.2280 -2.0312
 8043TIP3    H245545   5.258   3.968   2.225 -0.2782 -1.7231 -1.2429
 8044TIP3   OH245546   0.817   1.275   3.080  0.3186  0.0798  0.0923
 8044TIP3    H145547   0.798   1.274   2.987  1.3866  0.4102 -0.1268
 8044TIP3    H245548   0.811   1.367   3.105 -0.8495 -0.1021  0.5418
 8045TIP3   OH245549   0.142   0.202   2.518 -0.1987 -0.2491  0.3272
 8045TIP3    H145550   0.196   0.169   2.590  0.7771 -1.7467 -1.0402
 8045TIP3    H245551   0.196   0.188   2.440 -1.2986  1.1954 -0.7150
 8046TIP3   OH245552   1.589   5.238   2.902  0.0943 -0.6062 -0.2271
 8046TIP3    H145553   1.638   5.282   2.833 -0.8690 -2.1108 -1.9534
 8046TIP3    H245554   1.653   5.220   2.971  0.9022  1.6442 -0.3743
 8047TIP3   OH245555   0.685   6.440  13.373 -0.1456 -0.2869  0.0392
 8047TIP3    H145556   0.609   6.418  13.319 -0.7349 -2.7074  1.7626
 8047TIP3    H245557   0.653   6.431  13.463  1.2207  2.2353  0.8043
 8048TIP3   OH245558   4.642   4.589   2.004  0.5042 -0.4627  0.6087
 8048TIP3    H145559   4.562   4.537   2.011  0.5447 -0.5360  0.5214
 8048TIP3    H245560   4.712   4.525   1.993  0.4134 -0.3475 -0.7298
 8049TIP3   OH245561   6.018   4.526  14.368  0.6867 -0.6850 -0.2809
 8049TIP3    H145562   6.023   4.444  14.319  1.8314 -1.1395  0.5776
 8049TIP3    H245563   6.052   4.505  14.455  0.1918  0.4990  0.2227
 8050TIP3   OH245564   3.533   3.117  12.477 -0.2449 -0.7014 -0.0299
 8050TIP3    H145565   3.532   3.209  12.452 -0.6526  0.0959  2.7530
 8050TIP3    H245566   3.592   3.114  12.553  0.8189 -2.9629 -0.9101
 8051TIP3   OH245567   5.502   3.917   1.072 -0.2335 -0.0051  0.4754
 8051TIP3    H145568   5.548   3.833   1.069 -0.7023 -0.2572  0.3158
 8051TIP3    H245569   5.433   3.909   1.007 -0.0118  0.6692  0.1540
 8052TIP3   OH245570   2.130   6.257   0.586  0.0503  0.4724  0.0142
 8052TIP3    H145571   2.106   6.165   0.583 -0.1271  0.5364 -0.4485
 8052TIP3    H245572   2.081   6.298   0.515  1.4542  0.6149 -0.8867
 8053TIP3   OH245573   6.070   5.005  15.957 -0.1809  0.0222 -0.0696
 8053TIP3    H145574   6.085   5.069  16.026  1.3235  0.8706 -1.1474
 8053TIP3    H245575   6.008   5.048  15.898  0.3973  0.2709 -0.5001
 8054TIP3   OH245576   3.240   1.608   1.241 -0.3090 -0.0152 -0.5605
 8054TIP3    H145577   3.329   1.640   1.229  0.4032 -1.2842  1.0570
 8054TIP3    H245578   3.246   1.514   1.222 -1.1221 -0.2362  0.2211
 8055TIP3   OH245579   1.144   2.518   3.813 -0.2265  0.1513  0.5046
 8055TIP3    H145580   1.237   2.495   3.807 -0.3040 -0.1706  0.5621
 8055TIP3    H245581   1.104   2.473   3.739 -0.1319  1.2963 -0.2628
 8056TIP3   OH245582   1.717   1.101   4.987  0.2417  0.6957  0.1989
 8056TIP3    H145583   1.644   1.049   5.021 -1.5782  1.4821 -2.2866
 8056TIP3    H245584   1.766   1.041   4.931 -0.7981  1.1285 -1.2147
 8057TIP3   OH245585   1.232   3.524   1.480  0.0304  0.7163  0.3468
 8057TIP3    H145586   1.157   3.567   1.519 -0.2920 -0.9347  1.5770
 8057TIP3    H245587   1.201   3.492   1.395 -0.0590  1.8624 -0.0496
 8058TIP3   OH245588   6.249   6.621   2.477 -0.1506 -0.1984 -0.2214
 8058TIP3    H145589   6.322   6.677   2.503  0.5293 -0.9782 -0.4376
 8058TIP3    H245590   6.214   6.661   2.397  0.7385 -0.4555 -0.7361
 8059TIP3   OH245591   0.089   5.417  11.846 -0.0121  0.7666  0.3962
 8059TIP3    H145592   0.175   5.443  11.813 -0.4899  1.4375 -0.3676
 8059TIP3    H245593   0.104   5.335  11.892  0.6859 -0.1831 -1.4886
 8060TIP3   OH245594   1.146   3.947  12.468 -0.1967  0.3589 -0.2805
 8060TIP3    H145595   1.184   3.973  12.551 -1.1321  1.7977 -0.2783
 8060TIP3    H245596   1.204   3.878  12.435  0.5677  0.2723  1.2155
 8061TIP3   OH245597   4.268   2.046  15.997 -0.0112  0.1775  0.1152
 8061TIP3    H145598   4.200   1.979  15.991 -1.0188  1.1872  0.0498
 8061TIP3    H245599   4.287   2.068  15.906 -0.1299  0.4289  0.1519
 8062TIP3   OH245600   6.726   3.110   6.133  0.5375  0.0245 -0.4629
 8062TIP3    H145601   6.689   3.192   6.102  1.4273  0.2536 -0.9280
 8062TIP3    H245602   6.781   3.079   6.061  3.0808  0.8461  1.0551
 8063TIP3   OH245603   2.270   4.638   1.914  0.0947 -0.1304  0.4257
 8063TIP3    H145604   2.271   4.732   1.931  0.5313  0.2994 -1.9063
 8063TIP3    H245605   2.178   4.618   1.894  0.1007 -0.1006  0.3681
 8064TIP3   OH245606   0.982   5.266  13.931  0.2055  0.6911 -0.2220
 8064TIP3    H145607   0.946   5.297  13.848 -0.7852 -1.0230 -0.4629
 8064TIP3    H245608   0.952   5.175  13.937  1.5509  0.3323  1.2838
 8065TIP3   OH245609   3.850   6.454  15.968 -0.1828 -0.0701  0.0569
 8065TIP3    H145610   3.886   6.453  15.879  3.0196  1.7480  1.2867
 8065TIP3    H245611   3.905   6.392  16.017 -1.7160 -0.8138  0.8853
 8066TIP3   OH245612   1.071   4.664   0.235 -0.1643 -0.7391  0.4378
 8066TIP3    H145613   1.038   4.683   0.323  0.5985 -0.9592  0.7815
 8066TIP3    H245614   1.094   4.571   0.238  0.4972 -0.5893  0.2229
 8067TIP3   OH245615   0.773   1.589  13.779 -0.1155  0.5849  0.8132
 8067TIP3    H145616   0.706   1.555  13.719  0.0738  1.0657  0.3292
 8067TIP3    H245617   0.758   1.541  13.861  2.0709 -2.9345 -0.7024
 8068TIP3   OH245618   4.822   1.121  15.535  0.1708  0.2098 -0.2926
 8068TIP3    H145619   4.908   1.080  15.547  0.4228  0.2417 -1.8632
 8068TIP3    H245620   4.825   1.157  15.446 -1.4946  0.1376 -0.3932
 8069TIP3   OH245621   1.043   5.517  13.497 -0.1270 -0.3085  0.7387
 8069TIP3    H145622   1.070   5.564  13.576 -2.0968 -0.9979  1.8546
 8069TIP3    H245623   1.081   5.430  13.507 -1.1135 -0.6770  1.3839
 8070TIP3   OH245624   3.847   6.750  16.150  0.5471  0.9149  0.1522
 8070TIP3    H145625   3.752   6.755  16.140  0.6271 -0.1246 -1.2316
 8070TIP3    H245626   3.861   6.667  16.196  0.7206  1.6538  1.4541
 8071TIP3   OH245627   4.455   2.507  16.061  0.7228  0.3114  0.6433
 8071TIP3    H145628   4.513   2.498  15.986  0.1969  0.6568  0.1885
 8071TIP3    H245629   4.410   2.423  16.068  2.4624 -0.5410  2.0085
 8072TIP3   OH245630   2.645   0.852   1.325  0.1873  0.1777 -0.2886
 8072TIP3    H145631   2.557   0.835   1.359  0.7676 -1.5377  0.4130
 8072TIP3    H245632   2.632   0.864   1.230 -0.6955 -1.0463 -0.3434
 8073TIP3   OH245633   3.504   2.630  17.148 -0.3712 -0.1858  0.4022
 8073TIP3    H145634   3.450   2.558  17.181  0.7352 -1.5725 -0.6760
 8073TIP3    H245635   3.576   2.637  17.211 -0.8321  0.4033  0.8545
 8074TIP3   OH245636   4.425   1.857  15.274  0.8342  0.0248 -0.5309
 8074TIP3    H145637   4.465   1.827  15.356  1.1941  0.2369 -0.6291
 8074TIP3    H245638   4.409   1.950  15.288  0.1874 -0.1061 -0.4156
 8075TIP3   OH245639   4.877   4.144  17.053 -0.2600 -0.0562 -0.4110
 8075TIP3    H145640   4.909   4.096  16.977 -0.0051 -0.3447 -0.1256
 8075TIP3    H245641   4.944   4.210  17.070 -0.3084 -0.0030 -0.4283
 8076TIP3   OH245642   1.305   3.452  12.955 -0.1751  0.1235 -0.0831
 8076TIP3    H145643   1.261   3.398  13.020  0.1064  1.4907  1.2523
 8076TIP3    H245644   1.305   3.540  12.992  1.9096  0.5194 -0.9300
 8077TIP3   OH245645   4.699   4.253  12.251 -0.1374 -0.4603 -0.4718
 8077TIP3    H145646   4.706   4.159  12.236  0.5012 -0.8642  2.1957
 8077TIP3    H245647   4.614   4.265  12.294  0.5227 -0.0279  0.7270
 8078TIP3   OH245648   2.404   0.325   1.899 -0.4193  0.2875  0.0050
 8078TIP3    H145649   2.400   0.280   1.815  1.1614  1.1850 -0.5644
 8078TIP3    H245650   2.333   0.390   1.894 -1.1324 -0.4982 -0.1311
 8079TIP3   OH245651   4.003   4.132   3.201  0.1047  0.7803  0.4000
 8079TIP3    H145652   4.037   4.202   3.145  0.4283  0.0776 -0.2885
 8079TIP3    H245653   3.911   4.154   3.213 -0.1211  0.6151 -0.9127
 8080TIP3   OH245654   4.020   4.846   1.147  0.3271 -0.1453 -0.5034
 8080TIP3    H145655   4.050   4.937   1.154 -0.3930  0.1708 -1.5019
 8080TIP3    H245656   4.094   4.799   1.109  1.0830 -0.1940  0.9791
 8081TIP3   OH245657   3.983   4.713  16.964  0.1672  0.5213  0.4298
 8081TIP3    H145658   3.969   4.655  16.889  0.6425 -0.3803  1.0327
 8081TIP3    H245659   4.035   4.786  16.929  0.5936 -0.0183 -0.0661
 8082TIP3   OH245660   2.229   3.215   4.243  0.7459 -0.0659  0.6178
 8082TIP3    H145661   2.135   3.198   4.239  0.5751  1.1477 -1.7788
 8082TIP3    H245662   2.269   3.143   4.194  0.9510  0.0794  0.5664
 8083TIP3   OH245663   4.671   2.225  12.670  0.0486 -0.3063 -0.8238
 8083TIP3    H145664   4.735   2.288  12.703  0.4547 -1.0710 -0.1445
 8083TIP3    H245665   4.590   2.275  12.661  0.8914  0.8266 -2.2916
 8084TIP3   OH245666   0.088   6.375  16.777 -0.1506 -0.4286 -0.0604
 8084TIP3    H145667   0.070   6.282  16.792 -1.7887 -0.2151 -0.5755
 8084TIP3    H245668   0.006   6.419  16.801  0.0574  0.7177 -1.4036
 8085TIP3   OH245669   6.350   5.962   2.326  0.4941  0.0446  0.3400
 8085TIP3    H145670   6.294   6.018   2.380  2.0236  1.8823  0.0780
 8085TIP3    H245671   6.438   5.979   2.358  1.0249 -2.0199  0.0283
 8086TIP3   OH245672   0.109   0.047  15.418 -0.9584 -0.5352  0.4794
 8086TIP3    H145673   0.043  -0.017  15.391 -0.4195 -1.2685  0.8654
 8086TIP3    H245674   0.188   0.022  15.369 -0.4496 -0.8414  1.4379
 8087TIP3   OH245675   0.012   0.964  13.238 -0.3211 -0.0573 -0.3534
 8087TIP3    H145676   0.075   0.956  13.166 -0.0480  2.7994 -0.4863
 8087TIP3    H245677  -0.072   0.939  13.199  0.1317 -0.3344 -1.1613
 8088TIP3   OH245678   1.128   6.602   2.020 -0.3088  0.0308  0.0694
 8088TIP3    H145679   1.118   6.636   1.931 -0.7770 -0.5892 -0.1203
 8088TIP3    H245680   1.218   6.624   2.044  0.1509 -0.6877 -0.9454
 8089TIP3   OH245681   2.538   3.846  16.592  0.0492  0.7267 -0.7007
 8089TIP3    H145682   2.612   3.905  16.608 -0.7223  1.4554  0.1942
 8089TIP3    H245683   2.490   3.843  16.674 -0.0323 -1.0240 -0.7889
 8090TIP3   OH245684   3.805   4.954   0.935  0.1803  0.0260 -0.1978
 8090TIP3    H145685   3.738   4.917   0.993 -0.1808  1.0409  0.0339
 8090TIP3    H245686   3.883   4.902   0.953 -0.4386 -0.9151 -0.1920
 8091TIP3   OH245687   3.931   6.469  14.453 -0.2344  0.0857  0.4155
 8091TIP3    H145688   3.983   6.394  14.424 -0.7299  0.0856 -0.4972
 8091TIP3    H245689   3.988   6.517  14.512  0.6308 -0.1898 -0.1914
 8092TIP3   OH245690   1.427   4.250   3.267 -0.9598 -0.0560 -0.2658
 8092TIP3    H145691   1.443   4.242   3.361  0.0660 -1.3266 -0.5392
 8092TIP3    H245692   1.513   4.266   3.229 -1.1793 -0.9002 -1.1301
 8093TIP3   OH245693   2.718   6.387  15.347 -0.5410 -0.1135  0.4001
 8093TIP3    H145694   2.751   6.456  15.404 -1.0928  1.2973 -0.9425
 8093TIP3    H245695   2.794   6.358  15.297 -0.3442 -0.3400  0.8368
 8094TIP3   OH245696   4.233   5.445   5.471  0.3882  0.2941 -0.0764
 8094TIP3    H145697   4.260   5.422   5.382 -0.2989  1.4038 -0.5866
 8094TIP3    H245698   4.258   5.537   5.480  0.3950  0.2028  0.8510
 8095TIP3   OH245699   2.512   5.938   2.196  0.2770  0.2924 -0.4156
 8095TIP3    H145700   2.592   5.982   2.166  1.1304 -0.8661  0.1495
 8095TIP3    H245701   2.537   5.846   2.205 -1.3992 -0.2558 -1.2177
 8096TIP3   OH245702   1.924   2.562   3.392  0.2436  0.1729  0.9041
 8096TIP3    H145703   1.918   2.622   3.466  0.4969  2.2775 -0.7375
 8096TIP3    H245704   2.016   2.536   3.389  0.2814  0.2787  1.1782
 8097TIP3   OH245705   5.643   2.430   2.035  0.0997  0.6203  0.3390
 8097TIP3    H145706   5.691   2.431   1.952  0.0563 -0.4722  0.2941
 8097TIP3    H245707   5.683   2.360   2.086  0.5923  1.7565  1.5435
 8098TIP3   OH245708   2.795   3.007  15.110 -0.2432  0.6684 -0.1570
 8098TIP3    H145709   2.838   2.944  15.053 -0.9993 -0.1986  0.2150
 8098TIP3    H245710   2.798   3.089  15.062 -2.6660 -0.4583 -2.3919
 8099TIP3   OH245711   2.778   6.091   0.293  0.5447  0.1361  0.2519
 8099TIP3    H145712   2.695   6.048   0.275  2.2016 -1.8808 -2.9512
 8099TIP3    H245713   2.761   6.142   0.372 -2.6499 -3.2093  1.9068
 8100TIP3   OH245714   2.979   5.160  15.066  0.0716  0.0054  0.8775
 8100TIP3    H145715   3.063   5.163  15.021 -0.0092 -0.4049  0.6966
 8100TIP3    H245716   2.953   5.252  15.073  0.5611  0.1360  0.9893
 8101TIP3   OH245717   5.593   3.904  12.648 -0.0382 -0.5132  0.3149
 8101TIP3    H145718   5.566   3.897  12.739 -0.4500 -0.6280  0.1858
 8101TIP3    H245719   5.520   3.949  12.605 -0.1396 -1.0414 -0.0831
 8102TIP3   OH245720   0.823   4.962   1.033 -0.4743  0.5101 -0.1833
 8102TIP3    H145721   0.905   4.926   1.001 -0.9637 -1.2434  0.4969
 8102TIP3    H245722   0.797   4.903   1.104 -2.0001  1.4094  0.0235
 8103TIP3   OH245723   0.657   4.867   2.885 -0.3429 -0.3370 -0.3054
 8103TIP3    H145724   0.569   4.903   2.880 -1.2518 -2.5584 -0.6901
 8103TIP3    H245725   0.665   4.836   2.975  0.1883  0.1445 -0.1777
 8104TIP3   OH245726   6.674   6.553  16.888 -0.4775  0.7961  0.7023
 8104TIP3    H145727   6.711   6.614  16.825 -1.2998  1.3745  0.7721
 8104TIP3    H245728   6.608   6.604  16.936 -2.5511 -0.6063 -0.5513
 8105TIP3   OH245729   4.600   4.641  15.375  0.0810  0.1204  0.3544
 8105TIP3    H145730   4.658   4.572  15.406 -0.3031  0.0041  0.8268
 8105TIP3    H245731   4.658   4.704  15.332  0.4991 -0.2130  0.4261
 8106TIP3   OH245732   5.221   2.272  16.943 -0.2581 -0.1880  0.6176
 8106TIP3    H145733   5.260   2.232  16.865 -1.0441  1.4475 -0.6595
 8106TIP3    H245734   5.294   2.286  17.002  0.7301  0.6298 -0.7710
 8107TIP3   OH245735   4.150   3.880   5.951 -0.0455 -0.0103  0.1361
 8107TIP3    H145736   4.136   3.966   5.990  3.4937  1.6199 -1.9463
 8107TIP3    H245737   4.215   3.838   6.008  0.2627 -0.2136 -0.3585
 8108TIP3   OH245738   2.898   2.283  12.874  0.0321  0.2632 -0.0681
 8108TIP3    H145739   2.821   2.329  12.841 -0.8076 -0.8243  0.3631
 8108TIP3    H245740   2.904   2.308  12.966 -0.9312 -1.1636  0.3885
 8109TIP3   OH245741   3.896   5.147  17.096  0.3636 -0.5182  0.0295
 8109TIP3    H145742   3.898   5.057  17.128  0.4303 -1.4098 -2.4080
 8109TIP3    H245743   3.985   5.180  17.111  0.4848 -1.0105  0.4265
 8110TIP3   OH245744   1.642   5.606   5.972 -0.6078  0.3140 -0.0342
 8110TIP3    H145745   1.613   5.641   6.057 -2.0990  1.8952 -1.1484
 8110TIP3    H245746   1.711   5.666   5.944  1.0268 -1.1552  0.7921
 8111TIP3   OH245747   4.024   2.379   4.999 -0.2275  0.3000 -0.2747
 8111TIP3    H145748   4.000   2.353   4.910 -0.5045 -0.4363  0.0095
 8111TIP3    H245749   3.942   2.374   5.048  0.3313 -1.5273  0.5301
 8112TIP3   OH245750   2.766   1.526   3.700 -0.2921 -0.5216 -0.0525
 8112TIP3    H145751   2.819   1.506   3.623 -0.8941  1.4349 -1.0241
 8112TIP3    H245752   2.806   1.605   3.736 -0.5559 -0.9216  1.1452
 8113TIP3   OH245753   2.944   6.169  11.397  0.3304  0.0640  0.5694
 8113TIP3    H145754   2.932   6.080  11.366 -2.5134  0.0381  1.5141
 8113TIP3    H245755   2.953   6.221  11.317 -4.1091 -0.3521 -0.3627
 8114TIP3   OH245756   2.481   2.695   3.249  0.6017 -0.1372  0.4079
 8114TIP3    H145757   2.504   2.742   3.329 -1.6525  0.9881  0.4302
 8114TIP3    H245758   2.496   2.759   3.178 -0.4861 -0.0605  0.2426
 8115TIP3   OH245759   2.811   6.568  11.937 -0.1194  0.2935  0.4523
 8115TIP3    H145760   2.786   6.481  11.906  0.6338  0.5365 -0.8590
 8115TIP3    H245761   2.821   6.621  11.857  0.8583  1.1972  1.1555
 8116TIP3   OH245762   3.578   1.540  16.695  0.6465  0.0174  0.3371
 8116TIP3    H145763   3.643   1.611  16.702  0.0520  0.5662  0.3414
 8116TIP3    H245764   3.525   1.548  16.775 -0.1412  0.2837 -0.2040
 8117TIP3   OH245765   5.746   6.631   3.611 -0.0241 -0.6159 -0.1288
 8117TIP3    H145766   5.698   6.572   3.670 -2.4603  0.5362 -0.9160
 8117TIP3    H245767   5.769   6.576   3.536  0.3628 -1.2960  0.4791
 8118TIP3   OH245768   1.116   1.198  13.182  0.6624  0.3956 -0.3840
 8118TIP3    H145769   1.160   1.282  13.172  1.1568 -0.1250 -2.8677
 8118TIP3    H245770   1.109   1.163  13.093  0.0569 -1.9918  0.5461
 8119TIP3   OH245771   0.183   2.579   5.271 -0.1848  0.3028 -0.4225
 8119TIP3    H145772   0.176   2.612   5.360 -2.0461 -0.8298 -0.1127
 8119TIP3    H245773   0.259   2.623   5.234  0.7769  0.5619  1.8189
 8120TIP3   OH245774   6.456   1.183  12.979  0.1681  0.4217 -0.3510
 8120TIP3    H145775   6.537   1.222  12.945  0.4760  0.1887  0.1183
 8120TIP3    H245776   6.458   1.202  13.073 -0.4829  0.7020 -0.3857
 8121TIP3   OH245777   6.654   4.376  15.728  0.6439 -0.0371 -0.0028
 8121TIP3    H145778   6.647   4.460  15.773 -1.5150 -0.4116  0.4015
 8121TIP3    H245779   6.699   4.397  15.646  0.1246  1.5210  0.0951
 8122TIP3   OH245780   0.314   1.547  13.638  0.4887 -0.5026  0.5379
 8122TIP3    H145781   0.255   1.475  13.613  1.7399 -1.7607  1.1106
 8122TIP3    H245782   0.256   1.620  13.657 -0.8875 -1.6608  0.8967
 8123TIP3   OH245783   3.818   4.549   3.106 -0.5818  0.2928  0.1841
 8123TIP3    H145784   3.747   4.582   3.050 -1.5565 -0.2647  1.0657
 8123TIP3    H245785   3.783   4.468   3.143 -0.3277  1.1640  2.3836
 8124TIP3   OH245786   4.694   2.479   1.901  1.1028 -0.3782  0.6940
 8124TIP3    H145787   4.627   2.513   1.961 -1.5242 -0.7422 -1.8962
 8124TIP3    H245788   4.661   2.392   1.876  1.4643  0.2454 -2.1770
 8125TIP3   OH245789   1.887   6.045   2.431  0.4030  0.8329 -0.0159
 8125TIP3    H145790   1.895   5.976   2.365 -0.5420  1.2654 -0.6075
 8125TIP3    H245791   1.796   6.039   2.461  0.3994  1.6174  0.1464
 8126TIP3   OH245792   4.977   4.862   3.084 -0.1378  0.4055 -0.5971
 8126TIP3    H145793   5.069   4.868   3.059  0.1357  1.8446  0.6893
 8126TIP3    H245794   4.968   4.775   3.123  0.1685 -0.5826 -2.6378
 8127TIP3   OH245795   5.393   6.438  16.179 -0.2305 -0.2926 -0.0329
 8127TIP3    H145796   5.480   6.479  16.184 -0.5800  0.2476  2.1772
 8127TIP3    H245797   5.343   6.496  16.122  0.3424  0.3817  0.1338
 8128TIP3   OH245798   4.232   0.021  10.914 -0.0538 -0.6166 -0.7436
 8128TIP3    H145799   4.252   0.111  10.939  2.6659 -1.1949 -0.7255
 8128TIP3    H245800   4.214   0.026  10.820 -2.5979  0.3258 -0.2582
 8129TIP3   OH245801   0.504   1.036   0.257 -0.1444  0.2508  0.4817
 8129TIP3    H145802   0.538   1.009   0.171 -3.6537  0.4157 -1.0331
 8129TIP3    H245803   0.533   0.966   0.316 -0.5661 -1.6716 -1.4825
 8130TIP3   OH245804   3.915   0.890   0.458  0.2069  0.2124 -0.0013
 8130TIP3    H145805   3.868   0.972   0.445 -1.7930 -0.5688  1.8540
 8130TIP3    H245806   3.871   0.827   0.401 -0.3924 -0.3012  1.0086
 8131TIP3   OH245807   0.244   2.050   3.526 -0.2295  0.4394 -0.0638
 8131TIP3    H145808   0.270   2.125   3.580  0.2177  0.6789 -0.6081
 8131TIP3    H245809   0.159   2.024   3.562 -0.7614  1.6940 -0.3500
 8132TIP3   OH245810   5.257   0.668  15.053  0.5557 -0.7626 -0.6428
 8132TIP3    H145811   5.331   0.729  15.053  0.9538 -1.2341 -0.1801
 8132TIP3    H245812   5.283   0.599  14.991 -0.3326  0.0442 -1.9445
 8133TIP3   OH245813   1.200   6.198   1.705  0.2037  0.1445  0.0235
 8133TIP3    H145814   1.290   6.229   1.694 -0.1897  1.0179 -0.7970
 8133TIP3    H245815   1.173   6.234   1.790  0.7501 -0.4114  0.4302
 8134TIP3   OH245816   2.303   3.295  12.721  0.5692  0.4364  0.4314
 8134TIP3    H145817   2.307   3.361  12.651  1.4940  1.7128  1.6466
 8134TIP3    H245818   2.371   3.232  12.698 -0.3838 -0.1589 -0.7972
 8135TIP3   OH245819   6.587   0.277   2.811  0.3778  0.1853 -0.0777
 8135TIP3    H145820   6.546   0.271   2.897  1.6181 -0.3475  0.4800
 8135TIP3    H245821   6.638   0.197   2.803  1.3963  0.8930 -0.7286
 8136TIP3   OH245822   5.482   3.675  17.043 -0.4256 -0.0250 -0.3653
 8136TIP3    H145823   5.426   3.598  17.033 -0.8441  0.2040  0.2332
 8136TIP3    H245824   5.475   3.720  16.959 -1.8382  0.4709  0.0142
 8137TIP3   OH245825   1.050   6.580  15.611 -0.2526 -0.1176  0.1609
 8137TIP3    H145826   1.087   6.652  15.560 -0.7637 -1.7413 -2.5977
 8137TIP3    H245827   0.964   6.565  15.572 -0.2689 -2.0330  0.8813
 8138TIP3   OH245828   5.543   5.617   4.005 -0.2132 -0.3904  0.3574
 8138TIP3    H145829   5.594   5.692   3.975  2.1553 -0.9460  2.8092
 8138TIP3    H245830   5.584   5.542   3.963 -0.5431 -0.6428  0.4826
 8139TIP3   OH245831   1.811   1.274   5.195 -0.9320  0.3615 -0.0940
 8139TIP3    H145832   1.771   1.211   5.135 -0.3053  0.7718 -0.9549
 8139TIP3    H245833   1.782   1.246   5.282  0.1387 -1.7192 -0.3736
 8140TIP3   OH245834   4.255   3.006  15.526  0.2725  0.3296  0.3703
 8140TIP3    H145835   4.298   2.968  15.449 -0.2789 -0.3271  0.3823
 8140TIP3    H245836   4.168   3.031  15.494  0.6555  1.6472  0.3454
 8141TIP3   OH245837   0.575   3.396   0.515  0.2307  0.0554 -0.1507
 8141TIP3    H145838   0.624   3.371   0.593 -0.6680 -0.8670  0.1221
 8141TIP3    H245839   0.483   3.384   0.539 -0.1245  1.4569 -0.7662
 8142TIP3   OH245840   1.650   6.618   2.773  0.6089  0.2884 -0.0518
 8142TIP3    H145841   1.611   6.640   2.689 -0.4590 -0.6336  0.1883
 8142TIP3    H245842   1.727   6.675   2.780  1.3308 -0.3890 -2.1183
 8143TIP3   OH245843   3.342   3.769  16.435 -0.3111 -0.7715 -0.0677
 8143TIP3    H145844   3.350   3.674  16.423  0.5107 -0.6999 -0.1132
 8143TIP3    H245845   3.431   3.798  16.454 -1.0411 -0.4582  3.1861
 8144TIP3   OH245846   1.349   4.100  15.220 -0.0311 -0.0316 -0.0714
 8144TIP3    H145847   1.384   4.027  15.169  0.6640 -0.3888  0.8924
 8144TIP3    H245848   1.423   4.128  15.274 -0.8747  0.0606  1.0494
 8145TIP3   OH245849   0.180   0.270   2.056 -0.4160 -0.3163 -0.6750
 8145TIP3    H145850   0.231   0.253   2.136  0.0805 -0.8792 -1.1098
 8145TIP3    H245851   0.114   0.334   2.084 -0.9704 -1.3654  0.4591
 8146TIP3   OH245852   3.987   2.851  15.528 -0.0106 -0.4026  0.1631
 8146TIP3    H145853   3.992   2.840  15.433 -0.5170 -0.1609  0.1107
 8146TIP3    H245854   3.934   2.930  15.541 -1.0992 -1.2081  0.6748
 8147TIP3   OH245855   3.892   0.498  11.915 -0.0645  0.4562  0.0929
 8147TIP3    H145856   3.854   0.583  11.891 -0.2778  0.4888  0.5370
 8147TIP3    H245857   3.939   0.515  11.997  2.3070  0.7925 -1.2888
 8148TIP3   OH245858   6.758   2.059  15.074 -0.0167  0.5411 -0.2522
 8148TIP3    H145859   6.738   2.148  15.047 -2.4878  0.2315  0.4112
 8148TIP3    H245860   6.747   2.006  14.995  2.8020  0.9944 -0.9636
 8149TIP3   OH245861   4.169   2.200   0.198 -0.0955 -0.0331  0.1707
 8149TIP3    H145862   4.254   2.159   0.181 -1.0672 -1.2998 -1.8040
 8149TIP3    H245863   4.188   2.293   0.208  1.8896 -0.6479  2.6462
 8150TIP3   OH245864   0.194   1.101  11.302  0.1995  0.7711  0.0505
 8150TIP3    H145865   0.231   1.022  11.263  0.8458  0.3183  1.5674
 8150TIP3    H245866   0.269   1.151  11.333 -0.3676  0.3915  2.1082
 8151TIP3   OH245867   4.249   0.291  13.062  0.0344 -0.1802  0.1784
 8151TIP3    H145868   4.220   0.371  13.018  0.8037  1.3198  2.3358
 8151TIP3    H245869   4.344   0.298  13.064  0.0476 -0.6566  1.3206
 8152TIP3   OH245870   2.960   3.023  16.926 -0.0453  0.4704  0.7372
 8152TIP3    H145871   2.997   3.071  17.000  0.0852  0.6731  0.5386
 8152TIP3    H245872   3.035   2.992  16.877 -0.0192 -3.6388  3.1802
 8153TIP3   OH245873   4.058   0.423  12.184 -0.1146  0.1338  0.0899
 8153TIP3    H145874   3.994   0.491  12.204  0.3502  0.0774  1.8204
 8153TIP3    H245875   4.056   0.365  12.260  1.0931 -0.5542 -0.3973
 8154TIP3   OH245876   1.242   2.845  11.699 -0.0740 -0.8894 -0.0321
 8154TIP3    H145877   1.309   2.795  11.746  0.4316  0.5820  0.8500
 8154TIP3    H245878   1.265   2.937  11.715 -1.7154 -0.3647 -0.5596
 8155TIP3   OH245879   1.807   4.021  16.140  0.4041 -0.1088  0.5494
 8155TIP3    H145880   1.765   4.047  16.223 -2.6892  0.4980 -1.1129
 8155TIP3    H245881   1.805   3.926  16.141  0.1320 -0.1036  1.0751
 8156TIP3   OH245882   5.937   6.369   1.321  0.7541 -0.1955 -0.0849
 8156TIP3    H145883   6.001   6.430   1.286  0.2913 -0.2324 -1.0016
 8156TIP3    H245884   5.989   6.304   1.369  1.5737 -1.2311 -2.2961
 8157TIP3   OH245885   1.321   5.738  16.529  0.3108 -0.7618 -0.1307
 8157TIP3    H145886   1.356   5.825  16.512 -3.9443  1.9458  3.8543
 8157TIP3    H245887   1.287   5.709  16.444  0.6116  2.0149 -1.2557
 8158TIP3   OH245888   3.657   1.878   3.599  0.2881 -0.4870 -0.0204
 8158TIP3    H145889   3.682   1.869   3.507  0.2595 -1.4394  0.0592
 8158TIP3    H245890   3.600   1.955   3.601  0.5518 -0.2679 -0.7440
 8159TIP3   OH245891   4.079   0.217  14.576  0.1800 -0.1484 -0.1689
 8159TIP3    H145892   4.150   0.156  14.558  0.0022 -1.1080  2.1873
 8159TIP3    H245893   4.100   0.254  14.662 -0.3616  2.2023 -0.9955
 8160TIP3   OH245894   3.879   1.299   5.620 -0.2729  0.4177  0.2328
 8160TIP3    H145895   3.923   1.230   5.571 -0.7296  0.6694 -0.5629
 8160TIP3    H245896   3.939   1.373   5.616 -0.5351  0.6052 -0.4257
 8161TIP3   OH245897   5.249   5.237   5.524  0.5428 -0.2402 -0.4829
 8161TIP3    H145898   5.296   5.320   5.508 -1.8117  0.5113 -4.0219
 8161TIP3    H245899   5.170   5.263   5.571  0.0081 -0.5046 -1.2250
 8162TIP3   OH245900   4.060   1.027  14.247 -0.4193 -0.5539  0.2438
 8162TIP3    H145901   4.054   1.071  14.332 -0.0788  0.5416 -0.2823
 8162TIP3    H245902   3.977   1.048  14.204 -0.2052 -0.3241 -0.0581
 8163TIP3   OH245903   5.855   5.967   0.299  0.2400  0.1377 -0.2317
 8163TIP3    H145904   5.912   6.044   0.298  1.4316 -0.7030  1.1763
 8163TIP3    H245905   5.816   5.965   0.212 -0.0917  2.5372 -0.1853
 8164TIP3   OH245906   6.083   4.175   5.960  0.5867 -0.1705 -0.3408
 8164TIP3    H145907   6.014   4.130   6.009  0.9598  1.8882  2.2057
 8164TIP3    H245908   6.096   4.121   5.883 -2.8124 -1.4373 -0.1443
 8165TIP3   OH245909   5.007   0.629  15.187  0.1617 -0.9803 -0.7478
 8165TIP3    H145910   5.085   0.614  15.134  0.7646 -0.7636  0.0781
 8165TIP3    H245911   4.998   0.724  15.191 -0.7812 -1.0118 -1.7575
 8166TIP3   OH245912   1.406   3.965   6.466  0.1848  0.2345 -0.1375
 8166TIP3    H145913   1.382   3.881   6.428  0.6588 -0.1223  0.3611
 8166TIP3    H245914   1.498   3.977   6.442 -0.5208  1.7276 -2.2791
 8167TIP3   OH245915   2.092   4.517   5.610  0.9482  0.0154  0.1250
 8167TIP3    H145916   2.181   4.515   5.645  0.3769 -1.0590  1.5796
 8167TIP3    H245917   2.053   4.434   5.638 -0.6615  0.6738 -0.0861
 8168TIP3   OH245918   5.030   3.220   5.404  0.6092 -0.2989 -0.1810
 8168TIP3    H145919   5.045   3.313   5.386  0.1921 -0.2874 -0.4882
 8168TIP3    H245920   4.989   3.186   5.324 -1.3080 -0.2338  0.7265
 8169TIP3   OH245921   5.371   3.362  10.728  0.5641 -0.1856  0.5833
 8169TIP3    H145922   5.306   3.408  10.781 -0.0876 -1.5788  1.0258
 8169TIP3    H245923   5.380   3.276  10.770  1.6103 -0.5436 -0.3323
 8170TIP3   OH245924   6.531   6.331   4.978 -0.0316  1.0339 -0.0706
 8170TIP3    H145925   6.494   6.411   4.942  0.1474  1.1782  0.0665
 8170TIP3    H245926   6.575   6.359   5.059  0.5156  0.8899 -0.3159
 8171TIP3   OH245927   2.425   4.262   1.409 -0.4318 -0.2859  0.1962
 8171TIP3    H145928   2.374   4.189   1.446 -0.9734 -0.2964 -0.5532
 8171TIP3    H245929   2.359   4.319   1.370 -0.0899  1.0893  1.5668
 8172TIP3   OH245930   5.314   5.768  12.069 -0.0625  0.3522  0.4299
 8172TIP3    H145931   5.257   5.796  11.997 -0.6645 -0.1939  0.6931
 8172TIP3    H245932   5.265   5.698  12.112  1.5874 -1.3910 -0.4726
 8173TIP3   OH245933   4.540   0.260  14.959  0.0157  0.1199  0.1149
 8173TIP3    H145934   4.494   0.337  14.925 -0.5830  0.0681  0.7980
 8173TIP3    H245935   4.629   0.268  14.925 -0.0971  1.0099  0.0284
 8174TIP3   OH245936   5.674   3.692  14.518 -0.7827 -1.2203  0.3017
 8174TIP3    H145937   5.735   3.631  14.560  1.1977  0.5335  0.0207
 8174TIP3    H245938   5.683   3.674  14.424  0.3808  0.0106  0.1673
 8175TIP3   OH245939   6.021   1.358  12.915  0.6077  0.1257 -0.5523
 8175TIP3    H145940   6.109   1.394  12.926  0.6112 -0.3807  1.3863
 8175TIP3    H245941   6.007   1.305  12.994 -0.8709 -0.9927 -1.5315
 8176TIP3   OH245942   4.211   0.084   6.597 -0.2566  0.2179  0.2224
 8176TIP3    H145943   4.158   0.007   6.576  0.0753  0.0135  0.1281
 8176TIP3    H245944   4.276   0.052   6.659 -1.3496  0.8672  1.7268
 8177TIP3   OH245945   2.417   3.699   1.536 -0.1474  0.5297 -0.2472
 8177TIP3    H145946   2.433   3.631   1.470 -1.8930  0.8668 -1.0393
 8177TIP3    H245947   2.472   3.773   1.508  0.3525  0.1055 -0.4009
 8178TIP3   OH245948   5.992   3.681   6.110  0.6159  0.0499  0.1824
 8178TIP3    H145949   6.024   3.685   6.020  1.0623  1.6191  0.3880
 8178TIP3    H245950   6.044   3.612   6.152  1.6854  0.5569 -0.2872
 8179TIP3   OH245951   1.961   5.611  13.788  0.1544 -0.7702 -0.3176
 8179TIP3    H145952   1.969   5.518  13.768  0.0191 -0.8594  0.0389
 8179TIP3    H245953   2.010   5.655  13.718  0.4295 -1.1191 -0.3464
 8180TIP3   OH245954   2.329   1.168   5.330  0.7693 -0.2441  0.3983
 8180TIP3    H145955   2.323   1.169   5.235 -0.5531 -0.2410  0.4723
 8180TIP3    H245956   2.242   1.141   5.360  1.5114 -1.3793  1.5760
 8181TIP3   OH245957   5.465   4.163  11.223  0.3730 -0.4312  0.2862
 8181TIP3    H145958   5.514   4.128  11.297  0.6099  3.2313  1.9738
 8181TIP3    H245959   5.523   4.231  11.187 -0.4085 -1.1034 -2.3067
 8182TIP3   OH245960   0.138   2.434  16.346 -0.3943  0.4940 -0.3311
 8182TIP3    H145961   0.053   2.456  16.384 -0.0894 -0.2361  0.8070
 8182TIP3    H245962   0.164   2.512  16.298 -0.7868  1.4734  1.0119
 8183TIP3   OH245963   0.287   4.633  16.504  0.3276  0.1299 -0.2305
 8183TIP3    H145964   0.341   4.688  16.560 -0.3909  0.1008  0.5116
 8183TIP3    H245965   0.218   4.691  16.473  0.2662 -0.0488 -0.4261
 8184TIP3   OH245966   2.236   0.674   0.304 -1.2157 -0.2727  0.6500
 8184TIP3    H145967   2.204   0.736   0.239  1.6642 -0.4944 -1.0409
 8184TIP3    H245968   2.162   0.615   0.320 -2.3649  0.5432 -1.4976
 8185TIP3   OH245969   2.132   2.323   1.598  0.2562  0.3205  0.9846
 8185TIP3    H145970   2.092   2.380   1.532  0.4106  1.1641  1.6180
 8185TIP3    H245971   2.125   2.372   1.680 -0.5312 -0.9959  1.7248
 8186TIP3   OH245972   0.661   6.181  15.681 -1.0249 -0.0017  0.1342
 8186TIP3    H145973   0.751   6.150  15.688 -1.6134 -1.9855 -0.5961
 8186TIP3    H245974   0.649   6.200  15.588 -1.2252  0.7423  0.3058
 8187TIP3   OH245975   2.483   3.963  14.397 -0.1797  0.0870  0.6747
 8187TIP3    H145976   2.487   3.992  14.488  0.0858  0.6674  0.4778
 8187TIP3    H245977   2.492   3.867  14.402  1.2833  0.2394  1.1595
 8188TIP3   OH245978   3.722   0.108  12.499  0.0544  0.2307 -0.4242
 8188TIP3    H145979   3.723   0.162  12.420  0.0696 -1.1135 -1.3658
 8188TIP3    H245980   3.774   0.032  12.477 -1.6384 -1.1423  0.1591
 8189TIP3   OH245981   5.600   3.707  15.007 -0.2013 -0.2802 -0.4387
 8189TIP3    H145982   5.547   3.756  15.070  0.6354  0.9727 -0.6752
 8189TIP3    H245983   5.538   3.676  14.942 -0.4096  3.0538 -1.9114
 8190TIP3   OH245984   0.628   0.276   1.702 -0.5323 -0.1960  0.6028
 8190TIP3    H145985   0.600   0.364   1.676 -1.5932 -0.6303  0.2220
 8190TIP3    H245986   0.620   0.275   1.797  1.2536  0.6987  0.7841
 8191TIP3   OH245987   2.119   3.083  13.456  0.5589 -0.1613 -0.2781
 8191TIP3    H145988   2.147   3.019  13.521  0.4951  0.3836  0.2923
 8191TIP3    H245989   2.032   3.055  13.429  0.6312 -0.4507 -0.2039
 8192TIP3   OH245990   6.068   2.776  15.992 -0.0474 -0.3418 -0.0947
 8192TIP3    H145991   6.147   2.788  15.939 -0.3588 -1.7446 -0.8830
 8192TIP3    H245992   6.086   2.825  16.072  0.3819  1.9198 -1.5176
 8193TIP3   OH245993   4.480   0.848  16.050  0.4586 -0.4584 -0.1244
 8193TIP3    H145994   4.488   0.775  16.110  2.7459 -1.1786 -1.2500
 8193TIP3    H245995   4.562   0.849  16.002 -0.0632  2.0394 -1.0593
 8194TIP3   OH245996   2.481   5.772  15.842 -0.6092  0.5313  0.1696
 8194TIP3    H145997   2.508   5.849  15.792 -0.7984 -0.3511 -1.3229
 8194TIP3    H245998   2.537   5.701  15.811 -0.4246  0.0467  1.5455
 8195TIP3   OH245999   5.740   6.697   4.188 -0.0879  0.1705 -0.0739
 8195TIP3    H146000   5.733   6.608   4.222 -1.1582 -0.2636 -1.3545
 8195TIP3    H246001   5.783   6.686   4.103  1.1972  1.0586  0.4528
 8196TIP3   OH246002   0.184   3.269   0.955  0.1783  0.1857  0.4973
 8196TIP3    H146003   0.106   3.266   0.900  0.7598  0.4161 -0.3483
 8196TIP3    H246004   0.242   3.204   0.918  0.0026 -0.7074  1.7466
 8197TIP3   OH246005   5.759   4.023   3.345 -0.4611  0.6103 -0.0341
 8197TIP3    H146006   5.755   4.116   3.363  0.6718  1.0159 -1.6906
 8197TIP3    H246007   5.819   4.016   3.270  1.8435 -1.7060  1.9311
 8198TIP3   OH246008   6.716   2.101  10.879  0.4742 -0.4266 -0.0936
 8198TIP3    H146009   6.723   2.011  10.913  0.0367 -0.6860 -0.6868
 8198TIP3    H246010   6.749   2.095  10.789  1.2936  0.1904  0.1517
 8199TIP3   OH246011   2.772   0.392   5.240 -0.3143  0.0544 -0.2283
 8199TIP3    H146012   2.836   0.331   5.277 -1.7325 -1.2524  0.0934
 8199TIP3    H246013   2.819   0.436   5.169  1.0333 -0.6657  0.2002
 8200TIP3   OH246014   1.040   1.471   4.828  0.3153 -0.0764  0.5044
 8200TIP3    H146015   1.109   1.475   4.894 -1.0099 -1.3595  1.9881
 8200TIP3    H246016   0.962   1.505   4.872 -0.7103 -1.4651 -0.1966
 8201TIP3   OH246017   0.195   2.498  12.478  0.2233  0.6534  0.0421
 8201TIP3    H146018   0.133   2.556  12.434 -1.2822 -0.8873  0.0753
 8201TIP3    H246019   0.160   2.489  12.566 -0.6783 -1.8119 -0.5113
 8202TIP3   OH246020   2.940   3.885   2.163  0.1528  0.5995  0.0265
 8202TIP3    H146021   2.965   3.855   2.250 -0.5644  0.2228  0.1030
 8202TIP3    H246022   2.964   3.813   2.105 -1.3116 -0.0184  0.1754
 8203TIP3   OH246023   3.055   0.185  16.711 -0.2749  0.3063 -0.3352
 8203TIP3    H146024   2.984   0.154  16.654 -0.2459  0.3565 -0.3993
 8203TIP3    H246025   3.013   0.247  16.770 -0.3375  0.1289 -0.1936
 8204TIP3   OH246026   2.830   1.484  10.994 -0.7389  0.4202 -0.2565
 8204TIP3    H146027   2.814   1.509  10.903  1.5170 -1.1654 -1.1371
 8204TIP3    H246028   2.777   1.405  11.006  2.1616 -1.7983 -1.5445
 8205TIP3   OH246029   2.568   0.216  16.697 -0.4452  0.0353 -0.0101
 8205TIP3    H146030   2.631   0.166  16.644  0.4522 -2.9592  3.6554
 8205TIP3    H246031   2.484   0.176  16.677 -0.2849 -0.2502 -0.1233
 8206TIP3   OH246032   0.729   2.625   1.136  0.2343 -0.3653 -0.0341
 8206TIP3    H146033   0.671   2.578   1.196 -0.3946  0.1637 -0.2229
 8206TIP3    H246034   0.802   2.652   1.190  1.4908 -3.0828 -0.2770
 8207TIP3   OH246035   1.220   3.180  11.440  0.0205 -0.7325  0.3203
 8207TIP3    H146036   1.234   3.134  11.523  1.9464 -1.2565 -0.2564
 8207TIP3    H246037   1.304   3.223  11.422 -1.0406  1.1263 -0.3157
 8208TIP3   OH246038   3.536   5.839   2.381  0.1899  0.2504  0.7438
 8208TIP3    H146039   3.494   5.833   2.295  2.4493  0.2287 -0.4013
 8208TIP3    H246040   3.559   5.749   2.404  1.8021  0.5105  0.2074
 8209TIP3   OH246041   5.332   1.366  12.060  0.2582  0.1336  0.9558
 8209TIP3    H146042   5.400   1.345  12.125  0.4320  1.5955  1.2562
 8209TIP3    H246043   5.272   1.425  12.106 -0.1310  0.4226  0.0846
 8210TIP3   OH246044   3.997   2.435  11.935 -0.1159 -0.0679 -0.2988
 8210TIP3    H146045   4.044   2.481  11.866  2.2575  0.8110  1.8289
 8210TIP3    H246046   4.051   2.358  11.954 -1.1253 -0.6912  0.0768
 8211TIP3   OH246047   3.087   0.029   2.019  0.0982  0.1935 -0.7416
 8211TIP3    H146048   3.077   0.121   2.043  2.8248  0.7919 -1.6658
 8211TIP3    H246049   3.118  -0.014   2.099  2.5883  0.8673 -1.3051
 8212TIP3   OH246050   3.193   1.932   0.762  0.4517 -0.2228 -0.0585
 8212TIP3    H146051   3.175   2.014   0.808 -0.8192  0.7102 -2.1106
 8212TIP3    H246052   3.111   1.883   0.768  1.2214 -1.3862  1.1926
 8213TIP3   OH246053   3.729   0.151   0.131 -0.6002 -0.0284 -0.0648
 8213TIP3    H146054   3.805   0.191   0.172 -1.6025 -0.7130  2.5451
 8213TIP3    H246055   3.766   0.096   0.062  1.1272  1.1202 -0.0881
 8214TIP3   OH246056   2.577   0.295   5.649  0.5392  0.1660 -0.8841
 8214TIP3    H146057   2.514   0.229   5.621  0.0344  0.0944  0.4064
 8214TIP3    H246058   2.621   0.256   5.725  1.2539  0.7308 -0.9949
 8215TIP3   OH246059   4.996   2.014  12.032  0.1229 -0.0485 -0.4101
 8215TIP3    H146060   5.022   2.058  11.951  0.0287 -0.4456 -0.6533
 8215TIP3    H246061   4.902   1.999  12.023  0.2960 -0.9911 -0.6514
 8216TIP3   OH246062   5.304   5.058  12.387 -0.1808 -0.2103 -0.2279
 8216TIP3    H146063   5.276   5.031  12.475  2.6864  1.0702  1.1228
 8216TIP3    H246064   5.339   5.146  12.399 -0.5896  0.3296 -2.8477
 8217TIP3   OH246065   1.889   0.665   1.017  0.3292 -0.0288  0.4046
 8217TIP3    H146066   1.932   0.623   1.092  3.0818  0.1829 -0.9890
 8217TIP3    H246067   1.961   0.693   0.961 -1.6712  0.2077 -2.1281
 8218TIP3   OH246068   5.878   3.095   3.711  0.4475 -0.3385  0.2086
 8218TIP3    H146069   5.918   3.084   3.624  1.1317 -1.4415  0.6533
 8218TIP3    H246070   5.833   3.179   3.706 -1.5306 -1.4775 -2.0109
 8219TIP3   OH246071   0.593   2.768  14.725  0.6006  0.1397 -0.2517
 8219TIP3    H146072   0.655   2.694  14.724  1.4316  0.8379 -1.0714
 8219TIP3    H246073   0.641   2.840  14.685  0.0813  1.3678  1.2644
 8220TIP3   OH246074   2.922   4.367   4.989 -0.4953 -0.1536  0.2859
 8220TIP3    H146075   2.883   4.391   4.905 -0.7912 -0.0552  0.4503
 8220TIP3    H246076   2.848   4.358   5.048 -0.2210  0.7147  0.7766
 8221TIP3   OH246077   3.980   0.037   0.954 -0.3987 -0.4799  0.1098
 8221TIP3    H146078   3.911  -0.025   0.930 -1.7021  0.8024  0.5010
 8221TIP3    H246079   4.006   0.076   0.870  0.9812 -2.0853 -0.2450
 8222TIP3   OH246080   5.755   2.956  13.995 -0.2274 -0.4882 -0.3172
 8222TIP3    H146081   5.779   2.868  13.965  0.9860 -0.4463  0.4817
 8222TIP3    H246082   5.721   2.999  13.917  2.3909 -0.5564 -1.5566
 8223TIP3   OH246083   2.692   4.385  12.493 -0.1958 -0.2676  0.2494
 8223TIP3    H146084   2.661   4.474  12.512 -1.3452 -0.2248 -1.6828
 8223TIP3    H246085   2.775   4.398  12.446  0.1871 -0.2580  0.9191
 8224TIP3   OH246086   3.857   1.582   3.805  0.2929  0.1633  0.3223
 8224TIP3    H146087   3.862   1.678   3.806 -3.4346  0.4594 -1.0708
 8224TIP3    H246088   3.863   1.558   3.713 -1.1902 -0.7368  0.4365
 8225TIP3   OH246089   6.351   2.861  14.333  0.1779 -0.5655 -0.5926
 8225TIP3    H146090   6.359   2.847  14.239  1.8855  0.1619 -0.5598
 8225TIP3    H246091   6.416   2.802  14.372 -0.3509 -0.6821  0.1246
 8226TIP3   OH246092   0.254   5.698   3.946 -0.3509 -0.2922 -0.9393
 8226TIP3    H146093   0.283   5.778   3.991 -0.9831  1.5033 -3.5993
 8226TIP3    H246094   0.334   5.646   3.937 -0.0574 -0.3260  1.4581
 8227TIP3   OH246095   6.507   1.528  11.644 -0.4781 -0.3206  1.0782
 8227TIP3    H146096   6.581   1.473  11.619 -1.2637 -1.2615  0.7843
 8227TIP3    H246097   6.535   1.617  11.623  0.5001 -0.6876  0.8025
 8228TIP3   OH246098   0.299   1.407  13.988 -0.1549  0.1544 -0.0363
 8228TIP3    H146099   0.380   1.449  13.959  0.5562 -1.0540  0.1490
 8228TIP3    H246100   0.244   1.479  14.020 -0.4220  1.3419 -3.0715
 8229TIP3   OH246101   4.605   5.497  14.202  0.7604 -0.2349 -0.7264
 8229TIP3    H146102   4.550   5.458  14.134  0.1687 -1.0817  0.2217
 8229TIP3    H246103   4.678   5.436  14.212 -0.5875 -1.5861  1.3387
 8230TIP3   OH246104   1.692   2.177   3.845 -0.0879  0.4052  0.2563
 8230TIP3    H146105   1.759   2.190   3.779 -1.7797 -0.4323 -1.6708
 8230TIP3    H246106   1.667   2.266   3.872  0.5125  0.7514 -0.3196
 8231TIP3   OH246107   5.959   6.494  10.835 -0.1058  0.1404 -0.4129
 8231TIP3    H146108   5.996   6.415  10.795 -0.2734  0.6588 -1.5971
 8231TIP3    H246109   6.024   6.520  10.901 -0.3101 -1.2944  0.3928
 8232TIP3   OH246110   1.710   3.889   1.694  0.2210 -0.7202  0.1291
 8232TIP3    H146111   1.694   3.802   1.729  0.7059 -0.3654  1.2720
 8232TIP3    H246112   1.723   3.944   1.772 -0.0766  0.3648 -0.5731
 8233TIP3   OH246113   6.277   5.742   5.740  0.2450 -0.1459  0.8075
 8233TIP3    H146114   6.275   5.793   5.821  3.6025  1.3280  0.0637
 8233TIP3    H246115   6.300   5.653   5.769  0.5123  0.1690  1.5832
 8234TIP3   OH246116   0.283   5.770   3.334 -0.0855 -0.2933 -0.0524
 8234TIP3    H146117   0.265   5.708   3.264 -0.8940 -1.2705  1.0126
 8234TIP3    H246118   0.274   5.719   3.415  0.8590  0.8115  0.7629
 8235TIP3   OH246119   2.428   0.378  14.730  0.1657  0.2227  1.0077
 8235TIP3    H146120   2.452   0.287  14.747  0.4026  0.0315 -0.2404
 8235TIP3    H246121   2.348   0.392  14.779 -0.8968 -1.2285 -0.2640
 8236TIP3   OH246122   0.140   6.026  17.079  0.0484 -0.3878 -0.0035
 8236TIP3    H146123   0.126   6.021  17.173 -1.2298  0.0562 -0.1577
 8236TIP3    H246124   0.216   6.082  17.068 -0.3406  0.2882  0.7295
 8237TIP3   OH246125   6.645   1.897  13.533 -0.0386 -0.2352 -0.6656
 8237TIP3    H146126   6.738   1.920  13.531 -0.7750  2.7419 -3.0866
 8237TIP3    H246127   6.599   1.981  13.531 -2.8230 -1.7176 -1.2186
 8238TIP3   OH246128   2.826   0.832  14.152 -0.4443  0.1601 -0.4124
 8238TIP3    H146129   2.828   0.817  14.246 -1.2023 -0.0442 -0.4217
 8238TIP3    H246130   2.736   0.811  14.127 -0.6689  1.6860 -0.9338
 8239TIP3   OH246131   2.352   5.833   1.548 -0.2677  0.2530 -0.4021
 8239TIP3    H146132   2.438   5.794   1.566 -0.5356 -0.9674 -1.7511
 8239TIP3    H246133   2.373   5.911   1.496  0.0144 -0.0688 -0.7729
 8240TIP3   OH246134   0.726   2.111   2.360  0.3995 -0.3301 -0.2434
 8240TIP3    H146135   0.798   2.080   2.305  1.9017  1.4916  0.6500
 8240TIP3    H246136   0.755   2.196   2.392 -0.8136 -0.9572  2.6548
 8241TIP3   OH246137   6.290   0.432   3.223 -0.0236 -0.0368  0.4273
 8241TIP3    H146138   6.285   0.404   3.314  1.1161  4.0403  1.8476
 8241TIP3    H246139   6.200   0.427   3.191 -0.8084  0.6207  2.4639
 8242TIP3   OH246140   3.692   3.265   2.982  0.0208 -0.2551  0.0407
 8242TIP3    H146141   3.711   3.242   3.073 -1.1513 -1.1181  0.0717
 8242TIP3    H246142   3.728   3.193   2.931 -0.4379 -0.3957 -0.0901
 8243TIP3   OH246143   6.787   4.334   3.574 -0.6918 -0.1696  0.2472
 8243TIP3    H146144   6.726   4.385   3.628  0.7722 -0.1476  1.9155
 8243TIP3    H246145   6.872   4.373   3.591  0.0994 -1.5710 -0.4157
 8244TIP3   OH246146   5.236   1.674  15.729 -0.2470 -0.1095 -0.1824
 8244TIP3    H146147   5.284   1.757  15.729  0.7078 -0.6560  1.6060
 8244TIP3    H246148   5.249   1.640  15.640 -0.4768  1.5327 -0.8820
 8245TIP3   OH246149   3.156   4.278  13.643  0.0401  0.6887  0.5798
 8245TIP3    H146150   3.122   4.255  13.557 -0.5735 -2.2133  1.5592
 8245TIP3    H246151   3.239   4.322  13.625  0.3554 -0.6889 -1.4602
 8246TIP3   OH246152   0.468   4.376   4.529  0.3331  0.2986  0.2617
 8246TIP3    H146153   0.542   4.364   4.589  0.1631  0.6796  0.5521
 8246TIP3    H246154   0.444   4.288   4.503  1.5241  0.2197 -0.6178
 8247TIP3   OH246155   5.123   0.118   5.129 -0.6909 -0.2642  0.2612
 8247TIP3    H146156   5.199   0.078   5.086 -0.1185  0.5534  0.5005
 8247TIP3    H246157   5.077   0.044   5.169  0.0734 -0.7447  0.2730
 8248TIP3   OH246158   1.368   6.283   1.139  0.3219  0.2730 -0.6096
 8248TIP3    H146159   1.420   6.354   1.175 -2.0454  2.5649 -1.5984
 8248TIP3    H246160   1.312   6.255   1.212  3.1417 -2.5684  0.6251
 8249TIP3   OH246161   0.748   4.381   2.118  0.5689 -0.2204 -0.3641
 8249TIP3    H146162   0.834   4.385   2.159  0.5441  0.9380 -0.4045
 8249TIP3    H246163   0.722   4.473   2.107 -0.9134 -0.5631  0.1508
 8250TIP3   OH246164   2.770   5.804  12.067 -0.1727  0.3330  0.2511
 8250TIP3    H146165   2.856   5.809  12.107 -0.5960  0.0717  1.2120
 8250TIP3    H246166   2.782   5.745  11.992  0.9380  1.9602 -0.8865
 8251TIP3   OH246167   0.373   2.898  12.142  0.5187 -0.4880 -0.3043
 8251TIP3    H146168   0.317   2.957  12.194  2.6761  0.5082  0.9669
 8251TIP3    H246169   0.348   2.915  12.052 -0.6315  0.5790  0.1898
 8252TIP3   OH246170   6.106   1.954  14.650  0.5363 -0.2747 -0.8833
 8252TIP3    H146171   6.093   2.012  14.575 -1.8105  0.4101  0.0100
 8252TIP3    H246172   6.068   2.002  14.724  0.0478 -2.2397  0.1705
 8253TIP3   OH246173   2.039   0.988  15.453  0.1773 -0.3577  0.3875
 8253TIP3    H146174   2.082   1.023  15.531  0.2017  1.7722 -0.5535
 8253TIP3    H246175   2.111   0.965  15.395  0.1359 -0.8858  0.5463
 8254TIP3   OH246176   3.880   0.064  10.529 -0.2244  0.1785  0.4949
 8254TIP3    H146177   3.852   0.104  10.447  0.3350  0.7570  0.5846
 8254TIP3    H246178   3.881  -0.030  10.511  1.0212  0.3808 -0.5118
 8255TIP3   OH246179   2.015   1.384   4.214  0.2554 -0.0259  0.0113
 8255TIP3    H146180   1.997   1.450   4.146  1.8303 -0.7380 -1.1354
 8255TIP3    H246181   1.985   1.302   4.176 -0.7568 -0.1366  1.0276
 8256TIP3   OH246182   3.334   4.949   0.264  0.2614  0.1203 -0.4986
 8256TIP3    H146183   3.375   4.927   0.348  0.2660  0.3420 -0.4419
 8256TIP3    H246184   3.314   5.043   0.272 -2.1158 -0.4136  0.3007
 8257TIP3   OH246185   0.283   0.971  14.135  0.4950 -0.5353 -0.2538
 8257TIP3    H146186   0.331   1.009  14.062  0.0338  1.2684  0.3629
 8257TIP3    H246187   0.325   1.008  14.213 -0.7330 -0.3275  0.3252
 8258TIP3   OH246188   0.902   0.053  13.769 -0.3313 -0.3388  0.0625
 8258TIP3    H146189   0.892   0.060  13.864 -0.5499 -0.6367  0.0615
 8258TIP3    H246190   0.987   0.012  13.757 -0.8670 -1.5256  0.1693
 8259TIP3   OH246191   5.168   3.148  13.579 -0.1265 -0.8156 -0.0484
 8259TIP3    H146192   5.133   3.114  13.661 -0.5622 -0.6736 -0.1767
 8259TIP3    H246193   5.252   3.188  13.604 -1.1030  0.8610  0.6447
 8260TIP3   OH246194   3.082   6.718   5.625  0.0766 -0.4106 -0.1924
 8260TIP3    H146195   3.095   6.631   5.662  0.6450 -0.3599 -0.2721
 8260TIP3    H246196   3.000   6.749   5.665  0.8146 -0.2467  1.2456
 8261TIP3   OH246197   3.246   4.058  16.081  0.3530 -0.2730  0.0128
 8261TIP3    H146198   3.247   3.979  16.135 -1.2860 -0.2511  0.0978
 8261TIP3    H246199   3.318   4.046  16.019 -0.1967 -2.0689 -0.3018
 8262TIP3   OH246200   3.444   4.670  11.979  0.1305  0.2888 -0.1727
 8262TIP3    H146201   3.539   4.672  11.967  0.0288 -1.3672 -1.4404
 8262TIP3    H246202   3.427   4.586  12.023 -0.7882  0.3418 -0.4094
 8263TIP3   OH246203   2.866   5.153  16.908 -0.5909  0.5233  0.6876
 8263TIP3    H146204   2.886   5.246  16.894  0.7174 -0.1860 -2.5295
 8263TIP3    H246205   2.777   5.142  16.874 -0.8610  0.6421  1.3451
 8264TIP3   OH246206   1.816   6.512  16.704 -0.9066  0.0590  0.3776
 8264TIP3    H146207   1.850   6.495  16.616 -0.5205  1.2231  0.2962
 8264TIP3    H246208   1.889   6.492  16.763 -1.0527 -0.3773  0.4112
 8265TIP3   OH246209   3.105   2.524   3.609 -0.2314  0.3789 -0.1893
 8265TIP3    H146210   3.070   2.545   3.696  0.2558 -2.4782  0.7478
 8265TIP3    H246211   3.199   2.511   3.624 -0.1698 -0.2879 -1.1146
 8266TIP3   OH246212   5.991   3.977  11.354  0.1639 -0.1420  0.8613
 8266TIP3    H146213   5.967   3.905  11.296 -0.9129 -0.1068  1.2411
 8266TIP3    H246214   5.974   3.944  11.442 -0.6194  0.6657  1.0235
 8267TIP3   OH246215   4.775   3.783   4.430 -0.1299 -0.3551  0.3643
 8267TIP3    H146216   4.682   3.806   4.428  0.4984  2.3714  0.4731
 8267TIP3    H246217   4.804   3.810   4.517  1.1443  0.4467 -0.3040
 8268TIP3   OH246218   3.736   5.354  16.530 -0.2868  0.1544 -0.1129
 8268TIP3    H146219   3.760   5.367  16.438 -0.8900 -1.0602 -0.4430
 8268TIP3    H246220   3.806   5.299  16.565  0.3591  1.2549  0.3763
 8269TIP3   OH246221   2.526   1.194   2.604 -0.3300  0.0975  0.3890
 8269TIP3    H146222   2.524   1.281   2.644  0.4695  0.5408 -0.5054
 8269TIP3    H246223   2.533   1.211   2.510 -0.1283 -0.9363  0.2091
 8270TIP3   OH246224   6.470   1.606  17.205  0.5822  0.0803  0.1383
 8270TIP3    H146225   6.414   1.597  17.128  1.4039 -2.6253 -0.2293
 8270TIP3    H246226   6.436   1.542  17.267  0.8073  1.2378  1.4790
 8271TIP3   OH246227   3.718   3.622   3.297 -0.2433  0.0089  0.0176
 8271TIP3    H146228   3.771   3.651   3.223  2.3237 -1.9804  1.0102
 8271TIP3    H246229   3.720   3.695   3.359  1.4755 -0.1109  0.1116
 8272TIP3   OH246230   1.252   6.474  10.608 -0.7483 -0.3036 -0.1127
 8272TIP3    H146231   1.239   6.388  10.649 -0.2601  0.0376  0.7809
 8272TIP3    H246232   1.330   6.463  10.553 -0.7448 -0.4622 -0.0747
 8273TIP3   OH246233   1.163   6.764   4.724  0.0419 -0.6701  0.2242
 8273TIP3    H146234   1.117   6.706   4.786 -1.8172  0.1879 -0.3225
 8273TIP3    H246235   1.189   6.840   4.777  0.5897 -1.0198  0.4655
 8274TIP3   OH246236   5.595   1.679  12.240  0.1297  0.2419 -0.0624
 8274TIP3    H146237   5.537   1.677  12.164 -1.3740  2.2890  0.9711
 8274TIP3    H246238   5.543   1.641  12.311  0.2278  1.6181  0.7588
 8275TIP3   OH246239   1.512   5.816   3.540  0.3903  0.2850  1.1223
 8275TIP3    H146240   1.552   5.897   3.570 -1.2196  0.7593  2.0296
 8275TIP3    H246241   1.534   5.752   3.608  3.3682 -0.5797 -0.5654
 8276TIP3   OH246242   0.696   4.746  12.484 -0.2784 -0.2831  0.2158
 8276TIP3    H146243   0.600   4.739  12.479 -0.1654 -1.2538 -0.7959
 8276TIP3    H246244   0.719   4.811  12.419 -0.2577  0.0334  0.5387
 8277TIP3   OH246245   5.745   3.123   2.170 -0.7185 -0.5730  0.0848
 8277TIP3    H146246   5.671   3.154   2.221 -0.8040 -0.1071 -0.3236
 8277TIP3    H246247   5.814   3.187   2.185 -0.5977 -0.6764 -0.0225
 8278TIP3   OH246248   5.405   1.973   6.283 -0.0164  0.5829 -0.4738
 8278TIP3    H146249   5.359   1.905   6.333 -0.8517 -0.1125 -2.1406
 8278TIP3    H246250   5.498   1.958   6.302 -0.3288  0.3462  0.8778
 8279TIP3   OH246251   4.652   4.411  13.250  0.4616  0.1719 -0.3682
 8279TIP3    H146252   4.588   4.474  13.282  0.3331  0.3427 -0.9467
 8279TIP3    H246253   4.659   4.346  13.320 -0.3540  0.1433 -0.3072
 8280TIP3   OH246254   5.780   2.686   2.174  0.0310 -0.2333  0.4705
 8280TIP3    H146255   5.726   2.710   2.099  0.0330 -0.6938  0.3210
 8280TIP3    H246256   5.863   2.732   2.160 -0.7662  1.5611  1.3710
 8281TIP3   OH246257   1.220   1.565  14.134  0.0034 -0.3656  0.2455
 8281TIP3    H146258   1.164   1.566  14.056 -0.8689 -0.4469  0.8666
 8281TIP3    H246259   1.225   1.657  14.161  0.3497 -0.3304  0.0670
 8282TIP3   OH246260   3.761   0.197   2.016 -0.5712 -0.7912  0.1329
 8282TIP3    H146261   3.729   0.108   2.005 -0.8205 -0.8101  1.0221
 8282TIP3    H246262   3.693   0.242   2.065  0.0989 -0.4307  0.7450
 8283TIP3   OH246263   0.229   0.724  11.027 -0.5475 -0.2258 -0.3408
 8283TIP3    H146264   0.168   0.654  11.002  1.1882 -2.3072  1.0851
 8283TIP3    H246265   0.307   0.707  10.976  0.5195 -0.4048  1.3039
 8284TIP3   OH246266   0.614   0.124   3.120  0.1048  0.1612 -0.4758
 8284TIP3    H146267   0.588   0.188   3.054 -1.4682  2.0735  1.9244
 8284TIP3    H246268   0.563   0.045   3.098 -0.7762  0.9410 -1.2576
 8285TIP3   OH246269   4.638   5.684  13.435 -0.4817 -0.2233 -0.3742
 8285TIP3    H146270   4.686   5.636  13.368 -0.4527 -0.0705 -0.4634
 8285TIP3    H246271   4.699   5.690  13.508  0.0349  0.9528 -0.9022
 8286TIP3   OH246272   5.030   4.336  14.858 -0.3160 -0.4537  0.2303
 8286TIP3    H146273   5.022   4.329  14.953 -0.9942 -1.8625  0.0859
 8286TIP3    H246274   5.007   4.427  14.839 -0.6676 -0.2879  1.3687
 8287TIP3   OH246275   1.609   4.098  15.919 -0.2005  0.3266  0.6562
 8287TIP3    H146276   1.664   4.125  15.992 -0.3065 -1.9697  1.6465
 8287TIP3    H246277   1.669   4.063  15.854 -0.2176  1.0633  0.2432
 8288TIP3   OH246278   2.881   6.279  16.616  0.5664  0.3870  0.0289
 8288TIP3    H146279   2.959   6.324  16.649 -0.1833 -0.6897  3.4077
 8288TIP3    H246280   2.897   6.186  16.634 -0.3786 -0.1344 -1.6692
 8289TIP3   OH246281   2.626   2.148  10.991 -0.0471 -0.2733  0.6465
 8289TIP3    H146282   2.590   2.221  10.940 -0.0379 -0.5732  0.2044
 8289TIP3    H246283   2.616   2.176  11.082  0.7295  0.6388  0.4610
 8290TIP3   OH246284   0.165   6.422   3.913 -0.0933  0.3598  0.4866
 8290TIP3    H146285   0.205   6.499   3.953  0.5636  0.3307 -0.1064
 8290TIP3    H246286   0.102   6.458   3.850 -0.9000  0.4038  1.2954
 8291TIP3   OH246287   1.206   5.474  12.542  0.2177  0.2762  0.0763
 8291TIP3    H146288   1.159   5.390  12.542 -1.0837  0.9800  0.8414
 8291TIP3    H246289   1.150   5.533  12.493  0.7066  0.9202  0.2815
 8292TIP3   OH246290   2.552   5.973  11.509  0.0614  0.3180 -0.3678
 8292TIP3    H146291   2.473   5.944  11.555 -0.0136  0.3266 -0.4902
 8292TIP3    H246292   2.622   5.917  11.543 -0.1064 -0.0957 -0.7030
 8293TIP3   OH246293   0.838   3.237   1.385  0.3962  0.7815  0.1879
 8293TIP3    H146294   0.758   3.223   1.335 -0.4843  2.8091  0.9633
 8293TIP3    H246295   0.830   3.179   1.461  0.5281 -0.3592 -0.6561
 8294TIP3   OH246296   0.721   0.144   5.679 -0.0113  0.1664  0.1230
 8294TIP3    H146297   0.767   0.104   5.605  0.8687 -0.6854  1.1272
 8294TIP3    H246298   0.785   0.205   5.717 -0.2573  0.1484  0.5648
 8295TIP3   OH246299   6.276   0.730   3.955 -0.5114 -0.0848 -0.3535
 8295TIP3    H146300   6.304   0.821   3.943 -0.3713 -0.0228  0.3646
 8295TIP3    H246301   6.238   0.728   4.043 -1.5558 -0.4738 -0.8088
 8296TIP3   OH246302   0.956   4.926  11.741  0.3493 -0.6458  0.4462
 8296TIP3    H146303   0.880   4.905  11.688  0.1394 -0.6974  0.7640
 8296TIP3    H246304   1.031   4.902  11.687  0.1368 -0.6317  0.1499
 8297TIP3   OH246305   1.869   5.632   3.098  0.1537  0.1769 -0.2247
 8297TIP3    H146306   1.843   5.714   3.141 -0.3221  0.2953 -0.7391
 8297TIP3    H246307   1.847   5.564   3.162  2.2981  0.5805  0.9911
 8298TIP3   OH246308   2.453   2.723   5.227  0.3270  0.2250 -0.7113
 8298TIP3    H146309   2.409   2.644   5.196 -0.0138  0.2432 -0.2689
 8298TIP3    H246310   2.468   2.708   5.320  1.0518  0.3137 -0.8092
 8299TIP3   OH246311   5.679   1.430   2.041  0.6626  0.5648  0.3541
 8299TIP3    H146312   5.745   1.460   2.103 -1.3382  1.2162  2.2244
 8299TIP3    H246313   5.607   1.491   2.052 -0.8457 -1.0228 -0.5633
 8300TIP3   OH246314   1.166   3.324  11.169  0.7654  0.1982 -0.3887
 8300TIP3    H146315   1.074   3.348  11.160  0.5253 -1.4062 -2.5342
 8300TIP3    H246316   1.176   3.301  11.261 -1.0902 -0.0772 -0.2477
 8301TIP3   OH246317   0.442   1.010   2.485  0.0349  0.0570 -0.4192
 8301TIP3    H146318   0.349   1.005   2.464 -0.0216  0.4518 -0.2633
 8301TIP3    H246319   0.470   1.095   2.451  0.1390  0.3294  0.3476
 8302TIP3   OH246320   0.702   4.403   0.378  0.1752  0.2370  0.4782
 8302TIP3    H146321   0.708   4.380   0.471 -1.3028 -2.6303 -0.0615
 8302TIP3    H246322   0.608   4.414   0.362  0.2337 -1.3507 -1.1010
 8303TIP3   OH246323   1.828   6.442   6.556 -0.3984 -0.1815  0.5263
 8303TIP3    H146324   1.842   6.534   6.579 -0.2832  0.1498 -0.8202
 8303TIP3    H246325   1.740   6.439   6.520  0.2833 -0.2152 -1.2179
 8304TIP3   OH246326   4.837   3.992   0.410  0.2873 -0.1235  0.3529
 8304TIP3    H146327   4.904   4.031   0.355 -0.4910  0.6156 -0.0846
 8304TIP3    H246328   4.793   3.929   0.353 -1.1846  1.3709 -0.1889
 8305TIP3   OH246329   4.545   2.246   1.948  0.0879 -0.0316 -0.3457
 8305TIP3    H146330   4.582   2.172   1.901 -1.3763 -0.8509 -0.2255
 8305TIP3    H246331   4.570   2.232   2.039 -0.7669 -0.7537 -0.2143
 8306TIP3   OH246332   3.074   4.447   1.811  0.1794 -0.0194  0.3887
 8306TIP3    H146333   3.017   4.469   1.737  2.2202 -1.1187 -1.5708
 8306TIP3    H246334   3.039   4.363   1.843 -2.3322  1.7165  2.4377
 8307TIP3   OH246335   0.855   0.272  11.363 -0.0690 -0.0608 -0.2307
 8307TIP3    H146336   0.915   0.305  11.297 -0.6949  0.3718 -0.5824
 8307TIP3    H246337   0.910   0.217  11.419  0.6565  0.3269 -0.5484
 8308TIP3   OH246338   5.755   0.379  16.454  0.1552 -0.6590  0.0654
 8308TIP3    H146339   5.787   0.292  16.480 -1.1003 -1.6411 -1.5829
 8308TIP3    H246340   5.663   0.365  16.433  0.5710  0.5115 -2.7498
 8309TIP3   OH246341   5.747   6.215  11.612  0.1169 -0.4953  0.5599
 8309TIP3    H146342   5.829   6.166  11.606  0.9178  0.8502  0.3236
 8309TIP3    H246343   5.763   6.295  11.563 -1.4054 -0.2912  0.3720
 8310TIP3   OH246344   0.875   3.587  17.228 -0.6633  0.4919  0.0088
 8310TIP3    H146345   0.803   3.645  17.205 -0.7951  0.7019  0.9306
 8310TIP3    H246346   0.915   3.628  17.305 -0.7083 -0.6003  0.6215
 8311TIP3   OH246347   0.033   0.582  16.296 -0.5088 -0.1361  0.3093
 8311TIP3    H146348  -0.027   0.511  16.320 -0.6659 -0.8131 -1.9610
 8311TIP3    H246349   0.120   0.542  16.302 -0.4075  0.2513  1.5763
 8312TIP3   OH246350   4.489   2.751  13.368 -0.1790 -0.1191 -0.1154
 8312TIP3    H146351   4.539   2.780  13.444  0.7844  0.5877 -1.0043
 8312TIP3    H246352   4.488   2.656  13.375  1.8127 -0.1873 -0.3925
 8313TIP3   OH246353   4.156   2.902  12.866  0.5533 -0.3271 -0.1814
 8313TIP3    H146354   4.181   2.928  12.777 -1.3124  0.1808 -0.5832
 8313TIP3    H246355   4.124   2.982  12.907  0.7504 -0.7022  0.7352
 8314TIP3   OH246356   4.525   0.607  16.192 -0.5276  0.0572  0.4575
 8314TIP3    H146357   4.544   0.653  16.274  1.4965 -0.9156  0.5681
 8314TIP3    H246358   4.455   0.546  16.215 -2.0385  1.8324  0.7252
 8315TIP3   OH246359   5.175   1.414   4.916  0.0732 -0.2973  0.6346
 8315TIP3    H146360   5.104   1.352   4.902 -0.9226  0.3057  2.8359
 8315TIP3    H246361   5.220   1.383   4.994  0.2253  1.1321  1.1355
 8316TIP3   OH246362   4.566   2.006  10.664  0.6823 -0.0213  0.1016
 8316TIP3    H146363   4.535   1.950  10.592 -0.9348  0.9293  0.0465
 8316TIP3    H246364   4.495   2.005  10.728  0.8286  1.6092  0.3044
 8317TIP3   OH246365   0.517   0.500   5.121  0.5341  0.3811  0.4596
 8317TIP3    H146366   0.591   0.442   5.142  0.2083 -0.1874  0.0607
 8317TIP3    H246367   0.550   0.588   5.137  0.9385  0.0660  1.3994
 8318TIP3   OH246368   5.255   3.498  13.486  0.2949  0.3962  0.0043
 8318TIP3    H146369   5.338   3.516  13.441  2.6090 -2.9661  2.6376
 8318TIP3    H246370   5.229   3.412  13.454 -0.1738 -0.2120  1.9726
 8319TIP3   OH246371   5.929   3.076  15.928  0.1998 -0.0686 -0.4859
 8319TIP3    H146372   5.934   2.980  15.926  0.4726 -0.0836  0.6313
 8319TIP3    H246373   5.864   3.097  15.860 -0.2738 -1.0748 -0.3648
 8320TIP3   OH246374   6.626   5.305   3.513 -0.0305 -0.0719  0.0635
 8320TIP3    H146375   6.675   5.223   3.505 -0.6199 -0.4809  0.6516
 8320TIP3    H246376   6.622   5.339   3.423 -1.9351 -1.9245 -0.5785
 8321TIP3   OH246377   0.116   2.398   5.679 -0.1611 -0.2613  0.9488
 8321TIP3    H146378   0.189   2.336   5.678  0.4472  0.4389  1.3723
 8321TIP3    H246379   0.157   2.484   5.671 -0.9414  0.1407  1.1651
 8322TIP3   OH246380   6.721   0.691   2.082  0.0152 -0.0039 -0.2950
 8322TIP3    H146381   6.813   0.717   2.077 -0.0476  0.2569 -0.1165
 8322TIP3    H246382   6.674   0.759   2.034 -0.0933 -0.0985 -0.3245
 8323TIP3   OH246383   6.227   2.695  10.912  0.5598  0.2081 -0.0261
 8323TIP3    H146384   6.313   2.709  10.952  0.2630  1.8014  0.0897
 8323TIP3    H246385   6.193   2.783  10.896 -1.4796 -0.3872  0.8254
 8324TIP3   OH246386   0.454   4.980   1.786  0.0539  0.3104  0.2628
 8324TIP3    H146387   0.391   4.929   1.837 -1.0889  1.2637 -0.1469
 8324TIP3    H246388   0.466   4.930   1.705  0.0078  0.0067  0.4419
 8325TIP3   OH246389   4.761   3.932  14.397  0.0666  0.0465 -0.7532
 8325TIP3    H146390   4.672   3.931  14.362 -0.1661  1.6062 -0.2455
 8325TIP3    H246391   4.757   3.992  14.471  1.8109  1.0664 -1.4494
 8326TIP3   OH246392   5.771   1.574  16.185  0.3442  0.0064 -0.0310
 8326TIP3    H146393   5.825   1.495  16.181  0.6907  0.3598 -2.7838
 8326TIP3    H246394   5.685   1.542  16.211  1.4697 -0.7269  3.0981
 8327TIP3   OH246395   4.500   3.183  16.008 -0.2341 -0.1170  0.2959
 8327TIP3    H146396   4.456   3.219  16.086  1.1335  0.6241  0.7348
 8327TIP3    H246397   4.494   3.088  16.019  1.2370 -0.0255  2.0529
 8328TIP3   OH246398   0.499   4.644   5.168 -0.5157 -0.1340  0.0250
 8328TIP3    H146399   0.452   4.595   5.236  0.2795 -0.4962  0.3146
 8328TIP3    H246400   0.568   4.690   5.216 -2.8444  3.3627  0.1516
 8329TIP3   OH246401   6.364   2.620  12.327 -0.0119 -0.4781 -0.5214
 8329TIP3    H146402   6.282   2.641  12.283 -1.7146 -3.0073  1.2591
 8329TIP3    H246403   6.360   2.668  12.410 -0.9863 -2.5896  0.7233
 8330TIP3   OH246404   0.845   1.768  11.933 -0.4607  0.0762 -0.0466
 8330TIP3    H146405   0.858   1.737  12.022  3.0394  0.4844 -0.3790
 8330TIP3    H246406   0.750   1.780  11.926 -0.7219  0.9852  3.9092
 8331TIP3   OH246407   6.784   0.721  12.488 -0.5649  0.4961  0.8255
 8331TIP3    H146408   6.715   0.670  12.532 -1.8549  1.6080  0.1304
 8331TIP3    H246409   6.836   0.656  12.441 -0.1109 -0.5498  2.7007
 8332TIP3   OH246410   2.643   1.591   1.754  0.3676  0.2139  0.1403
 8332TIP3    H146411   2.571   1.598   1.692  0.8395  0.0297 -0.4314
 8332TIP3    H246412   2.722   1.604   1.701  0.8653 -1.6228  0.3895
 8333TIP3   OH246413   0.141   2.104   1.710  0.1938 -0.0298 -0.3763
 8333TIP3    H146414   0.053   2.121   1.676 -0.7152  0.6194  2.1405
 8333TIP3    H246415   0.191   2.183   1.688  0.0876 -0.3147 -1.6409
 8334TIP3   OH246416   5.927   6.433  15.409  0.0979  0.1969 -0.0937
 8334TIP3    H146417   5.930   6.529  15.417 -2.2837  0.3408 -0.6290
 8334TIP3    H246418   6.019   6.407  15.402  0.7079  2.5896 -1.6923
 8335TIP3   OH246419   6.367   0.771  14.175  0.2421 -0.1955  0.2041
 8335TIP3    H146420   6.277   0.782  14.206 -0.1840 -1.6584 -0.4819
 8335TIP3    H246421   6.405   0.859  14.180 -1.3844  0.5377 -0.0129
 8336TIP3   OH246422   1.350   3.397   6.132 -0.3419 -0.6780  0.1512
 8336TIP3    H146423   1.394   3.373   6.214 -2.1157 -3.3414  0.4000
 8336TIP3    H246424   1.410   3.370   6.063  0.3577 -0.1284  0.5392
 8337TIP3   OH246425   4.208   1.429   2.426 -0.7175 -1.0682 -0.4045
 8337TIP3    H146426   4.143   1.493   2.398 -0.2889 -0.6732 -0.5071
 8337TIP3    H246427   4.278   1.436   2.361 -0.3815 -1.1875 -0.0569
 8338TIP3   OH246428   4.982   3.225   4.399  0.2749 -0.0472 -0.1786
 8338TIP3    H146429   4.945   3.205   4.313 -2.3678 -0.0817  0.9242
 8338TIP3    H246430   5.008   3.140   4.434  0.7615 -0.1026 -0.6648
 8339TIP3   OH246431   2.252   5.804   0.039 -0.3918  0.8957  0.3395
 8339TIP3    H146432   2.261   5.759   0.123 -0.6824  0.6835  0.2558
 8339TIP3    H246433   2.226   5.893   0.063 -0.1656  0.9228  0.4867
 8340TIP3   OH246434   1.563   6.227  14.176  0.5167 -0.1866  0.1707
 8340TIP3    H146435   1.614   6.165  14.228  1.1093  0.2682  0.1371
 8340TIP3    H246436   1.489   6.251  14.233  1.6169  0.9605  1.1443
 8341TIP3   OH246437   0.031   4.746   2.961  0.4017  0.1485  0.2976
 8341TIP3    H146438  -0.042   4.787   2.916 -1.0935 -0.9718  1.6455
 8341TIP3    H246439   0.090   4.718   2.891 -0.8463  0.3262 -0.8395
 8342TIP3   OH246440   2.623   2.842  14.795  0.0030  0.4864 -0.4090
 8342TIP3    H146441   2.704   2.822  14.842  0.0606  1.0887 -0.2442
 8342TIP3    H246442   2.573   2.896  14.856 -0.4957  0.1639 -0.5366
 8343TIP3   OH246443   2.060   5.276   2.591  0.1495  0.4003 -0.3795
 8343TIP3    H146444   2.149   5.267   2.558 -0.1972 -0.7435 -1.0224
 8343TIP3    H246445   2.020   5.190   2.578 -1.4345  1.2353 -1.2229
 8344TIP3   OH246446   0.724   6.636   1.454  0.3299  0.0795 -0.3156
 8344TIP3    H146447   0.631   6.614   1.465  0.2918 -0.7161 -2.1222
 8344TIP3    H246448   0.725   6.731   1.445 -0.2042  0.1880  0.6283
 8345TIP3   OH246449   0.374   2.372   5.148  0.7050 -0.1875 -0.2403
 8345TIP3    H146450   0.366   2.432   5.074 -0.1668 -0.5065 -0.4232
 8345TIP3    H246451   0.297   2.392   5.202  0.4588 -1.0564 -0.2570
 8346TIP3   OH246452   3.746   5.743   2.122 -0.4005  0.2863 -0.0264
 8346TIP3    H146453   3.749   5.678   2.051 -1.6539  0.9368 -0.7014
 8346TIP3    H246454   3.654   5.746   2.147  0.2668 -1.2032  2.8684
 8347TIP3   OH246455   5.374   6.586   2.087  0.0188  0.3170 -0.2119
 8347TIP3    H146456   5.386   6.581   1.992 -0.5552 -0.2488 -0.2600
 8347TIP3    H246457   5.322   6.665   2.101  0.6372  0.7380 -0.3195
 8348TIP3   OH246458   2.638   5.915  16.490  0.0700  0.0011 -0.4663
 8348TIP3    H146459   2.695   5.878  16.557 -2.0049  0.3727  1.5633
 8348TIP3    H246460   2.660   6.008  16.488 -3.3632  1.0426  3.4714
 8349TIP3   OH246461   1.807   1.972  11.840  0.0828 -0.2496  0.2063
 8349TIP3    H146462   1.852   1.910  11.782  0.6448 -1.2861  1.7225
 8349TIP3    H246463   1.717   1.940  11.842  0.0152 -0.0979 -0.2370
 8350TIP3   OH246464   5.007   2.042   4.706 -0.3190 -0.5048  0.3472
 8350TIP3    H146465   5.055   1.960   4.714 -0.9523 -0.9736 -0.6793
 8350TIP3    H246466   4.959   2.035   4.624  0.3375  1.2608 -0.2143
 8351TIP3   OH246467   4.962   1.909  17.170 -0.3918  0.1525 -0.3206
 8351TIP3    H146468   5.057   1.897  17.168 -0.2756  0.9312  0.5958
 8351TIP3    H246469   4.929   1.844  17.108  0.8257  0.6938 -1.5678
 8352TIP3   OH246470   1.508   0.854  11.295 -0.1383  0.0402 -0.2930
 8352TIP3    H146471   1.592   0.819  11.265  0.8850  1.5452  0.7451
 8352TIP3    H246472   1.527   0.891  11.381 -1.7050  1.0511 -0.3602
 8353TIP3   OH246473   1.144   4.495  12.694  0.9712 -0.0972 -0.2356
 8353TIP3    H146474   1.119   4.577  12.650 -2.0298 -0.3710  0.8006
 8353TIP3    H246475   1.120   4.426  12.631 -1.4365 -0.3876  0.9391
 8354TIP3   OH246476   0.996   3.647  16.676 -0.7132 -0.3900  0.5817
 8354TIP3    H146477   0.992   3.652  16.771  0.7629  0.1323  0.6142
 8354TIP3    H246478   0.908   3.674  16.647 -0.6422  1.0908  1.7192
 8355TIP3   OH246479   3.997   4.995   5.098 -0.8069 -0.0339 -0.2173
 8355TIP3    H146480   3.963   5.011   5.186 -0.4904  1.1394 -0.2963
 8355TIP3    H246481   4.082   4.954   5.113 -1.1366 -0.6463  0.0086
 8356TIP3   OH246482   2.297   2.662  12.118 -0.3152 -0.1541 -0.1216
 8356TIP3    H146483   2.392   2.657  12.116 -0.3616 -0.9242 -0.7027
 8356TIP3    H246484   2.278   2.745  12.163  0.6191 -0.1817  0.3388
 8357TIP3   OH246485   5.731   1.561   3.413  0.1333 -0.0653  0.2293
 8357TIP3    H146486   5.748   1.472   3.443  1.3594  0.4306  1.0263
 8357TIP3    H246487   5.677   1.550   3.334  0.1150 -1.4944  0.4372
 8358TIP3   OH246488   0.630   1.949   5.254  0.6850 -0.2240  0.0724
 8358TIP3    H146489   0.633   1.972   5.347 -1.3148 -2.0982  0.6368
 8358TIP3    H246490   0.695   1.880   5.244 -1.0691 -2.0371  0.7309
 8359TIP3   OH246491   0.897   5.092   3.669  0.0275 -0.0402  0.3146
 8359TIP3    H146492   0.906   5.155   3.741 -0.0137 -0.4637  0.6948
 8359TIP3    H246493   0.812   5.051   3.683 -0.5358  0.7594 -0.6985
 8360TIP3   OH246494   1.357   6.529   5.438 -0.3934  0.3378 -0.3504
 8360TIP3    H146495   1.264   6.529   5.416 -0.5305  0.3827  0.1988
 8360TIP3    H246496   1.402   6.524   5.354 -0.8871  0.8493 -0.6515
 8361TIP3   OH246497   0.272   0.762  16.603  0.0206 -0.1103 -0.1158
 8361TIP3    H146498   0.274   0.769  16.698  1.2077 -0.8896 -0.0683
 8361TIP3    H246499   0.208   0.827  16.575 -0.7346 -0.2560  1.2456
 8362TIP3   OH246500   6.405   4.103   3.557  0.1616 -0.0926  0.6595
 8362TIP3    H146501   6.384   4.016   3.593 -2.7631  0.3214  0.0841
 8362TIP3    H246502   6.322   4.151   3.561  1.3846  2.1678 -0.4542
 8363TIP3   OH246503   2.061   0.961   0.407  0.0561 -0.0670 -0.4847
 8363TIP3    H146504   2.062   0.914   0.324 -0.9456 -0.3190 -0.3677
 8363TIP3    H246505   2.145   0.940   0.448  0.2244 -0.5732 -1.0807
 8364TIP3   OH246506   4.302   2.380   5.996 -0.0497 -0.3760  0.3378
 8364TIP3    H146507   4.342   2.294   5.996 -0.8504 -0.7581  1.1581
 8364TIP3    H246508   4.229   2.373   6.058  0.3153  1.0959  0.9556
 8365TIP3   OH246509   0.640   1.633  12.684 -0.1771  0.3040  0.9244
 8365TIP3    H146510   0.571   1.602  12.742 -0.9853  1.0019  0.3398
 8365TIP3    H246511   0.595   1.689  12.621  0.9258  0.7890  0.5613
 8366TIP3   OH246512   4.040   1.903  12.085 -0.3352  0.0524 -0.4013
 8366TIP3    H146513   3.945   1.908  12.078 -0.4858 -1.6650  0.0367
 8366TIP3    H246514   4.057   1.902  12.179  0.0798 -0.0567 -0.4762
 8367TIP3   OH246515   3.463   5.916   3.026 -0.0286  0.0580  0.1160
 8367TIP3    H146516   3.510   5.922   3.109  0.0350 -0.1785  0.0981
 8367TIP3    H246517   3.382   5.869   3.047 -0.4929  0.9047  0.2449
 8368TIP3   OH246518   3.664   1.817   6.116  0.4593 -0.3812 -0.0218
 8368TIP3    H146519   3.664   1.847   6.025 -0.1857 -0.1674  0.0509
 8368TIP3    H246520   3.738   1.755   6.120  2.2768  1.7349  0.0283
 8369TIP3   OH246521   6.582   3.483   3.183 -0.0880  0.2427  0.1907
 8369TIP3    H146522   6.668   3.524   3.181  0.6025 -1.2117 -0.5118
 8369TIP3    H246523   6.543   3.504   3.098  0.3449 -0.6870 -0.2488
 8370TIP3   OH246524   0.760   0.978   5.762 -0.4018 -0.0973  0.0886
 8370TIP3    H146525   0.851   0.979   5.792 -0.2241 -2.2170 -0.3087
 8370TIP3    H246526   0.711   0.944   5.837 -0.0925 -4.4317 -1.5807
 8371TIP3   OH246527   1.965   6.299  15.502  0.2833 -0.1327  0.7709
 8371TIP3    H146528   1.879   6.309  15.542 -0.5481 -2.0595 -0.4554
 8371TIP3    H246529   1.988   6.387  15.472 -1.7660  0.1928  0.0735
 8372TIP3   OH246530   0.481   3.852   2.476  0.2434 -0.0871 -0.5615
 8372TIP3    H146531   0.405   3.798   2.495  0.5161 -0.3630 -0.2290
 8372TIP3    H246532   0.556   3.793   2.489  0.4025 -0.6478 -3.7596
 8373TIP3   OH246533   1.217   4.483  11.028  0.0470  0.1237 -0.5913
 8373TIP3    H146534   1.164   4.422  10.976  0.5394 -0.5158 -0.3563
 8373TIP3    H246535   1.169   4.565  11.026 -1.2487 -0.6043  0.0899
 8374TIP3   OH246536   2.798   5.679   6.033 -0.5421  0.6706 -0.2093
 8374TIP3    H146537   2.797   5.714   5.944  0.4971 -2.1294 -1.3824
 8374TIP3    H246538   2.782   5.585   6.022 -0.9823  0.3795  2.6114
 8375TIP3   OH246539   0.986   4.354   2.279  0.0614  0.4419 -0.4532
 8375TIP3    H146540   1.037   4.392   2.351  0.1287  0.0943 -0.3200
 8375TIP3    H246541   1.029   4.271   2.260 -0.5493  0.0726 -0.2323
 8376TIP3   OH246542   3.821   3.099   2.820 -0.1485 -0.3485  0.2611
 8376TIP3    H146543   3.913   3.110   2.845  0.6367 -1.8840 -1.9189
 8376TIP3    H246544   3.815   3.135   2.732 -0.9648 -3.0512 -0.8102
 8377TIP3   OH246545   2.236   1.964  12.256  0.0523 -0.2944  0.1618
 8377TIP3    H146546   2.193   2.038  12.298  0.1807  0.4599 -1.0164
 8377TIP3    H246547   2.165   1.903  12.237  0.0838 -0.9468  2.0643
 8378TIP3   OH246548   6.641   2.998  12.122  0.1046  0.0946  0.3394
 8378TIP3    H146549   6.625   2.970  12.032 -1.6866  0.7627  0.4317
 8378TIP3    H246550   6.623   2.921  12.175 -2.0599  0.5940  0.3691
 8379TIP3   OH246551   3.808   5.600  11.456  0.2011  0.2066  0.1077
 8379TIP3    H146552   3.738   5.648  11.499  0.2819  0.6541 -0.2477
 8379TIP3    H246553   3.786   5.605  11.363  0.7472  0.4327 -0.0126
 8380TIP3   OH246554   0.826   1.529  11.684  0.0513 -0.6260 -0.4947
 8380TIP3    H146555   0.735   1.513  11.657 -0.8571  0.4939  1.6546
 8380TIP3    H246556   0.817   1.584  11.763  2.5682 -1.4078  0.3840
 8381TIP3   OH246557   4.394   0.692   5.363  0.0445  0.3991 -0.3963
 8381TIP3    H146558   4.354   0.760   5.309 -0.2404  0.5162 -0.0431
 8381TIP3    H246559   4.338   0.616   5.352 -0.2264  0.5323  0.0162
 8382TIP3   OH246560   1.452   0.705   1.498  0.0639 -0.0612  0.0186
 8382TIP3    H146561   1.546   0.684   1.502  0.5485  2.2072  1.5622
 8382TIP3    H246562   1.438   0.734   1.408  1.2829  1.4012  0.2722
 8383TIP3   OH246563   0.947   1.745  16.226 -0.2219  0.2877 -0.8432
 8383TIP3    H146564   0.864   1.713  16.191 -0.5139 -0.7781  0.7919
 8383TIP3    H246565   0.924   1.790  16.307  0.8338 -0.4554 -0.1166
 8384TIP3   OH246566   1.617   2.447   2.339  0.2324 -0.1044  0.2835
 8384TIP3    H146567   1.685   2.411   2.282 -0.7007 -1.8559  0.2184
 8384TIP3    H246568   1.579   2.370   2.382 -1.1969  0.9102  0.8654
 8385TIP3   OH246569   0.308   0.116  11.213 -0.4780  0.0682  0.5983
 8385TIP3    H146570   0.304   0.122  11.118  1.2537  2.7734  0.6370
 8385TIP3    H246571   0.218   0.099  11.240 -1.2388  0.7092 -1.4428
 8386TIP3   OH246572   3.360   2.097  15.664 -0.2166  0.6674 -0.0474
 8386TIP3    H146573   3.422   2.030  15.690 -0.3354  1.0067  1.1581
 8386TIP3    H246574   3.294   2.051  15.613 -0.1997 -0.1069  0.6144
 8387TIP3   OH246575   5.733   1.884   6.164 -0.7276 -0.7946  0.0706
 8387TIP3    H146576   5.808   1.891   6.105 -0.3908  1.0367  0.6943
 8387TIP3    H246577   5.765   1.829   6.236 -0.1210 -0.3706  0.1308
 8388TIP3   OH246578   2.623   5.334   3.419 -0.4706  0.3754 -0.1551
 8388TIP3    H146579   2.679   5.259   3.400 -2.5928 -1.4896  0.7511
 8388TIP3    H246580   2.638   5.352   3.512 -0.5831  0.5381 -0.1678
 8389TIP3   OH246581   1.669   3.568  12.175 -0.6533 -0.0440  0.5451
 8389TIP3    H146582   1.732   3.519  12.228  0.3010  0.5022 -0.0719
 8389TIP3    H246583   1.709   3.654  12.164 -2.2336  0.8301  1.4607
 8390TIP3   OH246584   1.563   3.898  13.341 -0.4547 -0.0144  0.4663
 8390TIP3    H146585   1.532   3.865  13.257 -1.8552  1.9771  0.1469
 8390TIP3    H246586   1.608   3.824  13.382 -0.3703 -1.1992 -1.7320
 8391TIP3   OH246587   3.006   6.660  15.963 -0.8019  0.7489 -0.3100
 8391TIP3    H146588   3.065   6.591  15.994 -1.4077  0.0026 -0.7938
 8391TIP3    H246589   3.013   6.729  16.029 -0.5500  0.0194  0.4355
 8392TIP3   OH246590   2.911   3.935  11.730 -0.6124  0.4233  0.0840
 8392TIP3    H146591   2.868   3.937  11.816  1.1906 -0.0406  1.0191
 8392TIP3    H246592   2.929   3.842  11.714 -0.6339  0.5421 -0.6434
 8393TIP3   OH246593   6.414   0.463   1.881 -0.0347  0.0303 -0.1532
 8393TIP3    H146594   6.433   0.438   1.972  0.4965  1.6117  0.1826
 8393TIP3    H246595   6.494   0.440   1.833 -0.5100 -1.3002 -0.3425
 8394TIP3   OH246596   0.865   0.450   6.385 -0.0021 -0.1222 -0.2509
 8394TIP3    H146597   0.798   0.382   6.378 -0.4940  0.4244 -0.8907
 8394TIP3    H246598   0.825   0.518   6.439 -0.3158  0.6143 -1.3895
 8395TIP3   OH246599   3.026   1.596  16.384  0.4464 -0.2684 -0.7560
 8395TIP3    H146600   3.110   1.565  16.351  0.4851  0.4952 -1.3860
 8395TIP3    H246601   2.972   1.609  16.306 -0.1834 -0.5196 -0.3747
 8396TIP3   OH246602   5.697   1.908  17.124 -0.7319  0.3948  0.3247
 8396TIP3    H146603   5.751   1.874  17.052 -1.1081 -0.8331  0.6076
 8396TIP3    H246604   5.733   1.995  17.142  0.1093  0.2422 -0.5808
 8397TIP3   OH246605   0.233   6.787  14.243 -0.1465 -0.0481  0.0258
 8397TIP3    H146606   0.164   6.844  14.275 -0.9200 -0.8212 -0.2338
 8397TIP3    H246607   0.190   6.731  14.178  1.1030  0.5751 -1.3613
 8398TIP3   OH246608   2.362   2.091   4.238 -0.6702  0.6995  0.2349
 8398TIP3    H146609   2.451   2.113   4.210 -0.5014  1.0862  1.0408
 8398TIP3    H246610   2.348   2.002   4.205 -0.4533  1.1036 -0.9616
 8399TIP3   OH246611   1.956   3.357   4.371  1.0491 -0.4325  0.2057
 8399TIP3    H146612   1.894   3.376   4.442 -2.0769  0.9428 -2.7613
 8399TIP3    H246613   2.022   3.426   4.378 -0.7533  1.3513  0.1432
 8400TIP3   OH246614   1.442   3.651   1.220  0.4583  0.4682 -0.5234
 8400TIP3    H146615   1.519   3.676   1.170  2.0466  0.2542  1.7535
 8400TIP3    H246616   1.422   3.562   1.192  1.5752  0.2077 -0.5154
 8401TIP3   OH246617   0.414   2.956   2.248 -0.1638 -0.5126 -0.3757
 8401TIP3    H146618   0.389   2.969   2.339 -0.4371  0.5515 -0.5970
 8401TIP3    H246619   0.508   2.971   2.246 -0.3807  0.8912 -0.5188
 8402TIP3   OH246620   3.716   5.365   6.404 -0.4523  0.7229 -0.2678
 8402TIP3    H146621   3.671   5.331   6.482 -0.6508  0.9197 -0.2963
 8402TIP3    H246622   3.648   5.412   6.356  0.0621  2.0636  0.2946
 8403TIP3   OH246623   3.485   4.483  12.169 -0.0034 -0.1195  0.1315
 8403TIP3    H146624   3.559   4.543  12.155  0.5059 -1.0083 -1.0364
 8403TIP3    H246625   3.520   4.396  12.149 -1.0741 -0.6770  0.6289
 8404TIP3   OH246626   3.199   3.072   4.079  0.3406 -0.0467  0.5058
 8404TIP3    H146627   3.111   3.041   4.103  0.3739 -0.3799  0.2072
 8404TIP3    H246628   3.253   3.054   4.156  0.4234 -0.9945  0.2329
 8405TIP3   OH246629   0.368   6.308  12.681 -0.3473 -0.1026  0.0363
 8405TIP3    H146630   0.323   6.271  12.605 -0.7054  1.0941 -0.3479
 8405TIP3    H246631   0.443   6.354  12.644 -0.2050  0.0093  0.4624
 8406TIP3   OH246632   1.575   1.177  11.065  0.1527 -0.4469 -0.2508
 8406TIP3    H146633   1.492   1.150  11.027 -0.2750 -0.2687  0.5425
 8406TIP3    H246634   1.634   1.103  11.050 -1.0567 -1.9591  2.0805
 8407TIP3   OH246635   1.538   4.742   4.452  0.0373 -0.0930  0.4032
 8407TIP3    H146636   1.445   4.756   4.434  0.4006  2.0886  0.0709
 8407TIP3    H246637   1.567   4.822   4.495  1.9698 -0.3748 -0.3119
 8408TIP3   OH246638   5.822   6.328  13.808 -0.1275  0.0762  0.3421
 8408TIP3    H146639   5.801   6.338  13.715  2.2870 -0.1966 -0.2686
 8408TIP3    H246640   5.861   6.412  13.833  0.7966 -0.4421  0.6579
 8409TIP3   OH246641   2.856   3.365  16.762 -0.0163  0.0998  0.2641
 8409TIP3    H146642   2.911   3.392  16.688 -0.1677 -0.7887 -0.1800
 8409TIP3    H246643   2.911   3.306  16.813  0.4789  1.5777  1.4993
 8410TIP3   OH246644   5.180   2.640   0.279 -0.0036  0.6485  0.2135
 8410TIP3    H146645   5.087   2.641   0.260 -0.2838  1.2913  1.6077
 8410TIP3    H246646   5.210   2.555   0.246 -1.4838 -0.4536  1.6411
 8411TIP3   OH246647   4.406   5.928   4.290 -0.0370 -0.4837 -0.3760
 8411TIP3    H146648   4.383   5.978   4.368  1.0535 -1.0447  0.3114
 8411TIP3    H246649   4.325   5.882   4.267  0.0837 -1.6389  1.4230
 8412TIP3   OH246650   5.725   0.365   5.123 -0.0152 -0.7721 -0.1351
 8412TIP3    H146651   5.783   0.289   5.126 -0.7444 -1.3667 -1.0534
 8412TIP3    H246652   5.761   0.425   5.189  1.5545 -1.1921 -0.5841
 8413TIP3   OH246653   1.873   1.434  14.260  0.1179 -0.0748  0.2213
 8413TIP3    H146654   1.954   1.383  14.257  0.6560  0.7977 -0.1766
 8413TIP3    H246655   1.871   1.481  14.177 -1.3081 -0.8583 -0.2150
 8414TIP3   OH246656   6.655   4.136   6.307 -0.2018  0.6764  0.2109
 8414TIP3    H146657   6.728   4.085   6.272 -1.0010 -0.2793 -0.0922
 8414TIP3    H246658   6.649   4.212   6.250  0.8753  1.0368  0.5473
 8415TIP3   OH246659   1.152   6.666  16.176 -0.1115 -0.0653  0.3097
 8415TIP3    H146660   1.074   6.685  16.124  0.1300 -0.7784 -0.3457
 8415TIP3    H246661   1.130   6.692  16.265 -0.5988  1.0246 -0.1234
 8416TIP3   OH246662   5.331   1.421   0.545  0.5813 -0.3159  0.6518
 8416TIP3    H146663   5.421   1.391   0.535  0.5448 -0.4509  0.7222
 8416TIP3    H246664   5.337   1.499   0.600  0.8837  1.0123 -1.2308
 8417TIP3   OH246665   4.558   6.470   3.043 -0.1914  0.3426  0.5493
 8417TIP3    H146666   4.644   6.492   3.077 -0.8210 -0.0126  2.4061
 8417TIP3    H246667   4.572   6.391   2.991  0.4238 -0.3329  1.7280
 8418TIP3   OH246668   4.021   1.177  11.621  0.4505  0.1468 -0.4280
 8418TIP3    H146669   4.083   1.250  11.624 -0.5509  0.9757  0.7393
 8418TIP3    H246670   4.032   1.132  11.705  1.6675 -1.5833 -1.4818
 8419TIP3   OH246671   3.620   3.959  15.020 -0.4809  0.5445  0.2532
 8419TIP3    H146672   3.641   3.881  15.070 -1.2679  0.4229  0.3966
 8419TIP3    H246673   3.529   3.947  14.993 -0.3173  0.9787 -0.5167
 8420TIP3   OH246674   3.505   2.599  13.151 -0.3085  0.2148  0.5294
 8420TIP3    H146675   3.459   2.554  13.081  1.0247  1.5558 -1.2399
 8420TIP3    H246676   3.589   2.626  13.112  0.8752  0.1262  2.9017
 8421TIP3   OH246677   2.532   5.391  10.739 -0.3010 -0.3266  0.2609
 8421TIP3    H146678   2.473   5.318  10.720  0.3852 -0.4344 -1.5855
 8421TIP3    H246679   2.574   5.410  10.655 -0.0191  1.7973  0.8547
 8422TIP3   OH246680   0.634   4.418   3.372  0.2832 -0.7094 -0.0675
 8422TIP3    H146681   0.547   4.458   3.365  0.4716 -0.3386 -0.2901
 8422TIP3    H246682   0.626   4.336   3.324  0.4393 -0.0365 -1.2431
 8423TIP3   OH246683   1.734   3.612  15.500 -0.2550 -0.1084 -0.1622
 8423TIP3    H146684   1.750   3.605  15.406 -2.9167 -1.9298 -0.5080
 8423TIP3    H246685   1.739   3.523  15.533 -1.3489  0.2707  1.0900
 8424TIP3   OH246686   5.914   5.100  14.866  0.5847  0.0476 -0.5065
 8424TIP3    H146687   5.975   5.173  14.876  1.4343 -0.5924 -1.0939
 8424TIP3    H246688   5.873   5.114  14.781  1.0402 -0.3837 -0.7975
 8425TIP3   OH246689   1.349   1.335   0.530 -0.2593 -0.2668 -0.3126
 8425TIP3    H146690   1.300   1.255   0.511  1.0348 -1.0022 -0.6820
 8425TIP3    H246691   1.441   1.308   0.525  0.2328  1.6015 -2.0834
 8426TIP3   OH246692   6.488   1.511  15.655  0.1897  0.2097 -0.0753
 8426TIP3    H146693   6.481   1.517  15.560 -2.1853 -0.2215  0.0331
 8426TIP3    H246694   6.533   1.592  15.681 -2.2784  2.0353 -1.2973
 8427TIP3   OH246695   2.624   3.279   1.417 -0.7171  0.4001  0.0272
 8427TIP3    H146696   2.529   3.274   1.424 -0.6953  0.1631  0.1795
 8427TIP3    H246697   2.647   3.219   1.347 -0.7989  1.5784 -1.0222
 8428TIP3   OH246698   0.705   3.772   0.557  0.4964 -0.6288  0.2796
 8428TIP3    H146699   0.626   3.820   0.533 -0.6701 -1.4095  2.4383
 8428TIP3    H246700   0.757   3.836   0.607  0.7094 -0.4704 -0.1393
 8429TIP3   OH246701   5.960   1.001   1.531  0.1715 -0.0747  0.0411
 8429TIP3    H146702   5.984   0.941   1.602  1.7049 -1.1681 -1.3823
 8429TIP3    H246703   6.023   1.073   1.539  1.2878 -0.8946 -1.0594
 8430TIP3   OH246704   0.214   3.117  13.599  0.2359 -0.2654 -0.5187
 8430TIP3    H146705   0.190   3.186  13.538 -0.6682  0.4888  0.6693
 8430TIP3    H246706   0.282   3.067  13.554 -1.1217 -0.3336 -2.5383
 8431TIP3   OH246707   5.749   6.096  13.458 -0.2990 -0.1399 -0.4173
 8431TIP3    H146708   5.701   6.100  13.375 -0.6523  0.9529 -0.1706
 8431TIP3    H246709   5.695   6.041  13.514 -0.3184 -0.4533 -0.7344
 8432TIP3   OH246710   0.754   6.655   5.478 -0.2262 -0.2523 -0.9695
 8432TIP3    H146711   0.745   6.563   5.454 -1.3591 -0.3984 -0.0835
 8432TIP3    H246712   0.669   6.694   5.456 -0.6555  0.0031  1.0133
 8433TIP3   OH246713   2.026   2.129   3.477 -0.1556  0.5172  0.2795
 8433TIP3    H146714   1.953   2.131   3.415  1.6383  1.0771 -1.8853
 8433TIP3    H246715   2.046   2.221   3.492  0.6058  0.3607  0.2349
 8434TIP3   OH246716   6.043   6.657  13.459 -0.2609 -0.2215 -0.2772
 8434TIP3    H146717   6.062   6.647  13.366  0.2154 -0.7453 -0.1247
 8434TIP3    H246718   6.036   6.752  13.472 -0.8226 -0.1652 -0.9386
 8435TIP3   OH246719   6.044   0.024   1.176 -0.1366  0.0777  0.2642
 8435TIP3    H146720   6.029   0.049   1.085  0.1178  2.1041  0.7414
 8435TIP3    H246721   6.023  -0.069   1.180 -2.5059  0.4992 -1.3334
 8436TIP3   OH246722   3.015   2.491   4.512 -0.0170  0.5053 -0.1550
 8436TIP3    H146723   3.038   2.583   4.521  1.5291  0.1511 -0.4352
 8436TIP3    H246724   3.000   2.479   4.418 -1.1648  0.6776 -0.0056
 8437TIP3   OH246725   6.126   5.549   1.426  0.0568 -0.2756 -0.2195
 8437TIP3    H146726   6.199   5.517   1.478 -0.0948  0.0689  0.2035
 8437TIP3    H246727   6.054   5.559   1.488 -0.3053 -0.4487 -0.6006
 8438TIP3   OH246728   0.445   2.193  16.024 -0.2725  0.1791 -0.4367
 8438TIP3    H146729   0.465   2.230  16.111 -0.1268 -0.6868 -0.0976
 8438TIP3    H246730   0.392   2.260  15.982 -1.5477  0.0172  0.8645
 8439TIP3   OH246731   0.696   3.727  16.348 -0.1070 -0.1954  0.0721
 8439TIP3    H146732   0.637   3.660  16.314  0.4911 -0.1623 -1.0529
 8439TIP3    H246733   0.776   3.679  16.370 -0.4388 -0.1990  1.3563
 8440TIP3   OH246734   4.920   5.510  14.917  0.0269  0.6529 -0.3067
 8440TIP3    H146735   4.927   5.419  14.945 -1.6794  0.0668 -1.6823
 8440TIP3    H246736   4.866   5.552  14.983 -1.0685  0.1192 -0.8570
 8441TIP3   OH246737   0.618   5.534  14.647 -0.0889  0.4520  0.3958
 8441TIP3    H146738   0.673   5.462  14.678 -1.6806 -0.6818  0.6570
 8441TIP3    H246739   0.633   5.536  14.553  1.6722  1.2585  0.6729
 8442TIP3   OH246740   5.514   6.073   4.676 -0.3082 -0.3061 -0.1727
 8442TIP3    H146741   5.567   6.062   4.598 -1.7107 -2.3070 -0.8778
 8442TIP3    H246742   5.437   6.121   4.646  0.4167  1.3645  0.5649
 8443TIP3   OH246743   0.772   6.169   5.524 -0.2417 -0.2421  0.4063
 8443TIP3    H146744   0.782   6.238   5.589 -0.9755 -0.2852  0.5606
 8443TIP3    H246745   0.782   6.214   5.440 -0.1351 -0.0454  0.5248
 8444TIP3   OH246746   0.227   2.049   4.135 -0.5561  0.5563 -0.4682
 8444TIP3    H146747   0.152   2.107   4.129 -0.9113  0.1314 -0.1513
 8444TIP3    H246748   0.190   1.962   4.148  0.0090  0.7468  2.9641
 8445TIP3   OH246749   5.788   1.831   3.166  0.0907 -0.0403  0.4608
 8445TIP3    H146750   5.817   1.744   3.138 -1.1957 -1.2965  2.9130
 8445TIP3    H246751   5.869   1.881   3.176  0.8235 -0.8185 -1.3149
 8446TIP3   OH246752   4.274   5.020  17.151 -0.5543  0.2788  0.0683
 8446TIP3    H146753   4.366   4.996  17.156 -0.4970  0.3936 -0.4681
 8446TIP3    H246754   4.242   5.010  17.241 -1.1836 -4.4638 -0.5356
 8447TIP3   OH246755   0.681   5.703   6.052  0.2474 -0.0555 -0.6300
 8447TIP3    H146756   0.618   5.635   6.077  1.3939 -1.0841 -0.5051
 8447TIP3    H246757   0.667   5.773   6.116  0.2694 -0.9098  0.3185
 8448TIP3   OH246758   4.711   2.963   5.240  0.9082 -0.8726  0.5040
 8448TIP3    H146759   4.628   3.009   5.230 -0.2870 -2.5889  2.2240
 8448TIP3    H246760   4.705   2.888   5.181  1.5719 -0.5963  0.0666
 8449TIP3   OH246761   4.086   2.035  13.398  0.4365 -0.2797  0.8144
 8449TIP3    H146762   4.075   2.100  13.329 -2.8584  3.4510  4.5856
 8449TIP3    H246763   4.015   1.972  13.383 -1.3789  1.4849  1.6603
 8450TIP3   OH246764   2.611   3.993   1.177  0.1350  0.0325 -0.2708
 8450TIP3    H146765   2.643   3.946   1.100  1.5521  1.8691 -0.8229
 8450TIP3    H246766   2.551   4.059   1.142 -1.5526 -1.0726  0.4697
 8451TIP3   OH246767   5.140   4.178   3.292  0.1302  0.1131  0.3395
 8451TIP3    H146768   5.052   4.169   3.254 -0.2343  1.6876  0.7565
 8451TIP3    H246769   5.144   4.269   3.321  1.6637 -0.1330  0.9485
 8452TIP3   OH246770   2.755   5.399   0.953 -0.1174 -0.4842 -0.1661
 8452TIP3    H146771   2.790   5.451   0.881 -0.8891 -3.1592 -2.5533
 8452TIP3    H246772   2.660   5.403   0.942 -0.1827 -2.7024 -0.6486
 8453TIP3   OH246773   1.603   6.131  16.352  0.1354 -0.1488 -0.0289
 8453TIP3    H146774   1.689   6.126  16.311  0.4837  1.2937  0.5015
 8453TIP3    H246775   1.584   6.225  16.358 -1.2663 -0.4327  0.2928
 8454TIP3   OH246776   2.895   2.716   3.106 -0.0526 -0.0590 -0.0639
 8454TIP3    H146777   2.866   2.636   3.150  2.0933 -0.6466  0.3373
 8454TIP3    H246778   2.947   2.686   3.032 -0.7827  0.9690 -1.0271
 8455TIP3   OH246779   2.468   1.469  12.382 -0.1111  0.3485  0.1702
 8455TIP3    H146780   2.429   1.519  12.310 -0.5124 -1.3182 -0.8097
 8455TIP3    H246781   2.561   1.494  12.380  0.0523 -0.2798 -1.4907
 8456TIP3   OH246782   5.427   4.430  11.488 -0.9414  0.3628  0.2095
 8456TIP3    H146783   5.370   4.356  11.508 -0.8617 -0.5470 -2.7235
 8456TIP3    H246784   5.490   4.432  11.560 -0.5486 -2.8294  0.0189
 8457TIP3   OH246785   3.145   5.021  11.632  0.0064 -0.1325  0.2398
 8457TIP3    H146786   3.053   5.046  11.626 -0.5098 -1.6731  1.3010
 8457TIP3    H246787   3.193   5.101  11.613 -1.5363  0.3830 -1.6167
 8458TIP3   OH246788   0.942   2.782   4.951 -0.1594  0.4349 -0.4409
 8458TIP3    H146789   0.868   2.764   5.008  0.7231  0.4551  0.7264
 8458TIP3    H246790   0.904   2.827   4.875 -1.4378 -0.2947 -0.2403
 8459TIP3   OH246791   5.197   2.430   1.007  0.0745 -0.1854 -0.2311
 8459TIP3    H146792   5.198   2.501   1.072  0.1586  0.1767 -0.6233
 8459TIP3    H246793   5.111   2.437   0.966  0.3035  0.0590 -0.6709
 8460TIP3   OH246794   5.233   2.779   1.522 -0.5518  0.8581 -0.0736
 8460TIP3    H146795   5.262   2.804   1.610 -2.2182  0.6918  0.5314
 8460TIP3    H246796   5.240   2.859   1.471  1.1172  0.7897  0.0016
 8461TIP3   OH246797   2.274   2.553   2.651  0.1173 -0.3247 -0.4240
 8461TIP3    H146798   2.230   2.492   2.711  0.8716  0.5959  1.0781
 8461TIP3    H246799   2.358   2.571   2.693  1.2266 -0.7198 -2.4295
 8462TIP3   OH246800   0.476   1.188  15.655 -0.9958  0.2196  0.1926
 8462TIP3    H146801   0.470   1.283  15.644 -1.1837  0.1702 -0.1420
 8462TIP3    H246802   0.397   1.154  15.613 -0.4053 -0.1593 -0.6081
 8463TIP3   OH246803   5.115   6.549  15.937  0.4248 -0.1238 -0.3650
 8463TIP3    H146804   5.132   6.619  16.001  0.4783 -0.6394  0.1860
 8463TIP3    H246805   5.107   6.470  15.990  1.2268 -0.6805 -1.0647
 8464TIP3   OH246806   4.052   2.349   1.225 -0.0738 -0.1346 -0.3307
 8464TIP3    H146807   4.122   2.406   1.194  0.5432 -0.8514 -0.2568
 8464TIP3    H246808   3.992   2.408   1.270 -0.5736  0.8065 -2.1548
 8465TIP3   OH246809   0.022   4.916  12.381 -0.2261 -0.2535  0.0659
 8465TIP3    H146810  -0.025   4.834  12.363  0.6584 -0.8811  0.5739
 8465TIP3    H246811  -0.042   4.985  12.360  0.0896 -0.9615 -3.6904
 8466TIP3   OH246812   5.124   5.974   0.861 -0.0115  0.3384  0.9980
 8466TIP3    H146813   5.121   6.007   0.771  1.8750 -0.3736  0.6541
 8466TIP3    H246814   5.034   5.984   0.893 -0.4651  1.5770 -0.6064
 8467TIP3   OH246815   1.394   1.950   4.982  0.3305 -0.2906  0.3278
 8467TIP3    H146816   1.386   1.946   4.886  0.4336  0.3997  0.2863
 8467TIP3    H246817   1.485   1.975   4.996 -0.1833  1.4607  0.5644
 8468TIP3   OH246818   4.461   0.467   2.919  0.7089 -0.3766 -0.6789
 8468TIP3    H146819   4.413   0.525   2.978 -0.2378  1.5989 -3.3199
 8468TIP3    H246820   4.537   0.439   2.971  0.8344  2.6647  0.9419
 8469TIP3   OH246821   1.480   0.490   3.159 -0.2372  0.3973 -0.4880
 8469TIP3    H146822   1.466   0.408   3.112  3.9724 -0.2851 -0.7935
 8469TIP3    H246823   1.453   0.471   3.249 -3.1182 -0.0054 -1.3950
 8470TIP3   OH246824   4.826   6.191  11.769  0.5312  0.2425 -0.4332
 8470TIP3    H146825   4.863   6.172  11.856  0.0969 -0.2149 -0.3448
 8470TIP3    H246826   4.732   6.202  11.785  0.2914 -0.8982 -0.9997
 8471TIP3   OH246827   6.531   3.819  15.106  0.0219 -0.5508 -0.2381
 8471TIP3    H146828   6.610   3.789  15.062  1.1835 -0.4822  1.7425
 8471TIP3    H246829   6.505   3.898  15.059 -0.6392 -2.2427 -2.8184
 8472TIP3   OH246830   0.750   2.081   5.032 -0.3534  0.1389  0.3128
 8472TIP3    H146831   0.726   2.023   5.104 -3.2051  0.6161 -0.1935
 8472TIP3    H246832   0.670   2.091   4.981  0.8941  2.0238 -1.3789
 8473TIP3   OH246833   6.629   2.833  17.165  0.2697 -0.5364 -0.1212
 8473TIP3    H146834   6.689   2.762  17.189  0.1792 -0.4327  0.4144
 8473TIP3    H246835   6.638   2.896  17.236  1.3680  0.6148 -1.2675
 8474TIP3   OH246836   5.780   2.214  13.571 -0.9629  0.7526 -0.2662
 8474TIP3    H146837   5.735   2.149  13.518  0.2240 -0.5585  0.3173
 8474TIP3    H246838   5.762   2.189  13.661  0.2215  0.7113 -0.0308
 8475TIP3   OH246839   2.263   5.264  16.475  0.7115  0.5160 -0.0300
 8475TIP3    H146840   2.343   5.317  16.478  0.5817  1.0596 -3.5750
 8475TIP3    H246841   2.293   5.176  16.497  1.8367  1.1505  1.0577
 8476TIP3   OH246842   1.314   1.518   2.865  0.1741  0.2105 -0.0836
 8476TIP3    H146843   1.285   1.430   2.888  2.1816 -0.3757  0.3332
 8476TIP3    H246844   1.351   1.508   2.778  1.5302  0.3658  0.4648
 8477TIP3   OH246845   4.941   1.775   1.923  0.0289 -0.0985  0.2247
 8477TIP3    H146846   5.006   1.840   1.897  0.1537 -0.5130 -0.5152
 8477TIP3    H246847   4.928   1.722   1.844 -1.6415  0.3506  0.1887
 8478TIP3   OH246848   4.910   4.255  10.487  0.1513 -0.3828  0.5010
 8478TIP3    H146849   4.844   4.187  10.475  0.8445 -0.6921 -1.8229
 8478TIP3    H246850   4.860   4.333  10.509 -0.9486 -0.7684 -0.5706
 8479TIP3   OH246851   6.410   3.759   5.602  0.0591  0.2813 -0.1151
 8479TIP3    H146852   6.490   3.809   5.584 -0.4133  1.7123  1.5461
 8479TIP3    H246853   6.436   3.668   5.593  1.6225  0.7534 -0.6108
 8480TIP3   OH246854   4.211   4.137   1.354 -0.3855 -0.1996  0.1100
 8480TIP3    H146855   4.173   4.224   1.369  0.6731  0.2826  0.0586
 8480TIP3    H246856   4.139   4.076   1.371 -1.2419  0.7037 -0.2072
 8481TIP3   OH246857   4.071   4.100   4.333  0.6152 -0.3061  0.2079
 8481TIP3    H146858   4.086   4.169   4.268 -1.0857 -0.0151  0.1003
 8481TIP3    H246859   4.003   4.135   4.390  1.1026 -1.1366  1.3078
 8482TIP3   OH246860   5.310   0.763  11.683 -0.3974 -0.7628  0.1963
 8482TIP3    H146861   5.225   0.786  11.644  1.2737  2.1050 -1.9163
 8482TIP3    H246862   5.363   0.734  11.610  0.8851 -1.2430  1.3034
 8483TIP3   OH246863   5.886   2.281   0.579  0.5950  0.2057 -0.8629
 8483TIP3    H146864   5.882   2.237   0.494 -0.8422  1.4760 -1.4620
 8483TIP3    H246865   5.979   2.297   0.593  0.8659 -0.2497 -2.0688
 8484TIP3   OH246866   2.557   3.224   1.690 -0.5419 -0.0284 -0.0634
 8484TIP3    H146867   2.599   3.265   1.615  2.0514  2.0786  2.4710
 8484TIP3    H246868   2.481   3.279   1.709  0.2059  0.8496  0.3733
 8485TIP3   OH246869   3.266   2.754  14.015 -0.0327  0.5213 -0.0206
 8485TIP3    H146870   3.316   2.835  14.000 -1.2596  0.9753 -1.8532
 8485TIP3    H246871   3.203   2.777  14.083 -0.1733  1.0130 -0.3152
 8486TIP3   OH246872   4.156   2.479   0.148 -0.4260  0.2840 -0.0893
 8486TIP3    H146873   4.151   2.575   0.156 -0.6960  0.2670 -0.0312
 8486TIP3    H246874   4.179   2.464   0.057 -0.1286  0.4133 -0.0339
 8487TIP3   OH246875   2.876   4.612   3.093 -0.4316  0.8037  0.0268
 8487TIP3    H146876   2.794   4.585   3.052  0.0827 -1.1516  0.2329
 8487TIP3    H246877   2.893   4.543   3.158  0.0928  2.4967  1.7190
 8488TIP3   OH246878   1.542   4.954  12.799  0.0557 -0.2294 -0.0039
 8488TIP3    H146879   1.477   4.901  12.753  0.8969  1.0046 -2.7731
 8488TIP3    H246880   1.611   4.893  12.822 -0.8787 -1.0710  0.6157
 8489TIP3   OH246881   1.485   4.962  12.030 -0.1582 -0.0914 -0.0307
 8489TIP3    H146882   1.429   4.883  12.027  0.2012 -0.5106  2.4832
 8489TIP3    H246883   1.425   5.032  12.056  0.2510 -0.3362  1.6333
 8490TIP3   OH246884   4.605   4.195  17.052  0.2365 -0.6478  0.3570
 8490TIP3    H146885   4.697   4.173  17.063 -0.0785 -1.6536  1.1102
 8490TIP3    H246886   4.600   4.239  16.967  1.7095  1.2052  1.1877
 8491TIP3   OH246887   6.029   3.011   1.591 -0.0067 -0.4822 -0.1256
 8491TIP3    H146888   5.970   2.997   1.666 -0.3644  1.1250 -0.0905
 8491TIP3    H246889   6.111   2.969   1.617 -0.3169 -0.4601  0.9076
 8492TIP3   OH246890   5.045   6.496   4.223  0.2370  0.1698 -0.0497
 8492TIP3    H146891   5.041   6.401   4.233  0.1939  0.3062  1.2808
 8492TIP3    H246892   4.956   6.526   4.243  0.1722  0.4687 -0.7615
 8493TIP3   OH246893   0.540   3.128  17.120 -0.1907  0.0598  0.5053
 8493TIP3    H146894   0.554   3.189  17.192  1.0858 -0.4330  0.6806
 8493TIP3    H246895   0.450   3.096  17.134  0.2246 -0.4399  2.2088
 8494TIP3   OH246896   0.952   6.322  13.660 -0.3706  0.4706  0.5346
 8494TIP3    H146897   1.038   6.337  13.622 -0.0976 -1.1240  0.4853
 8494TIP3    H246898   0.969   6.271  13.739 -1.3077 -0.3917  0.2012
 8495TIP3   OH246899   1.877   2.103  13.661  0.1742  0.1595 -0.0371
 8495TIP3    H146900   1.958   2.071  13.621  0.3711 -1.1406  1.3329
 8495TIP3    H246901   1.837   2.024  13.700 -2.3427  0.5589 -1.6842
 8496TIP3   OH246902   6.493   1.285   3.029  0.4293  0.2512  0.1065
 8496TIP3    H146903   6.551   1.224   3.075  1.9237  1.9436  0.5624
 8496TIP3    H246904   6.523   1.283   2.938 -0.7455 -1.0740 -0.2561
 8497TIP3   OH246905   4.388   2.799   5.331 -0.9400  0.2254  0.2442
 8497TIP3    H146906   4.298   2.802   5.299 -0.1703  0.6868 -1.9646
 8497TIP3    H246907   4.430   2.877   5.293  0.0316  0.8248  2.4313
 8498TIP3   OH246908   3.909   3.459   5.866  0.0650  0.1832  0.2020
 8498TIP3    H146909   3.922   3.536   5.920 -0.8311  1.5530 -1.4909
 8498TIP3    H246910   3.835   3.413   5.906 -1.5052  1.9198 -0.6165
 8499TIP3   OH246911   5.997   3.426  15.562  0.3925  0.4219  0.6255
 8499TIP3    H146912   5.926   3.362  15.571  1.0399 -0.2823  0.7402
 8499TIP3    H246913   6.073   3.383  15.600  0.9993  0.9834  0.0500
 8500TIP3   OH246914   5.007   5.407   2.145 -0.0525  0.5746  0.1882
 8500TIP3    H146915   4.958   5.477   2.187  2.8773  1.5225  2.1541
 8500TIP3    H246916   5.010   5.432   2.052  0.4960  2.7824  0.7750
 8501TIP3   OH246917   4.830   4.732  16.941 -0.4652 -0.2955  0.0561
 8501TIP3    H146918   4.832   4.638  16.959  0.2525 -0.2304  0.3257
 8501TIP3    H246919   4.739   4.758  16.956 -0.5320 -0.8308  0.5600
 8502TIP3   OH246920   1.180   5.562  16.740  0.4485 -0.2998 -0.5178
 8502TIP3    H146921   1.128   5.510  16.680 -1.0974 -0.1615  0.6779
 8502TIP3    H246922   1.222   5.628  16.685  3.0567 -3.1876 -2.1834
 8503TIP3   OH246923   6.709   4.540   5.309 -0.0376 -0.7508 -0.4131
 8503TIP3    H146924   6.701   4.543   5.214 -0.3714 -1.2655 -0.4001
 8503TIP3    H246925   6.716   4.632   5.335 -0.7521 -0.5652 -0.8651
 8504TIP3   OH246926   2.730   1.384  15.882  0.4085  0.9497  0.3728
 8504TIP3    H146927   2.796   1.440  15.841  1.0522 -0.7088 -0.8734
 8504TIP3    H246928   2.750   1.296  15.851 -3.1609  0.5677 -1.0816
 8505TIP3   OH246929   0.702   5.175  16.238 -0.0312 -0.1351 -0.0614
 8505TIP3    H146930   0.764   5.247  16.224 -0.8852  0.5120 -0.5142
 8505TIP3    H246931   0.757   5.100  16.262  0.6861  1.5184  3.8882
 8506TIP3   OH246932   4.619   1.539  16.072 -0.5656 -0.3476 -0.8567
 8506TIP3    H146933   4.698   1.565  16.119 -1.1658  1.4514 -0.7790
 8506TIP3    H246934   4.640   1.553  15.980 -1.3716  1.9840 -0.7429
 8507TIP3   OH246935   6.067   6.648  12.380 -0.1053  0.1743  0.0285
 8507TIP3    H146936   6.085   6.741  12.394 -0.7131  0.5035 -1.2976
 8507TIP3    H246937   6.151   6.611  12.355 -0.0765  0.5857 -0.4974
 8508TIP3   OH246938   1.266   5.137  12.378  0.0689 -0.0795 -0.4002
 8508TIP3    H146939   1.220   5.056  12.404  0.6935 -0.3820 -0.2358
 8508TIP3    H246940   1.196   5.202  12.370 -0.5558 -0.8727 -1.5034
 8509TIP3   OH246941   1.270   3.787   4.821  0.4326 -0.2047 -0.2944
 8509TIP3    H146942   1.285   3.843   4.897 -0.2992  0.8031 -0.8772
 8509TIP3    H246943   1.299   3.840   4.746  1.9056 -1.4935 -0.6621
 8510TIP3   OH246944   1.583   6.658  17.119 -0.2284  0.1871 -0.1939
 8510TIP3    H146945   1.535   6.689  17.042  0.5485 -1.2341 -1.2642
 8510TIP3    H246946   1.524   6.675  17.192 -1.1381  1.1955 -1.1306
 8511TIP3   OH246947   1.047   1.609   1.708 -0.1351  0.3042  0.1214
 8511TIP3    H146948   1.088   1.597   1.794 -1.9253 -0.4884  0.8742
 8511TIP3    H246949   1.009   1.697   1.711 -0.0047  0.3627  0.0595
 8512TIP3   OH246950   5.704   0.767   5.759 -0.2257  0.4077  0.2106
 8512TIP3    H146951   5.752   0.743   5.839  1.1235  1.2743 -0.3121
 8512TIP3    H246952   5.753   0.724   5.689 -0.2750  1.2014 -0.3163
 8513TIP3   OH246953   6.298   2.996  13.674 -0.1699  0.0591 -0.3482
 8513TIP3    H146954   6.221   2.946  13.702  0.2045 -0.5296 -0.3454
 8513TIP3    H246955   6.285   3.083  13.710 -0.0219 -0.4942  1.1024
 8514TIP3   OH246956   5.792   0.947   4.891  0.5083 -0.1919 -0.3674
 8514TIP3    H146957   5.823   0.916   4.806  1.1216  0.1923 -0.2894
 8514TIP3    H246958   5.822   0.881   4.953 -1.8575 -1.6466 -0.6889
 8515TIP3   OH246959   3.283   6.549  12.875 -0.2923 -0.3452 -0.1896
 8515TIP3    H146960   3.342   6.500  12.818 -0.9060 -2.1527  0.6672
 8515TIP3    H246961   3.312   6.528  12.963 -1.8938 -0.8861  0.2377
 8516TIP3   OH246962   6.747   5.342  12.250 -0.3329 -0.0204  0.0025
 8516TIP3    H146963   6.716   5.285  12.180 -2.5822  0.7830  0.3112
 8516TIP3    H246964   6.756   5.428  12.210 -2.5167  0.6443  0.8939
 8517TIP3   OH246965   1.010   0.919   4.703 -0.1265 -0.1633  0.1671
 8517TIP3    H146966   0.994   0.894   4.612 -0.8345 -2.0641  0.7889
 8517TIP3    H246967   0.929   0.895   4.749 -0.0309  1.4091  1.1768
 8518TIP3   OH246968   3.611   4.300  16.165 -0.2414  0.2727  0.2912
 8518TIP3    H146969   3.542   4.280  16.229 -0.6827  0.8582 -0.0037
 8518TIP3    H246970   3.567   4.297  16.081  0.1908  0.2327  0.0629
 8519TIP3   OH246971   3.517   1.075   2.347 -0.4696  0.5097  0.0096
 8519TIP3    H146972   3.494   0.987   2.319  0.0008  0.4778 -0.2847
 8519TIP3    H246973   3.593   1.064   2.405 -0.8923  0.6523  0.5936
 8520TIP3   OH246974   1.784   0.727  16.050 -0.1364  0.2231  0.0410
 8520TIP3    H146975   1.854   0.776  16.094 -0.2610 -1.8113  2.5460
 8520TIP3    H246976   1.751   0.667  16.116 -1.4204 -1.7976 -2.3832
 8521TIP3   OH246977   5.446   0.344  14.644 -0.1117  0.5589  0.3311
 8521TIP3    H146978   5.501   0.420  14.666  0.3118 -0.1400  1.7507
 8521TIP3    H246979   5.504   0.269  14.655 -1.2897 -0.1782  1.6543
 8522TIP3   OH246980   1.182   0.213  12.773  0.5058 -0.3787 -0.2937
 8522TIP3    H146981   1.135   0.256  12.844  0.9086 -1.0543  0.3815
 8522TIP3    H246982   1.169   0.271  12.698 -2.4164 -1.1614 -0.4294
 8523TIP3   OH246983   5.811   2.307   2.622 -0.3564  0.4076  0.3468
 8523TIP3    H146984   5.839   2.232   2.569  0.6304  1.3952 -0.5509
 8523TIP3    H246985   5.718   2.316   2.602 -0.3313 -0.1636 -0.0554
 8524TIP3   OH246986   3.646   2.125   0.966 -0.1009  0.4234 -0.0930
 8524TIP3    H146987   3.650   2.126   0.871  0.6412  0.8567 -0.0661
 8524TIP3    H246988   3.560   2.162   0.987 -0.3381  0.1626 -0.5934
 8525TIP3   OH246989   6.341   4.987   2.657  0.1860  0.2057  0.4179
 8525TIP3    H146990   6.379   5.074   2.645 -0.9225  0.5093 -0.8669
 8525TIP3    H246991   6.372   4.936   2.582  0.3271 -0.3491  0.8418
 8526TIP3   OH246992   5.899   1.047  14.639 -0.4423  0.2180  1.0661
 8526TIP3    H146993   5.825   1.083  14.589  0.6516  0.8716 -0.1163
 8526TIP3    H246994   5.932   0.976  14.585  1.5224  1.7231  0.2247
 8527TIP3   OH246995   1.042   4.109   0.385  0.4074 -0.0708 -0.3138
 8527TIP3    H146996   1.061   4.180   0.447  0.7143 -0.2555 -0.1950
 8527TIP3    H246997   0.971   4.144   0.330  0.0785  0.0589  0.1920
 8528TIP3   OH246998   6.278   4.808   1.650 -0.4171 -0.5939  0.4367
 8528TIP3    H146999   6.234   4.723   1.650 -0.4582 -0.5735  0.3112
 8528TIP3    H247000   6.368   4.788   1.674 -0.7055 -0.5245  1.5992
 8529TIP3   OH247001   3.265   1.385   1.996 -0.0975  0.5760 -0.0965
 8529TIP3    H147002   3.270   1.309   2.054  2.4406  1.3996  0.8378
 8529TIP3    H247003   3.241   1.458   2.052 -0.8839  0.7882 -0.6944
 8530TIP3   OH247004   2.748   6.022  13.834 -0.2679  0.1261  0.7420
 8530TIP3    H147005   2.743   6.084  13.907 -1.0540  0.5411  0.3478
 8530TIP3    H247006   2.820   6.054  13.780 -1.5412  1.4904 -0.1707
 8531TIP3   OH247007   2.265   1.054   4.433  0.0011 -0.2386  0.6074
 8531TIP3    H147008   2.271   1.140   4.392  1.0494 -1.3349 -1.6024
 8531TIP3    H247009   2.311   1.065   4.517  0.8379  1.1380 -0.0047
 8532TIP3   OH247010   2.913   4.518  12.341 -0.2465  0.2477  0.4529
 8532TIP3    H147011   2.895   4.525  12.247  2.0442 -2.1284 -0.2062
 8532TIP3    H247012   2.972   4.443  12.349 -0.2781  0.5091  3.7904
 8533TIP3   OH247013   5.830   0.977   3.536 -0.0886 -0.0723  0.7994
 8533TIP3    H147014   5.756   0.963   3.477 -0.5143  2.0810  0.7980
 8533TIP3    H247015   5.790   1.008   3.617  0.7748  0.4956  1.0129
 8534TIP3   OH247016   1.386   0.721   1.241  0.3710 -0.6444 -0.5932
 8534TIP3    H147017   1.420   0.639   1.207  1.0046 -0.2613 -0.8805
 8534TIP3    H247018   1.399   0.785   1.171  0.5612 -0.1299 -0.0935
 8535TIP3   OH247019   3.926   0.449   3.544  0.7021 -0.1733  0.6039
 8535TIP3    H147020   3.968   0.364   3.529 -0.0808 -0.4792  0.1123
 8535TIP3    H247021   3.834   0.435   3.521  0.6771  0.9527 -0.0450
 8536TIP3   OH247022   4.075   0.755  14.476  0.0046 -0.5180 -0.2733
 8536TIP3    H147023   4.107   0.844  14.490 -1.8801  0.4078 -1.6525
 8536TIP3    H247024   4.127   0.701  14.535  2.7969  1.1759 -1.0710
 8537TIP3   OH247025   3.756   4.564  16.083  0.1093 -0.3264 -0.2613
 8537TIP3    H147026   3.664   4.576  16.104  0.3789  0.7239  0.3666
 8537TIP3    H247027   3.791   4.653  16.077  1.1513 -0.7242 -0.1396
 8538TIP3   OH247028   1.558   1.638   4.469  0.8441 -0.2729  0.2843
 8538TIP3    H147029   1.548   1.671   4.379  0.9059  0.6038  0.6023
 8538TIP3    H247030   1.612   1.559   4.459 -1.5933 -1.8815 -0.8008
 8539TIP3   OH247031   0.123   2.220  12.692  0.1909 -0.1682 -0.5852
 8539TIP3    H147032   0.134   2.249  12.602 -2.1722  0.2748 -0.7441
 8539TIP3    H247033   0.096   2.298  12.740  0.8459 -0.5356  0.4001
 8540TIP3   OH247034   4.459   5.935  14.246 -0.4771  0.0951 -0.3957
 8540TIP3    H147035   4.430   5.863  14.302 -1.3342  0.5780 -0.2023
 8540TIP3    H247036   4.549   5.952  14.272 -0.3922 -0.6731 -0.1958
 8541TIP3   OH247037   2.846   3.299   0.645 -0.0171  0.7266 -0.2546
 8541TIP3    H147038   2.829   3.375   0.590 -1.0529  0.6173 -0.1055
 8541TIP3    H247039   2.845   3.333   0.734 -4.3826 -0.0374  0.1038
 8542TIP3   OH247040   1.004   1.876  13.513 -0.1234 -0.0105 -0.2676
 8542TIP3    H147041   0.996   1.781  13.514 -0.3630  0.0121 -0.1695
 8542TIP3    H247042   0.914   1.908  13.511 -0.0891  0.2528  1.7560
 8543TIP3   OH247043   4.670   2.273   5.606  1.0086 -0.1343  0.7000
 8543TIP3    H147044   4.588   2.278   5.654  0.1303 -0.7896 -0.6994
 8543TIP3    H247045   4.704   2.186   5.625  1.7697  0.4117  1.8832
 8544TIP3   OH247046   0.833   3.108  14.123  0.1657 -0.2170 -0.2206
 8544TIP3    H147047   0.863   3.180  14.066  0.3193 -0.7923 -0.8778
 8544TIP3    H247048   0.902   3.099  14.188 -0.4027  1.0062  0.5704
 8545TIP3   OH247049   1.221   2.215   4.853  0.2666 -0.3367 -0.3721
 8545TIP3    H147050   1.262   2.161   4.786 -0.7119 -2.4701  0.7021
 8545TIP3    H247051   1.131   2.182   4.859 -1.0764  2.9239 -1.2904
 8546TIP3   OH247052   5.123   3.727  15.508  0.6483 -0.3846  0.0018
 8546TIP3    H147053   5.098   3.806  15.459 -0.1924  0.0977  1.1907
 8546TIP3    H247054   5.102   3.655  15.449 -0.4296  0.1846 -0.3325
 8547TIP3   OH247055   4.790   5.991   2.125  0.1180 -0.0275 -0.1417
 8547TIP3    H147056   4.698   6.006   2.146 -0.3197 -2.0098 -0.5178
 8547TIP3    H247057   4.827   5.952   2.205  0.3698 -0.2155 -0.3483
 8548TIP3   OH247058   6.612   6.533   0.650 -0.3696 -0.0748  0.1776
 8548TIP3    H147059   6.636   6.624   0.669  0.2096 -0.1233 -0.3460
 8548TIP3    H247060   6.580   6.535   0.560 -1.8690 -0.1042  0.6845
 8549TIP3   OH247061   1.413   0.406   3.466 -0.3479 -0.4899  0.4595
 8549TIP3    H147062   1.468   0.452   3.529  0.0485 -0.0664 -0.1931
 8549TIP3    H247063   1.389   0.324   3.510  0.0715 -0.2811  1.0838
 8550TIP3   OH247064   4.487   4.274   2.880  0.0824  0.0813  0.5565
 8550TIP3    H147065   4.563   4.236   2.836 -0.3223 -1.2028  0.9177
 8550TIP3    H247066   4.489   4.235   2.968 -1.2941 -0.4191  0.3887
 8551TIP3   OH247067   2.649   1.269  13.211  0.2271  0.1745  0.9847
 8551TIP3    H147068   2.636   1.279  13.116  2.3706 -0.2558  0.6226
 8551TIP3    H247069   2.697   1.187  13.220  0.6007  0.5477  2.4026
 8552TIP3   OH247070   2.520   5.449  12.171 -0.5946 -0.6009  0.1667
 8552TIP3    H147071   2.480   5.411  12.249 -2.0932  1.2044  0.3047
 8552TIP3    H247072   2.446   5.476  12.117  0.4330  1.1533 -0.3906
 8553TIP3   OH247073   1.970   1.203   2.854  0.0314 -0.0301  0.9878
 8553TIP3    H147074   1.998   1.183   2.765  0.1111  1.1296  0.7450
 8553TIP3    H247075   2.029   1.153   2.910  0.6744  0.0829  0.4153
 8554TIP3   OH247076   5.844   2.218   3.471 -0.6936 -0.5875  0.0780
 8554TIP3    H147077   5.893   2.136   3.482  2.0946  1.0847  0.4642
 8554TIP3    H247078   5.811   2.238   3.558 -0.9789 -1.0337  0.0766
 8555TIP3   OH247079   1.627   3.714  11.552 -1.0260  0.3491 -0.3173
 8555TIP3    H147080   1.634   3.768  11.631 -2.4807 -0.4923  0.4087
 8555TIP3    H247081   1.677   3.635  11.573 -0.9143  0.3818 -0.4625
 8556TIP3   OH247082   4.408   5.601   4.647  0.1162  0.2156  0.2860
 8556TIP3    H147083   4.479   5.536   4.651 -1.0136 -1.1696 -1.4521
 8556TIP3    H247084   4.398   5.620   4.554 -1.5312  0.7038  0.5415
 8557TIP3   OH247085   3.667   0.404  10.562  0.6083  0.4853 -0.5422
 8557TIP3    H147086   3.732   0.470  10.537  0.0928  1.3560  0.3970
 8557TIP3    H247087   3.667   0.404  10.658 -1.8710  1.6154 -0.4919
 8558TIP3   OH247088   1.632   0.870   2.900  0.0399 -0.8439  0.0564
 8558TIP3    H147089   1.552   0.856   2.951 -0.4346  1.1897 -0.1020
 8558TIP3    H247090   1.661   0.781   2.878 -1.7549 -1.6408  0.7404
 8559TIP3   OH247091   0.455   4.296  15.832 -0.0908  0.7235 -0.5021
 8559TIP3    H147092   0.517   4.241  15.880 -1.1649  0.2144  0.3157
 8559TIP3    H247093   0.417   4.238  15.766 -0.9889  0.5617  0.1499
 8560TIP3   OH247094   3.575   6.173  16.752 -0.3628  0.5460  0.0632
 8560TIP3    H147095   3.590   6.078  16.758 -1.2505  0.3855 -0.2916
 8560TIP3    H247096   3.611   6.208  16.834 -0.9019 -0.2044  0.6266
 8561TIP3   OH247097   6.178   4.169  13.276  0.0028 -0.6558 -0.5505
 8561TIP3    H147098   6.095   4.175  13.323  1.1328  1.6093  1.2931
 8561TIP3    H247099   6.155   4.177  13.184 -2.0404 -2.6330 -0.2497
 8562TIP3   OH247100   0.993   5.022  16.683 -0.3832 -1.0396  0.1660
 8562TIP3    H147101   0.900   5.044  16.684 -0.0233  0.5627 -0.7147
 8562TIP3    H247102   1.001   4.950  16.746 -2.5218 -2.4226 -1.0810
 8563TIP3   OH247103   4.239   2.583   2.185 -0.3120 -0.1291 -0.4484
 8563TIP3    H147104   4.224   2.645   2.255  1.5220  1.0876 -1.1046
 8563TIP3    H247105   4.329   2.553   2.197 -0.2533 -0.5479 -1.7668
 8564TIP3   OH247106   0.957   1.180  12.366 -0.4936  0.7943  0.4107
 8564TIP3    H147107   1.023   1.168  12.434  0.9502  0.6753 -0.9661
 8564TIP3    H247108   0.918   1.093  12.355  0.5155  0.3907 -0.1234
 8565TIP3   OH247109   3.119   1.107  15.481 -0.0916 -0.3656 -0.1532
 8565TIP3    H147110   3.092   1.193  15.447 -0.6151 -0.3283  0.3309
 8565TIP3    H247111   3.211   1.100  15.459  0.0790  0.5442  0.2253
 8566TIP3   OH247112   4.143   1.102   2.545  0.2662 -0.0918  0.2197
 8566TIP3    H147113   4.087   1.038   2.588 -0.6021  1.6793  1.7777
 8566TIP3    H247114   4.120   1.096   2.452 -1.4424 -0.4367  0.6528
 8567TIP3   OH247115   3.450   2.598   6.787  0.5838  0.1260 -0.1134
 8567TIP3    H147116   3.520   2.535   6.803  0.1513 -0.1903  0.5193
 8567TIP3    H247117   3.446   2.651   6.866  0.0587  0.1002 -0.1200
 8568TIP3   OH247118   1.418   5.114   3.243  0.0335 -0.2120 -0.0517
 8568TIP3    H147119   1.368   5.112   3.325  0.5381 -1.9855  0.2235
 8568TIP3    H247120   1.508   5.129   3.271  0.3903 -2.0169 -0.1733
 8569TIP3   OH247121   0.868   1.118   6.742  0.1375 -0.2041  0.0133
 8569TIP3    H147122   0.859   1.034   6.697 -0.3644 -0.1676  0.0423
 8569TIP3    H247123   0.855   1.097   6.835  0.0060 -0.0927  0.0196
 8570TIP3   OH247124   6.651   1.569   0.999 -0.2047  0.0118 -0.5240
 8570TIP3    H147125   6.648   1.528   0.913  0.8674  2.3037 -1.6957
 8570TIP3    H247126   6.731   1.535   1.039 -1.1900 -1.7755 -0.0309
 8571TIP3   OH247127   6.627   6.580   0.347  0.0093 -0.4988  0.2030
 8571TIP3    H147128   6.592   6.659   0.305 -2.4369 -1.2531  0.7363
 8571TIP3    H247129   6.606   6.509   0.287  2.2572 -0.7759 -0.3053
 8572TIP3   OH247130   5.932   4.194  12.699 -0.0552 -0.0845 -0.1472
 8572TIP3    H147131   5.947   4.268  12.641  0.2664  0.5450  0.7285
 8572TIP3    H247132   5.884   4.131  12.646 -0.3147  0.7481 -0.9032
 8573TIP3   OH247133   1.903   1.105   1.867  0.3027 -0.4212  0.2175
 8573TIP3    H147134   1.914   1.192   1.903 -1.3160 -1.1070  2.4683
 8573TIP3    H247135   1.966   1.051   1.914 -0.2345 -0.8949  0.3967
 8574TIP3   OH247136   0.414   4.934   0.217  0.1230 -0.8057  0.5460
 8574TIP3    H147137   0.489   4.959   0.271  0.8649 -0.7418 -0.5049
 8574TIP3    H247138   0.447   4.862   0.163  0.3754  1.2168 -2.1285
 8575TIP3   OH247139   5.544   2.569   4.675 -0.0711 -0.0967  0.0217
 8575TIP3    H147140   5.477   2.620   4.720  1.1320  1.0530  0.5409
 8575TIP3    H247141   5.509   2.480   4.673 -1.7723  0.5486 -0.0382
 8576TIP3   OH247142   5.053   5.227  13.090 -0.0253  0.3005 -0.2513
 8576TIP3    H147143   5.034   5.269  13.174 -1.4056  1.1793 -0.9978
 8576TIP3    H247144   4.984   5.161  13.080 -0.1469  0.5312 -0.9289
 8577TIP3   OH247145   3.442   6.725  15.863 -0.2714  0.3395 -0.2788
 8577TIP3    H147146   3.527   6.723  15.818  0.0596 -0.3532  0.3517
 8577TIP3    H247147   3.398   6.645  15.834 -0.0032 -0.1806  0.6974
 8578TIP3   OH247148   6.411   0.276   3.035  0.0911  0.0717  0.1013
 8578TIP3    H147149   6.368   0.332   3.100  0.0054 -0.5458  0.5725
 8578TIP3    H247150   6.412   0.189   3.074 -0.2301 -0.3685 -0.8430
 8579TIP3   OH247151   0.101   6.495  13.325 -0.0283  0.0595  0.2667
 8579TIP3    H147152   0.115   6.579  13.369  0.9068  1.0345 -1.8181
 8579TIP3    H247153   0.171   6.490  13.260  0.0159 -2.4319  0.4795
 8580TIP3   OH247154   6.764   4.756   1.898 -0.4576 -0.1683 -0.4125
 8580TIP3    H147155   6.759   4.666   1.929 -0.1013 -0.5363 -1.4073
 8580TIP3    H247156   6.815   4.802   1.964 -0.9522 -0.6062  0.2859
 8581TIP3   OH247157   0.494   1.442  15.546 -0.3080 -0.0255 -0.1400
 8581TIP3    H147158   0.566   1.469  15.603  0.9240  0.8365 -2.0754
 8581TIP3    H247159   0.462   1.524  15.508 -1.5959 -0.5216 -0.1476
 8582TIP3   OH247160   5.616   1.430  11.325  0.2412 -0.2515  0.2090
 8582TIP3    H147161   5.660   1.475  11.396  1.7600  0.1423 -0.9624
 8582TIP3    H247162   5.671   1.446  11.248 -0.0804 -2.6835 -0.5768
 8583TIP3   OH247163   4.610   2.369   4.793 -0.1060 -0.0244  0.0233
 8583TIP3    H147164   4.687   2.313   4.806  0.8569  1.2953  0.0254
 8583TIP3    H247165   4.626   2.414   4.710 -0.0135  1.6177  0.9105
 8584TIP3   OH247166   3.218   0.357   6.483  0.4737 -0.0942  0.0631
 8584TIP3    H147167   3.279   0.431   6.487  1.0662 -0.5682  0.0333
 8584TIP3    H247168   3.275   0.280   6.483 -0.0320 -0.5043 -2.3467
 8585TIP3   OH247169   0.968   1.780   2.703 -0.3970  0.1719 -0.4374
 8585TIP3    H147170   1.050   1.827   2.690 -0.7494  0.7145 -0.6843
 8585TIP3    H247171   0.981   1.733   2.786  0.7796 -1.0576 -1.2780
 8586TIP3   OH247172   6.383   0.347  13.093 -0.4804 -0.0520  0.1259
 8586TIP3    H147173   6.384   0.255  13.119 -1.8658 -0.1262 -0.0438
 8586TIP3    H247174   6.382   0.395  13.176 -1.7990 -0.2364  0.2292
 8587TIP3   OH247175   5.493   6.112  10.658  0.0135 -0.4185  0.2854
 8587TIP3    H147176   5.513   6.075  10.572  0.3630 -0.3294  0.3262
 8587TIP3    H247177   5.397   6.119  10.659  0.0140 -0.2951 -0.1478
 8588TIP3   OH247178   4.321   0.454  15.495 -0.5630 -0.7283 -0.0792
 8588TIP3    H147179   4.340   0.360  15.503 -1.7870 -0.7992  2.3295
 8588TIP3    H247180   4.277   0.477  15.577  0.1044  2.0584 -0.4447
 8589TIP3   OH247181   5.899   6.015  11.972 -0.1497 -0.0136  0.0479
 8589TIP3    H147182   5.994   6.012  11.964  0.1616 -0.5997  3.3112
 8589TIP3    H247183   5.880   6.106  11.996 -0.2854 -0.2215  0.7289
 8590TIP3   OH247184   0.464   2.044   2.275 -0.3751  0.9175 -0.6442
 8590TIP3    H147185   0.538   2.091   2.313  2.3660 -1.7512 -2.4364
 8590TIP3    H247186   0.463   2.070   2.183 -0.5173 -0.3996 -1.0345
 8591TIP3   OH247187   6.530   4.710   3.292  0.0626 -0.0802 -0.6526
 8591TIP3    H147188   6.478   4.698   3.212  0.5414  0.3734 -1.0388
 8591TIP3    H247189   6.492   4.788   3.333 -1.9252 -1.8414  0.9614
 8592TIP3   OH247190   3.678   1.726   4.514 -0.3188 -0.8846  0.0135
 8592TIP3    H147191   3.623   1.659   4.553 -2.5503  0.8204 -0.0544
 8592TIP3    H247192   3.711   1.777   4.588 -0.9245 -0.3662 -0.0655
 8593TIP3   OH247193   0.540   4.365  15.070 -0.1783 -0.2927  0.0148
 8593TIP3    H147194   0.463   4.372  15.013 -2.0668  1.0166  2.5908
 8593TIP3    H247195   0.549   4.271  15.085 -2.0187 -0.4169  0.5700
 8594TIP3   OH247196   2.739   3.241  15.772  0.1291 -0.7190  0.4893
 8594TIP3    H147197   2.666   3.221  15.712  0.2505 -0.8729  0.3939
 8594TIP3    H247198   2.696   3.266  15.854 -0.0163 -1.3379  0.5990
 8595TIP3   OH247199   5.878   4.810  11.929 -0.4726 -0.7316  0.0146
 8595TIP3    H147200   5.896   4.888  11.982 -0.4481 -0.8612  0.1957
 8595TIP3    H247201   5.787   4.821  11.901 -0.6995 -0.9820  0.6267
 8596TIP3   OH247202   2.976   3.620   5.684 -0.4757  0.2909  0.1974
 8596TIP3    H147203   2.898   3.605   5.631 -0.9218 -1.0287  1.1862
 8596TIP3    H247204   3.048   3.626   5.621 -1.4756  2.3704 -0.7741
 8597TIP3   OH247205   1.745   2.630   2.522 -0.2704  0.2853  0.3665
 8597TIP3    H147206   1.713   2.545   2.492  0.6208 -0.1373  0.5966
 8597TIP3    H247207   1.685   2.655   2.592 -0.3858 -0.2720  0.4685
 8598TIP3   OH247208   3.780   2.253   0.518 -0.2250  0.5969  0.0659
 8598TIP3    H147209   3.859   2.265   0.467  1.0383  0.1651  1.8608
 8598TIP3    H247210   3.709   2.281   0.460  1.1234 -0.0499 -1.9467
 8599TIP3   OH247211   0.152   3.378   2.937 -0.6028 -0.2372  0.0426
 8599TIP3    H147212   0.143   3.356   2.844 -0.4551  0.7188 -0.2038
 8599TIP3    H247213   0.244   3.401   2.948 -0.4387 -1.1165  0.6060
 8600TIP3   OH247214   1.255   0.915   4.511  0.0391  0.0994  0.0712
 8600TIP3    H147215   1.227   1.003   4.483 -1.4704 -0.4375 -0.1206
 8600TIP3    H247216   1.336   0.900   4.462 -1.5494 -0.0418 -2.6215
 8601TIP3   OH247217   1.670   6.070   3.704  0.2915  0.3015 -0.1668
 8601TIP3    H147218   1.691   6.163   3.692  0.0017  0.3883 -0.0101
 8601TIP3    H247219   1.720   6.025   3.636  1.7222  0.4187  0.7998
 8602TIP3   OH247220   0.835   2.759   3.487  0.2611 -0.0223  0.7104
 8602TIP3    H147221   0.915   2.765   3.539  1.1755  0.8708 -0.7298
 8602TIP3    H247222   0.766   2.790   3.544  1.4486  2.2548  0.9799
 8603TIP3   OH247223   4.005   5.122  16.537 -0.2281 -0.0707 -0.3225
 8603TIP3    H147224   4.099   5.101  16.536  0.5090  2.9426 -0.7604
 8603TIP3    H247225   3.962   5.039  16.559  2.6048 -1.2499  1.0619
 8604TIP3   OH247226   2.128   6.196  15.674  0.0967 -0.4775 -0.2151
 8604TIP3    H147227   2.085   6.111  15.679 -0.4041 -0.3223 -1.6306
 8604TIP3    H247228   2.079   6.244  15.608  1.8190  0.0611 -1.1355
 8605TIP3   OH247229   5.452   1.594  14.684  0.0096 -0.3203  0.1501
 8605TIP3    H147230   5.408   1.664  14.635 -0.6379 -0.4858  0.4910
 8605TIP3    H247231   5.482   1.637  14.764 -0.0150 -0.3361  0.1676
 8606TIP3   OH247232   3.189   1.034  16.379 -0.3330 -0.3622 -0.0609
 8606TIP3    H147233   3.107   1.036  16.430 -1.6239 -2.7076 -1.9530
 8606TIP3    H247234   3.166   1.073  16.295  0.3048 -1.7074 -0.8638
 8607TIP3   OH247235   4.192   0.854   2.374 -0.1718 -0.4250 -0.6196
 8607TIP3    H147236   4.251   0.912   2.326 -2.2993  0.0830 -2.6800
 8607TIP3    H247237   4.207   0.768   2.337 -0.6219 -0.3156 -1.0627
 8608TIP3   OH247238   0.240   2.654  11.298 -0.5120  0.3225 -0.6393
 8608TIP3    H147239   0.240   2.750  11.296  0.2227  0.3207 -1.1492
 8608TIP3    H247240   0.179   2.631  11.368 -0.0240  1.1771  0.0814
 8609TIP3   OH247241   5.513   1.726  11.679  0.0993  0.0400  0.1574
 8609TIP3    H147242   5.451   1.753  11.612 -0.2063  1.3839  0.9803
 8609TIP3    H247243   5.593   1.775  11.659  0.6138 -0.9702 -0.3310
 8610TIP3   OH247244   2.483   3.029  11.458 -0.4669  0.2042  0.1014
 8610TIP3    H147245   2.557   2.968  11.464 -0.4584  0.3750  2.1641
 8610TIP3    H247246   2.442   3.008  11.374  1.8485  0.0355 -1.0378
 8611TIP3   OH247247   6.433   1.578  14.775  0.1695  0.5042 -0.2685
 8611TIP3    H147248   6.437   1.672  14.756 -0.2763  0.5765 -0.0025
 8611TIP3    H247249   6.367   1.570  14.844  1.0126  0.1142  0.4963
 8612TIP3   OH247250   0.424   2.623   0.205 -0.2485  0.3880  0.1984
 8612TIP3    H147251   0.352   2.581   0.158 -0.7547 -0.3398  1.6080
 8612TIP3    H247252   0.503   2.583   0.168 -0.6774 -0.8878  0.6247
 8613TIP3   OH247253   5.489   4.988   3.373  0.3746 -0.5484 -0.3683
 8613TIP3    H147254   5.560   5.042   3.407  1.1432 -1.8030  0.0789
 8613TIP3    H247255   5.532   4.931   3.308 -0.1408 -1.5650  0.1675
 8614TIP3   OH247256   2.484   6.363  14.752 -0.4411  0.4241  0.6805
 8614TIP3    H147257   2.459   6.291  14.810  1.6054 -1.8460 -1.1338
 8614TIP3    H247258   2.462   6.442  14.801 -0.2365 -1.4159  3.8943
 8615TIP3   OH247259   5.028   5.526   5.973  0.3444  0.1528  0.4001
 8615TIP3    H147260   4.941   5.497   5.943  1.9889 -3.5387 -1.1178
 8615TIP3    H247261   5.032   5.497   6.065 -0.2819  0.9597  0.6866
 8616TIP3   OH247262   6.591   2.798  16.861  0.0397  0.0973  0.2436
 8616TIP3    H147263   6.571   2.809  16.954 -0.9535  0.7447 -0.0370
 8616TIP3    H247264   6.580   2.704  16.846  0.5920 -0.0687  0.8680
 8617TIP3   OH247265   5.726   0.742  16.302  0.4774 -0.1843 -0.1971
 8617TIP3    H147266   5.741   0.660  16.256 -0.9036 -0.2936 -0.4533
 8617TIP3    H247267   5.676   0.717  16.380 -1.3483  0.5951 -1.0910
 8618TIP3   OH247268   2.004   5.908  14.920 -0.0329  0.2218  0.4483
 8618TIP3    H147269   1.917   5.906  14.960 -0.8614 -0.9079 -1.3187
 8618TIP3    H247270   2.001   5.840  14.852  1.6864  1.2745 -0.7445
 8619TIP3   OH247271   4.659   6.537  15.676  0.0860  0.6998 -0.3576
 8619TIP3    H147272   4.640   6.443  15.673  0.1267  0.7329 -1.6552
 8619TIP3    H247273   4.754   6.543  15.663  0.0549  0.9435 -0.4769
 8620TIP3   OH247274   2.285   6.178  17.098 -0.3918 -0.6360 -0.3444
 8620TIP3    H147275   2.321   6.266  17.088 -0.5235 -0.5067  0.3298
 8620TIP3    H247276   2.202   6.191  17.143 -0.0036 -1.1835  0.5489
 8621TIP3   OH247277   6.493   3.001  14.979 -0.3284  0.5910 -0.0731
 8621TIP3    H147278   6.533   2.922  15.014  2.1505  1.1228 -1.5741
 8621TIP3    H247279   6.566   3.063  14.971 -1.5026  1.6918 -2.6431
 8622TIP3   OH247280   2.197   0.417  10.770  0.1184 -0.1320 -0.1438
 8622TIP3    H147281   2.269   0.382  10.719 -0.5544 -0.1534 -1.0974
 8622TIP3    H247282   2.225   0.505  10.794  0.0131  0.2638 -1.4408
 8623TIP3   OH247283   2.012   2.355   4.466  0.5944  0.6909  0.4642
 8623TIP3    H147284   2.083   2.305   4.426 -0.4142  1.4139 -2.3756
 8623TIP3    H247285   1.933   2.322   4.422 -0.3000  3.1904  0.1432
 8624TIP3   OH247286   1.362   1.406  17.048 -0.0012 -0.4285 -0.0951
 8624TIP3    H147287   1.413   1.486  17.035  0.6913 -0.7745  0.4421
 8624TIP3    H247288   1.372   1.387  17.141 -1.4181 -0.2989  0.0925
 8625TIP3   OH247289   3.486   1.313  15.020  0.8526  0.2519  0.3671
 8625TIP3    H147290   3.455   1.224  15.008  0.3892  0.4790 -0.1551
 8625TIP3    H247291   3.573   1.315  14.979  0.7496  0.1093  0.1442
 8626TIP3   OH247292   1.151   3.001  12.197 -0.1070 -0.2879 -0.4066
 8626TIP3    H147293   1.153   2.916  12.154  3.1692 -0.7029  0.4316
 8626TIP3    H247294   1.127   2.981  12.288  1.6273 -0.4878  0.0321
 8627TIP3   OH247295   6.372   3.611   4.113  0.4993  0.5139 -0.1034
 8627TIP3    H147296   6.365   3.516   4.119 -0.5781  0.5726 -0.3673
 8627TIP3    H247297   6.387   3.640   4.202 -0.4840  0.1917  0.1745
 8628TIP3   OH247298   5.800   6.120   1.194  0.6282 -0.2943  0.4036
 8628TIP3    H147299   5.730   6.074   1.240  2.0849 -1.9606  0.9918
 8628TIP3    H247300   5.877   6.107   1.248  1.7733  0.0814 -1.1041
 8629TIP3   OH247301   4.109   3.931   3.774  0.4950 -0.2963 -0.4999
 8629TIP3    H147302   4.191   3.884   3.791  0.8038  0.0128 -1.1184
 8629TIP3    H247303   4.041   3.872   3.805  0.8683 -1.2342 -1.4328
 8630TIP3   OH247304   3.843   3.686  13.284 -0.2369 -0.9401 -0.3130
 8630TIP3    H147305   3.757   3.686  13.326 -0.5934  4.3924 -0.7293
 8630TIP3    H247306   3.824   3.667  13.192 -1.0358  0.6607 -0.4879
 8631TIP3   OH247307   5.331   2.605  16.055 -0.1538 -0.1720 -0.1895
 8631TIP3    H147308   5.410   2.632  16.008 -1.6173  0.9787 -2.0590
 8631TIP3    H247309   5.290   2.541  15.997 -1.3377  0.3211  0.0878
 8632TIP3   OH247310   2.637   4.607   0.666 -0.3098  0.2014  0.7833
 8632TIP3    H147311   2.637   4.519   0.628  0.0714  0.0078  1.2189
 8632TIP3    H247312   2.665   4.665   0.595  1.6186 -0.3078  1.1013
 8633TIP3   OH247313   6.010   1.643  14.243 -0.1964  0.2874 -0.3305
 8633TIP3    H147314   6.073   1.658  14.313 -1.7630  1.1830  0.9308
 8633TIP3    H247315   6.035   1.704  14.174  0.7683  0.1001 -0.1521
 8634TIP3   OH247316   3.879   2.440  12.579 -0.4724 -0.2943  0.2536
 8634TIP3    H147317   3.789   2.410  12.565 -0.4677  0.3061 -1.1631
 8634TIP3    H247318   3.934   2.373  12.539 -0.3519  0.0133 -0.1064
 8635TIP3   OH247319   2.782   5.412   1.444 -0.4828 -0.0839  0.1718
 8635TIP3    H147320   2.731   5.332   1.429 -0.2005 -0.3947  0.8255
 8635TIP3    H247321   2.777   5.425   1.539  0.7192 -0.1691  0.2516
 8636TIP3   OH247322   5.512   0.193   5.156 -0.0896  0.0383  0.6912
 8636TIP3    H147323   5.543   0.278   5.126 -1.6977  1.2100  2.2419
 8636TIP3    H247324   5.590   0.150   5.192  0.4903  1.3509  1.0148
 8637TIP3   OH247325   3.758   1.170  11.029 -0.3182 -0.2917 -0.6458
 8637TIP3    H147326   3.768   1.254  11.073  2.1675  0.2714 -2.1684
 8637TIP3    H247327   3.700   1.120  11.085 -0.7872  1.9748  0.9550
 8638TIP3   OH247328   6.404   2.070  16.897  0.1064 -0.8219  0.6221
 8638TIP3    H147329   6.411   1.985  16.853 -2.6855 -1.2361  0.9045
 8638TIP3    H247330   6.469   2.125  16.853 -0.8567 -1.9522 -2.3120
 8639TIP3   OH247331   5.667   2.316   5.823 -0.3619  0.0788  0.1767
 8639TIP3    H147332   5.577   2.326   5.793  0.3410  1.2629 -1.6243
 8639TIP3    H247333   5.662   2.324   5.918 -2.6585 -3.7303  0.4832
 8640TIP3   OH247334   4.429   2.272   4.452 -0.2777  0.0195  0.4441
 8640TIP3    H147335   4.503   2.326   4.478 -1.7308  1.5347  1.5192
 8640TIP3    H247336   4.398   2.231   4.533 -1.7857  0.9200  0.3537
 8641TIP3   OH247337   3.395   2.667   3.319  0.6599 -1.0510  0.1932
 8641TIP3    H147338   3.452   2.607   3.271  0.5546 -0.4077 -0.7305
 8641TIP3    H247339   3.391   2.746   3.265 -0.9217 -1.0037  0.3657
 8642TIP3   OH247340   6.530   2.217  14.487  0.6437  0.3847  0.5868
 8642TIP3    H147341   6.584   2.138  14.483  0.5532  0.2222  2.3351
 8642TIP3    H247342   6.491   2.224  14.400 -1.3280 -2.8813  1.1309
 8643TIP3   OH247343   0.857   1.427   1.661 -0.5347  0.1067  0.6394
 8643TIP3    H147344   0.814   1.457   1.580 -0.8946 -0.6459  0.5444
 8643TIP3    H247345   0.921   1.495   1.680 -0.2963  0.1935 -0.4061
 8644TIP3   OH247346   6.480   1.550  13.160  0.2140  0.3667 -0.6089
 8644TIP3    H147347   6.565   1.531  13.198 -1.0009 -2.2471  0.9627
 8644TIP3    H247348   6.430   1.591  13.230 -0.9153 -1.3443 -0.3553
 8645TIP3   OH247349   5.902   6.576  13.936  0.4136 -0.4033 -0.0153
 8645TIP3    H147350   5.869   6.546  14.021 -0.7452  1.1901  0.1134
 8645TIP3    H247351   5.826   6.612  13.892  0.8988 -1.6998 -1.9797
 8646TIP3   OH247352   0.670   4.830  16.118 -0.2375  0.7014  0.3114
 8646TIP3    H147353   0.690   4.924  16.111  0.1746  0.7491  1.8686
 8646TIP3    H247354   0.577   4.827  16.141 -0.1470  0.7531  0.6938
 8647TIP3   OH247355   0.566   3.492  11.301 -0.3863  0.2466  0.2993
 8647TIP3    H147356   0.606   3.406  11.284 -0.6358  0.3309 -0.7473
 8647TIP3    H247357   0.592   3.513  11.391  0.6467 -0.3989  0.1591
 8648TIP3   OH247358   3.287   0.129   0.948  0.3300  0.4045  0.1548
 8648TIP3    H147359   3.214   0.130   0.886 -0.1291 -2.2602  0.5709
 8648TIP3    H247360   3.359   0.170   0.900 -0.6625  0.5147 -1.2927
 8649TIP3   OH247361   3.211   1.276   5.925  0.7921  0.0884  0.0771
 8649TIP3    H147362   3.135   1.294   5.980 -1.6954 -0.6666 -2.9748
 8649TIP3    H247363   3.238   1.362   5.893 -1.5881 -0.0071 -2.3395
 8650TIP3   OH247364   4.411   4.669   2.309 -0.1997 -0.0883  0.0752
 8650TIP3    H147365   4.464   4.732   2.260  0.2507 -0.7127 -0.2480
 8650TIP3    H247366   4.418   4.587   2.259 -2.3964  0.0999 -0.6063
 8651TIP3   OH247367   0.885   3.427   3.804  0.7864 -0.2352 -0.4474
 8651TIP3    H147368   0.790   3.437   3.799  0.3309 -2.1177  2.7463
 8651TIP3    H247369   0.920   3.508   3.766 -2.1519  1.7584  0.8921
 8652TIP3   OH247370   0.151   4.817   4.368 -0.0954  0.3970 -0.1291
 8652TIP3    H147371   0.120   4.727   4.369  2.8937 -0.7283  3.8184
 8652TIP3    H247372   0.232   4.814   4.318 -0.9441  1.2920 -1.5843
 8653TIP3   OH247373   1.064   2.055  15.725 -0.0312  0.5355 -0.4586
 8653TIP3    H147374   1.044   2.013  15.808 -1.1934  0.2184 -0.8970
 8653TIP3    H247375   1.096   2.142  15.749 -0.5991  0.5316  0.3014
 8654TIP3   OH247376   0.998   4.130   2.569  0.2989  0.0861  0.4580
 8654TIP3    H147377   0.946   4.194   2.617  4.2655  2.7388  1.4607
 8654TIP3    H247378   1.080   4.176   2.548  1.2561 -3.0354 -3.3018
 8655TIP3   OH247379   5.804   2.675   1.243  0.1835  0.3247 -0.5053
 8655TIP3    H147380   5.837   2.592   1.277  0.1603 -0.3999 -2.1897
 8655TIP3    H247381   5.709   2.669   1.252  0.1039 -0.3388 -1.7154
 8656TIP3   OH247382   4.189   0.322  10.637 -0.3258 -0.8564 -0.3515
 8656TIP3    H147383   4.204   0.229  10.626 -0.3656 -1.0750  1.3653
 8656TIP3    H247384   4.275   0.362  10.624  0.2021 -1.3733  1.3950
 8657TIP3   OH247385   6.749   0.670  15.005  0.0057 -0.4139 -0.1702
 8657TIP3    H147386   6.746   0.575  14.991  1.2649 -0.4198 -0.4784
 8657TIP3    H247387   6.718   0.682  15.094 -1.9261 -0.9486 -0.7309
 8658TIP3   OH247388   0.741   5.358  13.453 -0.4494  0.5083  0.5360
 8658TIP3    H147389   0.763   5.443  13.491 -1.9795  0.8684  0.6630
 8658TIP3    H247390   0.752   5.296  13.525  2.1931  0.3491  0.0290
 8659TIP3   OH247391   3.656   1.552  13.224  0.1987  0.1229  0.5453
 8659TIP3    H147392   3.688   1.577  13.138  1.7702  2.8351  1.8353
 8659TIP3    H247393   3.566   1.525  13.209  0.4550  0.5184 -1.9450
 8660TIP3   OH247394   3.693   2.870  11.287 -0.2044  0.4575 -0.1412
 8660TIP3    H147395   3.598   2.867  11.279 -0.2434 -1.6069  0.9926
 8660TIP3    H247396   3.710   2.858  11.380  1.2004  0.0723 -0.4349
 8661TIP3   OH247397   0.573   2.980  16.679 -0.3163  0.5390 -0.7236
 8661TIP3    H147398   0.602   2.952  16.593  0.6379  1.2213 -0.6361
 8661TIP3    H247399   0.648   3.027  16.716 -0.4326 -0.4233  0.7838
 8662TIP3   OH247400   1.352   1.494   5.785  0.1930  0.1170  0.3266
 8662TIP3    H147401   1.286   1.556   5.818  1.5394  1.6917  0.1310
 8662TIP3    H247402   1.379   1.444   5.862  0.6210  1.2207  0.9009
 8663TIP3   OH247403   3.961   1.677   2.696  0.7638 -0.3191 -0.0120
 8663TIP3    H147404   3.979   1.728   2.617  0.5789 -0.2971 -0.0385
 8663TIP3    H247405   4.028   1.705   2.759  0.1599  0.5350  0.2465
 8664TIP3   OH247406   3.839   5.720  15.239 -0.2381  0.2947  0.0192
 8664TIP3    H147407   3.781   5.784  15.282  2.4642  2.8992  0.0112
 8664TIP3    H247408   3.871   5.665  15.311 -0.1878  0.9723  0.5243
 8665TIP3   OH247409   0.710   3.134  12.603  0.4847  0.3641 -0.3398
 8665TIP3    H147410   0.686   3.042  12.611  0.5070  0.3224 -0.7288
 8665TIP3    H247411   0.725   3.164  12.693 -1.1426  0.4231 -0.0654
 8666TIP3   OH247412   3.349   6.701   2.230 -0.0388  0.2055 -0.0060
 8666TIP3    H147413   3.355   6.607   2.246  0.5119  0.2683  0.1904
 8666TIP3    H247414   3.267   6.728   2.270 -1.1038 -0.5120 -1.6645
 8667TIP3   OH247415   4.608   2.533   3.882 -0.3040  0.5702  0.0617
 8667TIP3    H147416   4.558   2.453   3.899 -0.7038  0.6715 -0.6236
 8667TIP3    H247417   4.570   2.598   3.941 -1.0957  0.6894 -0.5749
 8668TIP3   OH247418   6.661   5.550   1.140 -0.3064 -0.7060 -0.6996
 8668TIP3    H147419   6.571   5.519   1.134 -1.3691  2.2514 -1.0424
 8668TIP3    H247420   6.663   5.629   1.085  2.8262 -1.4069 -1.7140
 8669TIP3   OH247421   2.198   3.961   4.768  0.3399  0.3072  0.3880
 8669TIP3    H147422   2.290   3.987   4.766  0.3303  0.2843 -1.5461
 8669TIP3    H247423   2.153   4.035   4.809  1.3096 -0.0514  2.1402
 8670TIP3   OH247424   6.014   5.536   2.051  0.1096  0.1435  0.1341
 8670TIP3    H147425   5.948   5.603   2.065 -0.9835 -0.7362 -0.7473
 8670TIP3    H247426   6.045   5.513   2.139 -1.8073 -0.4966  0.6515
 8671TIP3   OH247427   1.624   4.158   2.245 -0.1386  0.1672 -0.4539
 8671TIP3    H147428   1.581   4.156   2.160  1.4286  0.9810 -1.2890
 8671TIP3    H247429   1.650   4.249   2.258 -0.6655  0.1182  1.0561
 8672TIP3   OH247430   2.572   3.393   5.967  0.0237  0.4109 -0.4474
 8672TIP3    H147431   2.476   3.393   5.971  0.0671 -0.6380  1.1641
 8672TIP3    H247432   2.594   3.305   5.935  0.4753  0.2157  0.3864
 8673TIP3   OH247433   6.419   0.713  15.050 -0.2466 -0.0580  0.0950
 8673TIP3    H147434   6.338   0.744  15.010 -0.5636 -0.3013  0.5449
 8673TIP3    H247435   6.426   0.621  15.022 -0.3260 -0.1481  0.3710
 8674TIP3   OH247436   6.482   4.236   1.969 -0.2168 -0.0309 -0.3879
 8674TIP3    H147437   6.437   4.308   1.925  0.4739  1.5952  1.5014
 8674TIP3    H247438   6.567   4.272   1.993 -0.1150 -1.2688  1.1993
 8675TIP3   OH247439   0.702   5.538   2.988 -0.3055 -0.3528  0.0446
 8675TIP3    H147440   0.706   5.442   2.997  0.3852 -0.3757 -0.5101
 8675TIP3    H247441   0.625   5.563   3.039 -0.3200 -1.1777  0.4408
 8676TIP3   OH247442   6.754   1.649   3.952 -0.7721 -0.2621 -0.1598
 8676TIP3    H147443   6.843   1.677   3.976 -0.8066 -0.7925  0.5829
 8676TIP3    H247444   6.716   1.726   3.909 -0.0689  0.0792 -0.1830
 8677TIP3   OH247445   2.780   4.680  13.464  0.7967  0.5188 -0.2584
 8677TIP3    H147446   2.819   4.731  13.535  0.3806 -1.1140  1.1753
 8677TIP3    H247447   2.851   4.668  13.401  1.3281  1.4914  0.1475
 8678TIP3   OH247448   3.540   3.677  12.856  0.1820  0.1688  0.1805
 8678TIP3    H147449   3.466   3.618  12.846 -0.0063  0.6739 -1.5001
 8678TIP3    H247450   3.555   3.680  12.951 -1.0674 -0.9931  0.4361
 8679TIP3   OH247451   5.577   6.506  13.593 -0.2152 -0.7023  0.5893
 8679TIP3    H147452   5.545   6.565  13.524 -0.3399 -0.0229  1.2270
 8679TIP3    H247453   5.664   6.480  13.563 -0.5039 -0.8741 -0.1084
 8680TIP3   OH247454   3.540   3.088   6.083  0.1837  0.2745  0.0025
 8680TIP3    H147455   3.620   3.043   6.053 -0.3859 -0.1682 -0.8605
 8680TIP3    H247456   3.469   3.045   6.035 -0.5602  0.7831  0.6467
 8681TIP3   OH247457   5.425   0.615   4.383  0.8914 -0.1453 -0.0228
 8681TIP3    H147458   5.443   0.598   4.291 -0.7458 -0.6703 -0.2538
 8681TIP3    H247459   5.362   0.687   4.383  1.3683  0.2752  0.7037
 8682TIP3   OH247460   3.034   0.303  15.994 -0.5640 -0.2475  0.3678
 8682TIP3    H147461   3.102   0.242  16.022 -0.6830 -0.8240 -0.5865
 8682TIP3    H247462   3.074   0.354  15.924 -1.6902 -1.8685 -1.5067
 8683TIP3   OH247463   3.404   2.968   5.155 -0.4390 -0.2407 -0.1846
 8683TIP3    H147464   3.309   2.960   5.164 -0.6442  2.0099 -0.1095
 8683TIP3    H247465   3.418   3.053   5.115  1.6050  0.0657  1.0622
 8684TIP3   OH247466   4.330   6.357  12.792  0.0824  0.0170  0.2258
 8684TIP3    H147467   4.313   6.405  12.711  0.1313  0.5012  0.5038
 8684TIP3    H247468   4.413   6.312  12.777  0.4521  0.6762  0.2688
 8685TIP3   OH247469   0.674   4.189  16.270 -0.1973  0.7378 -0.2144
 8685TIP3    H147470   0.688   4.194  16.365  0.8280 -1.6383 -0.2105
 8685TIP3    H247471   0.762   4.194  16.233 -0.4784  0.1283 -0.9733
 8686TIP3   OH247472   1.117   5.360  17.170 -0.3614  0.1478  0.0996
 8686TIP3    H147473   1.164   5.441  17.152 -1.1694  0.9243  1.4126
 8686TIP3    H247474   1.176   5.311  17.228  0.2831 -0.3734 -0.9846
 8687TIP3   OH247475   1.530   6.259  11.257 -0.0579 -0.9871  0.7626
 8687TIP3    H147476   1.442   6.277  11.290 -0.8718  1.3437 -2.4634
 8687TIP3    H247477   1.524   6.170  11.222 -1.0209 -0.9655  0.8527
 8688TIP3   OH247478   0.498   2.106   1.677  0.3141  0.5028 -0.7661
 8688TIP3    H147479   0.497   2.011   1.677 -0.4273  0.4395  2.4475
 8688TIP3    H247480   0.448   2.131   1.755  0.3651  3.5118 -1.6174
 8689TIP3   OH247481   5.854   0.800  14.511 -0.3337  0.3730 -0.2066
 8689TIP3    H147482   5.794   0.730  14.538 -2.7528  2.8000  0.8993
 8689TIP3    H247483   5.853   0.797  14.415  1.1358 -2.3330 -0.1880
 8690TIP3   OH247484   2.886   2.603   2.031  0.4009 -0.1359 -0.0252
 8690TIP3    H147485   2.797   2.601   2.065  0.3424  0.5575 -0.1230
 8690TIP3    H247486   2.939   2.632   2.105  0.9564 -3.2125  0.8616
 8691TIP3   OH247487   0.531   3.612  14.137 -0.0948  0.4646 -0.1854
 8691TIP3    H147488   0.606   3.555  14.151  0.2055  1.3951  2.2832
 8691TIP3    H247489   0.540   3.681  14.203 -3.7739 -0.1139  1.0413
 8692TIP3   OH247490   5.873   3.757  14.020 -0.0097 -0.4055  0.0444
 8692TIP3    H147491   5.838   3.706  13.947 -0.2353  2.4035 -1.8748
 8692TIP3    H247492   5.962   3.724  14.032  0.0851 -0.7916 -1.6220
 8693TIP3   OH247493   3.690   0.809   5.253 -0.1862 -0.3284  0.4366
 8693TIP3    H147494   3.740   0.740   5.296  0.6874 -0.1336 -0.2512
 8693TIP3    H247495   3.624   0.834   5.317  1.6293  0.5516  1.9944
 8694TIP3   OH247496   4.610   2.889   1.210 -0.0489  0.2028 -0.6044
 8694TIP3    H147497   4.678   2.847   1.263 -1.5724  0.9235  2.0397
 8694TIP3    H247498   4.546   2.819   1.195  0.2971  0.0446 -1.3355
 8695TIP3   OH247499   2.884   0.512   1.610  0.1825 -0.3625  0.0746
 8695TIP3    H147500   2.978   0.495   1.613  0.2896  0.1202 -0.4630
 8695TIP3    H247501   2.858   0.523   1.701  0.6470 -0.4999  0.2246
 8696TIP3   OH247502   4.134   3.019  15.060  0.7981  0.3200 -0.0134
 8696TIP3    H147503   4.202   3.067  15.012  0.3294  0.5500 -0.4562
 8696TIP3    H247504   4.099   3.084  15.122  1.7545 -0.1230  1.0061
 8697TIP3   OH247505   1.113   4.547   4.868 -0.3013  0.3254  0.0476
 8697TIP3    H147506   1.060   4.609   4.818 -0.9938 -0.6159 -0.4008
 8697TIP3    H247507   1.121   4.471   4.811  0.6186  0.0287  0.5594
 8698TIP3   OH247508   2.799   3.898   5.677 -0.4867 -0.1422  0.3121
 8698TIP3    H147509   2.748   3.922   5.600 -0.1348  0.9745  0.4160
 8698TIP3    H247510   2.869   3.963   5.681 -0.2365 -0.4576  1.3106
 8699TIP3   OH247511   4.511   2.020  11.599 -0.2578 -0.0902  0.1518
 8699TIP3    H147512   4.604   1.996  11.597 -0.4108 -0.9407  2.5247
 8699TIP3    H247513   4.466   1.940  11.571 -0.3604 -0.1218  0.4134
 8700TIP3   OH247514   3.952   0.761   1.232  0.1843  0.0443 -0.0649
 8700TIP3    H147515   3.922   0.739   1.144  1.2063  1.0192 -0.6819
 8700TIP3    H247516   3.890   0.827   1.262 -0.4714 -0.6663  0.1574
 8701TIP3   OH247517   6.697   6.426  14.517  0.3809 -0.1132 -0.2995
 8701TIP3    H147518   6.730   6.454  14.603  0.2015  1.2809 -0.6737
 8701TIP3    H247519   6.639   6.497  14.490  1.9363  0.3542 -2.4582
 8702TIP3   OH247520   0.951   0.297   4.688  0.2518  0.8211  0.0816
 8702TIP3    H147521   0.966   0.326   4.778 -0.3415 -1.1839  0.8418
 8702TIP3    H247522   1.036   0.306   4.646  1.4928 -1.7697  1.8768
 8703TIP3   OH247523   5.765   5.892  11.743 -0.0628 -0.6849  0.3949
 8703TIP3    H147524   5.820   5.927  11.813 -1.0508  0.2398  0.7181
 8703TIP3    H247525   5.687   5.947  11.743 -0.0779 -0.6740 -1.4499
 8704TIP3   OH247526   0.924   3.526  16.344  0.2121 -0.6549  0.0106
 8704TIP3    H147527   1.009   3.494  16.311  0.6621  0.3592  0.1666
 8704TIP3    H247528   0.905   3.470  16.418  0.9784 -0.5985  0.2583
 8705TIP3   OH247529   0.396   1.086  12.705  0.1692 -0.4681 -0.4325
 8705TIP3    H147530   0.343   1.093  12.783  1.8964  0.6663  0.6810
 8705TIP3    H247531   0.421   1.176  12.684 -0.1211 -0.7701 -2.1783
 8706TIP3   OH247532   1.079   2.319   1.946  0.4546  0.1232  0.2599
 8706TIP3    H147533   1.150   2.291   1.887 -0.5682  0.3257 -1.0980
 8706TIP3    H247534   1.032   2.239   1.968  1.8030 -0.1849  2.1367
 8707TIP3   OH247535   0.849   4.249  13.716 -0.5769  0.0230  0.7509
 8707TIP3    H147536   0.763   4.258  13.676  0.0512  0.2293 -0.5807
 8707TIP3    H247537   0.900   4.322  13.680 -0.1000  0.4413  2.2127
 8708TIP3   OH247538   4.974   6.057  12.582 -0.7484  0.5595  0.0797
 8708TIP3    H147539   4.884   6.088  12.584 -0.8724  0.2227 -0.3910
 8708TIP3    H247540   5.025   6.134  12.554 -0.7037  1.1789  1.7787
 8709TIP3   OH247541   0.550   4.805   5.397 -0.4287  0.2070  0.0387
 8709TIP3    H147542   0.541   4.830   5.489  0.5243  0.0579  0.1767
 8709TIP3    H247543   0.638   4.767   5.391 -2.2251 -4.1847  0.0917
 8710TIP3   OH247544   4.022   4.660   3.569  0.1702 -0.1688  0.3532
 8710TIP3    H147545   3.971   4.621   3.498  0.5718 -1.0414  0.5360
 8710TIP3    H247546   4.036   4.751   3.542 -0.2312 -0.3255 -0.3773
 8711TIP3   OH247547   6.760   6.748   1.782  0.1660  0.0677 -0.2573
 8711TIP3    H147548   6.754   6.656   1.806  0.8249  0.3837  1.1518
 8711TIP3    H247549   6.792   6.747   1.692 -1.5773 -1.1189 -0.8996
 8712TIP3   OH247550   2.820   2.999  12.140 -0.4776  0.0309 -0.1835
 8712TIP3    H147551   2.790   3.026  12.054 -2.4756  2.7851  1.2786
 8712TIP3    H247552   2.858   3.079  12.178 -0.7083 -0.8185  1.9085
 8713TIP3   OH247553   0.130   4.945   2.038 -0.3448 -0.4133  0.2549
 8713TIP3    H147554   0.143   5.040   2.046  1.1787 -0.5202 -0.6517
 8713TIP3    H247555   0.166   4.909   2.119 -1.8778 -0.1406  1.0581
 8714TIP3   OH247556   4.398   1.320  14.840 -0.3032 -0.2558 -0.1221
 8714TIP3    H147557   4.475   1.326  14.783 -0.5840 -1.9662 -0.7142
 8714TIP3    H247558   4.409   1.390  14.903 -0.3552  2.2188 -2.7480
 8715TIP3   OH247559   2.759   2.255   1.126 -0.3084  0.4769 -0.0655
 8715TIP3    H147560   2.777   2.256   1.220 -2.2130 -0.2945  0.3349
 8715TIP3    H247561   2.677   2.304   1.116 -0.8046 -0.5267 -1.1534
 8716TIP3   OH247562   0.599   5.837  15.733  0.1515  0.1189 -0.6415
 8716TIP3    H147563   0.551   5.905  15.781  1.7395  0.0168  1.1538
 8716TIP3    H247564   0.531   5.781  15.696 -1.1379  1.1726  0.0926
 8717TIP3   OH247565   3.816   2.017  13.386 -0.7761  0.5651 -0.1621
 8717TIP3    H147566   3.785   2.059  13.466 -1.6642  0.6438 -0.5379
 8717TIP3    H247567   3.794   1.925  13.397 -0.5098  0.5060 -0.1283
 8718TIP3   OH247568   2.097   2.475  14.278  0.3648 -0.2822 -0.2692
 8718TIP3    H147569   2.181   2.452  14.318 -0.4073  0.5392  1.8721
 8718TIP3    H247570   2.120   2.537  14.208  1.5411 -0.1185  0.2541
 8719TIP3   OH247571   6.237   5.435  12.860  0.0094  0.0014 -0.2271
 8719TIP3    H147572   6.298   5.476  12.800  0.4683 -0.9150 -0.4034
 8719TIP3    H247573   6.162   5.495  12.864  0.7987  0.9945 -0.2128
 8720TIP3   OH247574   1.220   0.265  15.587  0.0119 -0.0650  0.2641
 8720TIP3    H147575   1.146   0.292  15.642 -0.9309 -0.8190 -0.6290
 8720TIP3    H247576   1.276   0.343  15.583 -1.0445  0.7157  0.4253
 8721TIP3   OH247577   4.205   2.457   4.601  0.4470 -0.0211  0.2929
 8721TIP3    H147578   4.121   2.471   4.558  0.4553  0.1366  0.3303
 8721TIP3    H247579   4.267   2.447   4.529  0.2917 -0.7839  0.2584
 8722TIP3   OH247580   1.261   4.858   0.048  0.4171 -0.3600  0.0990
 8722TIP3    H147581   1.273   4.873   0.142 -1.8289  2.5417  0.0178
 8722TIP3    H247582   1.328   4.913   0.007  2.0526 -2.3945 -0.0284
 8723TIP3   OH247583   2.686   6.501   1.000  0.7649  0.1973  0.1585
 8723TIP3    H147584   2.733   6.439   1.056 -0.7085  0.0925  1.2980
 8723TIP3    H247585   2.594   6.486   1.019  0.2549  0.5232 -1.9343
 8724TIP3   OH247586   1.536   5.022  15.604 -0.8438 -0.2754 -0.0660
 8724TIP3    H147587   1.593   4.997  15.677 -0.8757  0.0664  0.0752
 8724TIP3    H247588   1.514   4.939  15.561  0.1787 -0.3745 -0.4346
 8725TIP3   OH247589   2.459   2.619   3.937 -0.3609 -0.1595  0.7565
 8725TIP3    H147590   2.377   2.601   3.983 -1.2652 -0.3916 -0.8878
 8725TIP3    H247591   2.439   2.693   3.880  1.0848  0.9054  1.6119
 8726TIP3   OH247592   5.361   0.347   5.949 -0.3867  0.6632  0.1135
 8726TIP3    H147593   5.339   0.342   6.042  0.4259  1.3532  0.3559
 8726TIP3    H247594   5.448   0.388   5.948 -0.5834  1.0606 -0.9690
 8727TIP3   OH247595   4.219   5.457  13.036  0.2651 -0.3061 -0.2211
 8727TIP3    H147596   4.239   5.536  13.086  0.1152  0.2625 -1.0533
 8727TIP3    H247597   4.235   5.481  12.945  0.2084 -1.2319 -0.4794
 8728TIP3   OH247598   1.518   3.792  15.379  0.4977 -0.0300 -0.5176
 8728TIP3    H147599   1.571   3.749  15.447  1.0298  1.1684 -0.1464
 8728TIP3    H247600   1.582   3.818  15.313  0.3178  1.0900 -0.2508
 8729TIP3   OH247601   6.405   5.305   4.786 -0.0509 -0.3450  0.3855
 8729TIP3    H147602   6.488   5.289   4.742  0.5057  0.7257  1.0246
 8729TIP3    H247603   6.426   5.367   4.856 -1.7823  1.7044 -0.8686
 8730TIP3   OH247604   2.892   3.074  12.965  0.6064 -0.1257  0.4148
 8730TIP3    H147605   2.967   3.070  12.905  1.6226 -0.1850  1.6848
 8730TIP3    H247606   2.859   3.163  12.956 -1.5846 -1.1526 -3.0286
 8731TIP3   OH247607   2.383   1.748  14.924  0.3180  0.6457  0.0668
 8731TIP3    H147608   2.317   1.817  14.937  1.5190  1.8747 -0.2595
 8731TIP3    H247609   2.465   1.788  14.953  0.9763 -0.7806  0.2073
 8732TIP3   OH247610   6.380   2.828   0.139 -0.0932 -0.0520  0.1668
 8732TIP3    H147611   6.381   2.875   0.055 -0.8809 -1.3749 -0.6043
 8732TIP3    H247612   6.288   2.805   0.153  0.0308  0.1724  1.4119
 8733TIP3   OH247613   3.621   6.037   4.143 -0.6364  0.4964  0.9003
 8733TIP3    H147614   3.597   5.971   4.208  1.4856 -1.0284  0.1585
 8733TIP3    H247615   3.662   6.107   4.194 -1.5964  0.6265  1.5167
 8734TIP3   OH247616   2.624   0.863   4.509 -0.1627  0.2344 -0.2254
 8734TIP3    H147617   2.713   0.831   4.492 -0.7660 -0.5469 -2.0485
 8734TIP3    H247618   2.613   0.936   4.447 -0.5928  0.7226  0.4135
 8735TIP3   OH247619   5.875   3.935   1.180  0.2333  0.1137  0.2073
 8735TIP3    H147620   5.967   3.954   1.196 -0.1391  0.3223  2.2046
 8735TIP3    H247621   5.850   3.994   1.109  1.5084  0.3770 -0.0316
 8736TIP3   OH247622   6.650   1.532  13.535 -0.1596  0.5400 -0.0119
 8736TIP3    H147623   6.560   1.501  13.546 -0.6072  1.4501 -1.0267
 8736TIP3    H247624   6.644   1.627  13.538  0.5543  0.6520 -1.4858
 8737TIP3   OH247625   5.750   1.488   6.046 -0.0484  0.0945  0.3371
 8737TIP3    H147626   5.692   1.472   6.120 -0.3597 -0.3563 -0.0047
 8737TIP3    H247627   5.838   1.466   6.079 -0.2013 -0.2332  0.5244
 8738TIP3   OH247628   6.507   6.391   2.874  0.3621  0.0200 -0.0104
 8738TIP3    H147629   6.466   6.357   2.954 -1.4897  0.6934 -0.6335
 8738TIP3    H247630   6.520   6.314   2.819 -1.1405 -0.0658 -0.2603
 8739TIP3   OH247631   0.696   5.309   2.721 -0.4826  0.2103  0.0350
 8739TIP3    H147632   0.674   5.334   2.811  1.4047 -2.4323  1.3404
 8739TIP3    H247633   0.791   5.323   2.715 -0.4533 -0.4395 -1.2564
 8740TIP3   OH247634   5.137   0.034   2.003  0.2091  0.6050 -0.2007
 8740TIP3    H147635   5.098   0.084   2.074  0.4107  0.7365 -0.1822
 8740TIP3    H247636   5.085  -0.047   2.000 -0.0877  0.7954 -0.2059
 8741TIP3   OH247637   5.981   5.141  14.299  0.3322  0.0980 -0.0228
 8741TIP3    H147638   5.998   5.166  14.390 -0.0165  1.2278 -0.2603
 8741TIP3    H247639   5.922   5.067  14.306 -1.4506  1.5327  0.6619
 8742TIP3   OH247640   1.643   6.388   2.369  0.7751  0.6887  0.0915
 8742TIP3    H147641   1.632   6.294   2.358  3.5407  0.3158  0.3551
 8742TIP3    H247642   1.619   6.426   2.285  1.3784 -0.4033 -0.5702
 8743TIP3   OH247643   5.231   4.599   1.167  0.3521  0.1240  0.4635
 8743TIP3    H147644   5.138   4.597   1.189 -0.1197  1.3042 -1.2896
 8743TIP3    H247645   5.245   4.522   1.112 -0.0581  1.0311 -0.9397
 8744TIP3   OH247646   2.654   2.757   2.421  0.2491  0.2251 -0.3544
 8744TIP3    H147647   2.563   2.776   2.444 -0.0815 -0.2498 -1.2526
 8744TIP3    H247648   2.648   2.700   2.345  1.2611 -1.3496  0.7110
 8745TIP3   OH247649   0.217   1.737   6.675  0.5653 -0.2115  1.0480
 8745TIP3    H147650   0.149   1.739   6.741 -0.0841  0.3335  0.3754
 8745TIP3    H247651   0.256   1.824   6.678  0.9691 -0.3957  1.1645
 8746TIP3   OH247652   1.321   5.756   4.516 -0.5992 -0.4241  0.2090
 8746TIP3    H147653   1.398   5.811   4.521 -0.1065 -0.9668 -1.2711
 8746TIP3    H247654   1.252   5.812   4.480 -0.3774 -0.4791 -0.3022
 8747TIP3   OH247655   6.099   5.947  13.079 -0.4301  0.2764  0.2097
 8747TIP3    H147656   6.010   5.911  13.075 -0.7358  0.8772  1.5160
 8747TIP3    H247657   6.153   5.872  13.104 -0.3664 -0.3879 -1.8023
 8748TIP3   OH247658   3.990   2.069  16.534 -0.1573 -0.5627  0.0448
 8748TIP3    H147659   3.932   2.058  16.459  0.1323 -0.9040 -0.1275
 8748TIP3    H247660   4.010   2.162  16.535 -0.0292 -0.5838 -0.4004
 8749TIP3   OH247661   4.169   3.046   0.333 -0.2845 -0.5330  0.1954
 8749TIP3    H147662   4.178   2.958   0.297  1.8067 -0.3285  0.1781
 8749TIP3    H247663   4.215   3.102   0.271 -2.1779  0.6829 -0.1451
 8750TIP3   OH247664   5.450   3.203  14.600  0.2857  0.0480  0.0174
 8750TIP3    H147665   5.460   3.281  14.546  0.1223  0.4707  0.5955
 8750TIP3    H247666   5.374   3.222  14.656 -0.1561 -0.7843 -0.2978
 8751TIP3   OH247667   3.336   2.282   2.060  0.0074  0.1737  0.5196
 8751TIP3    H147668   3.338   2.225   2.137 -0.3587 -1.3536 -0.5809
 8751TIP3    H247669   3.399   2.352   2.080  1.9375 -1.6924  1.0605
 8752TIP3   OH247670   0.147   6.514  15.519  0.0283 -0.3740  0.0849
 8752TIP3    H147671   0.076   6.454  15.541 -1.2532  0.9158 -0.4874
 8752TIP3    H247672   0.135   6.534  15.426  1.0097  0.0376  0.0321
 8753TIP3   OH247673   0.138   1.294   2.202  0.1617 -0.0467  0.3011
 8753TIP3    H147674   0.159   1.298   2.108  0.0348 -0.4386  0.2538
 8753TIP3    H247675   0.112   1.383   2.225 -0.1210 -0.0227 -0.1124
 8754TIP3   OH247676   2.759   4.014  16.658  0.0164  0.6324 -0.7168
 8754TIP3    H147677   2.792   4.016  16.748  2.1116  0.1628 -1.4662
 8754TIP3    H247678   2.798   4.091  16.616  0.8429 -0.3916 -1.8476
 8755TIP3   OH247679   2.067   5.034  13.836  0.0719  0.0824  0.3144
 8755TIP3    H147680   2.073   5.055  13.930  0.5117 -1.4751  0.6478
 8755TIP3    H247681   2.050   4.940  13.834  1.6791 -0.1994 -1.2070
 8756TIP3   OH247682   6.258   1.908  15.463  0.4298  0.2741 -0.3521
 8756TIP3    H147683   6.279   1.944  15.377  2.6394 -1.4870 -0.5766
 8756TIP3    H247684   6.227   1.819  15.445  0.9591 -0.1257  0.6897
 8757TIP3   OH247685   0.242   3.833  15.013  0.1486 -0.5002 -0.1513
 8757TIP3    H147686   0.234   3.822  15.108 -0.7153 -0.0455 -0.1653
 8757TIP3    H247687   0.271   3.747  14.982 -1.5889 -1.2787  0.2949
 8758TIP3   OH247688   6.000   0.736   1.420 -0.5393 -0.0490 -0.3498
 8758TIP3    H147689   6.001   0.832   1.412 -0.7286 -0.0605 -0.5019
 8758TIP3    H247690   5.983   0.720   1.513  0.2566  0.0700 -0.1710
 8759TIP3   OH247691   0.222   2.859   0.699 -0.3266  0.1187  0.0578
 8759TIP3    H147692   0.238   2.767   0.681 -1.1522  0.0225 -0.1950
 8759TIP3    H247693   0.142   2.880   0.651 -0.2884  0.8968  0.3216
 8760TIP3   OH247694   2.137   3.395   2.558  0.0536 -0.2057  0.0582
 8760TIP3    H147695   2.201   3.455   2.597  0.4086 -0.9089  0.5619
 8760TIP3    H247696   2.126   3.426   2.468  0.4565  0.4356  0.2291
 8761TIP3   OH247697   6.465   6.559  15.704  0.5989  0.3153 -0.0345
 8761TIP3    H147698   6.389   6.502  15.720  1.2557 -0.7397 -0.5722
 8761TIP3    H247699   6.427   6.644  15.681 -0.4017  0.0785  0.6878
 8762TIP3   OH247700   1.244   3.675   0.030 -0.7508  0.4339  0.0331
 8762TIP3    H147701   1.228   3.635  -0.055 -0.9742  1.1290 -0.2524
 8762TIP3    H247702   1.238   3.769   0.014  0.0122  0.5946  0.6483
 8763TIP3   OH247703   6.378   1.983  16.299 -0.3285 -0.8331 -0.0361
 8763TIP3    H147704   6.368   2.040  16.374 -0.1636 -0.3299 -0.3962
 8763TIP3    H247705   6.428   1.908  16.332  0.0685 -0.4373  0.2657
 8764TIP3   OH247706   0.774   4.256  15.460  0.1457 -0.3652 -0.0987
 8764TIP3    H147707   0.864   4.230  15.477  1.1340  1.0226 -2.8677
 8764TIP3    H247708   0.722   4.177  15.475  1.7699 -1.1309  1.6766
 8765TIP3   OH247709   0.356   1.014   1.249 -0.4365 -0.5058 -0.1294
 8765TIP3    H147710   0.434   1.036   1.300 -0.4792  0.7087 -0.5614
 8765TIP3    H247711   0.389   0.962   1.176 -0.1291 -0.6246  0.0923
 8766TIP3   OH247712   3.305   6.135  10.332  0.6074 -0.3398 -0.4683
 8766TIP3    H147713   3.222   6.107  10.371  0.2221 -0.2908 -1.2493
 8766TIP3    H247714   3.372   6.085  10.379  0.1736 -0.0218  0.5017
 8767TIP3   OH247715   0.811   5.027  15.622 -0.0480  0.1095  0.0077
 8767TIP3    H147716   0.747   5.006  15.554  0.7278  0.4127 -0.8112
 8767TIP3    H247717   0.863   4.947  15.631  0.5512  0.4411 -0.5233
 8768TIP3   OH247718   3.952   0.988  12.861 -0.0247  0.0206 -0.0593
 8768TIP3    H147719   3.988   1.034  12.785 -0.1075 -0.2191 -0.2434
 8768TIP3    H247720   4.010   0.914  12.875 -1.1463 -1.0943 -1.1351
 8769TIP3   OH247721   0.658   6.094  13.964 -0.2838 -0.3484 -0.1221
 8769TIP3    H147722   0.641   6.062  14.052 -0.4258  0.4763  0.1524
 8769TIP3    H247723   0.636   6.187  13.967  0.0541 -0.2351 -0.9292
 8770TIP3   OH247724   5.868   4.177   1.362 -0.6092  0.0179  0.3237
 8770TIP3    H147725   5.875   4.184   1.267 -0.1131 -0.4991  0.3236
 8770TIP3    H247726   5.835   4.089   1.378 -0.8499  0.1609  0.6209
 8771TIP3   OH247727   0.287   0.558   0.427  0.7127  0.0571  0.7271
 8771TIP3    H147728   0.193   0.562   0.445  0.6664  1.1665  0.2791
 8771TIP3    H247729   0.299   0.475   0.380 -0.2322  0.4605 -0.2385
 8772TIP3   OH247730   0.128   6.126  12.899  0.1383  0.2537 -0.7830
 8772TIP3    H147731   0.130   6.044  12.850  2.0436  1.4231 -2.7630
 8772TIP3    H247732   0.193   6.115  12.969 -0.2121 -0.2238 -0.5334
 8773TIP3   OH247733   4.731   0.406   2.203 -0.1515  0.0801  0.5103
 8773TIP3    H147734   4.696   0.321   2.230  0.0537 -0.1447  0.0801
 8773TIP3    H247735   4.749   0.452   2.285  0.9172 -0.7791  0.7685
 8774TIP3   OH247736   2.760   3.461  14.318 -0.2429  0.7046 -0.1638
 8774TIP3    H147737   2.813   3.391  14.280 -0.0584  1.7521 -1.9079
 8774TIP3    H247738   2.823   3.519  14.360 -0.4024 -0.1849  1.3532
 8775TIP3   OH247739   4.500   1.311   1.333 -0.0694  0.0999 -0.1500
 8775TIP3    H147740   4.460   1.398   1.339 -0.2211 -0.0886  1.6130
 8775TIP3    H247741   4.506   1.295   1.238 -1.9824  1.1396 -0.4891
 8776TIP3   OH247742   4.152   1.702  13.070 -0.3160 -0.2315  0.0159
 8776TIP3    H147743   4.239   1.698  13.107 -0.1984  0.3543 -0.1867
 8776TIP3    H247744   4.155   1.642  12.995  0.3708  0.9431 -0.9125
 8777TIP3   OH247745   4.006   3.485   2.385 -0.3109 -0.3345 -0.0896
 8777TIP3    H147746   3.917   3.511   2.361 -0.9948 -2.4575  0.0419
 8777TIP3    H247747   3.995   3.432   2.464  0.9715 -1.3495 -0.5797
 8778TIP3   OH247748   4.467   1.125  12.128 -0.4181  0.0826  0.3835
 8778TIP3    H147749   4.517   1.167  12.198 -0.2815 -0.6804  0.7447
 8778TIP3    H247750   4.376   1.146  12.147 -0.3240  0.5565  0.3311
 8779TIP3   OH247751   6.335   1.934  13.109 -0.4129  0.2218  0.0723
 8779TIP3    H147752   6.261   1.921  13.050 -0.3742  0.1574  0.0375
 8779TIP3    H247753   6.412   1.924  13.052 -0.2914 -2.7105  0.6483
 8780TIP3   OH247754   3.239   5.390  10.287  0.3603  0.4063  0.5432
 8780TIP3    H147755   3.199   5.392  10.374 -0.3389 -0.5751  0.2502
 8780TIP3    H247756   3.279   5.303  10.281 -1.6082 -0.4204 -0.9990
 8781TIP3   OH247757   5.003   4.229  15.447 -0.3091  0.3931  0.1265
 8781TIP3    H147758   5.091   4.193  15.435 -1.7266 -2.5178 -2.2208
 8781TIP3    H247759   5.009   4.318  15.412  1.8728  0.4814  0.6617
 8782TIP3   OH247760   0.903   5.234  11.184  0.5569 -0.5505 -0.0859
 8782TIP3    H147761   0.899   5.285  11.103 -0.8694 -2.0304 -0.9934
 8782TIP3    H247762   0.825   5.261  11.233  0.6780 -0.6547  0.1627
 8783TIP3   OH247763   2.461   4.774   5.638  0.5108  0.0614 -0.0293
 8783TIP3    H147764   2.501   4.692   5.665  2.2898  0.6267 -0.8913
 8783TIP3    H247765   2.480   4.834   5.711 -3.6264 -1.0730  2.1545
 8784TIP3   OH247766   5.610   4.050   2.753 -0.1380  0.0497 -0.0794
 8784TIP3    H147767   5.677   4.117   2.738 -1.1961  1.1356 -0.0396
 8784TIP3    H247768   5.600   4.047   2.848  1.0730 -1.3496  0.0241
 8785TIP3   OH247769   6.644   2.140  11.870 -0.4224  0.1654 -0.8362
 8785TIP3    H147770   6.734   2.146  11.902 -0.1100  1.8839 -1.9669
 8785TIP3    H247771   6.592   2.117  11.947  1.1318 -2.1510 -0.4341
 8786TIP3   OH247772   4.940   2.423   0.784  0.0122 -0.6178  0.5530
 8786TIP3    H147773   5.016   2.466   0.746  0.4649 -0.5980  1.4686
 8786TIP3    H247774   4.970   2.335   0.806 -0.6003 -1.0457 -0.2877
 8787TIP3   OH247775   4.518   0.098  16.003 -0.2824  0.3511 -0.4210
 8787TIP3    H147776   4.579   0.137  15.941 -0.0096 -0.8792 -0.9397
 8787TIP3    H247777   4.561   0.017  16.031 -0.7829  0.4773  0.7348
 8788TIP3   OH247778   3.012   2.846  16.526  0.3418  0.6314  0.5331
 8788TIP3    H147779   3.069   2.783  16.483 -0.6538  0.5266 -0.6717
 8788TIP3    H247780   2.943   2.792  16.566  0.3230  0.8501  0.7991
 8789TIP3   OH247781   0.784   3.305   4.481  0.2598 -0.3503 -0.4197
 8789TIP3    H147782   0.792   3.344   4.568  0.1585  1.0788 -1.0491
 8789TIP3    H247783   0.850   3.236   4.480  0.3084 -0.3321  0.7658
 8790TIP3   OH247784   4.973   2.498   0.085 -0.7464  0.0857  0.5915
 8790TIP3    H147785   5.004   2.449   0.008  0.7635 -0.4901  1.5443
 8790TIP3    H247786   4.904   2.442   0.122 -0.9147 -0.0164  0.1323
 8791TIP3   OH247787   2.672   6.122  14.089  0.4644  0.9472  0.0803
 8791TIP3    H147788   2.658   6.207  14.131 -3.1920  0.0979  0.7434
 8791TIP3    H247789   2.722   6.071  14.153 -1.8271  0.9218  1.9127
 8792TIP3   OH247790   6.505   5.880  11.517  0.7231  0.1564 -0.5943
 8792TIP3    H147791   6.555   5.800  11.534  0.0379 -0.2961 -0.7079
 8792TIP3    H247792   6.568   5.951  11.533  1.3808 -0.4056 -0.6586
 8793TIP3   OH247793   4.087   5.691  12.130  0.6869 -0.4536  0.1687
 8793TIP3    H147794   4.168   5.739  12.114 -0.4637  1.7781  0.9216
 8793TIP3    H247795   4.074   5.639  12.051  0.4395  2.6766 -1.9264
 8794TIP3   OH247796   2.310   2.681   0.681 -0.0018 -0.6890  0.1966
 8794TIP3    H147797   2.238   2.743   0.697  2.1365  1.8755  0.2068
 8794TIP3    H247798   2.372   2.730   0.626  2.0194 -2.6413  0.6720
 8795TIP3   OH247799   0.714   0.642   2.070 -0.5201  0.2823 -0.6884
 8795TIP3    H147800   0.650   0.570   2.070 -1.5718  1.1888  0.7328
 8795TIP3    H247801   0.777   0.617   2.138 -0.3665  0.2638 -0.8371
 8796TIP3   OH247802   0.323   0.895  11.208  0.0124  0.3397  0.1377
 8796TIP3    H147803   0.296   0.831  11.143 -0.7403 -0.3240  1.0845
 8796TIP3    H247804   0.395   0.852  11.255 -0.3011  0.3032  0.5843
 8797TIP3   OH247805   0.606   1.529  11.895  0.0115  0.3936  0.0316
 8797TIP3    H147806   0.616   1.436  11.876  3.0200  0.7725 -0.5198
 8797TIP3    H247807   0.518   1.551  11.864  0.1037 -1.7817 -1.9075
 8798TIP3   OH247808   5.297   4.430   5.718  0.1080  0.2615  0.2886
 8798TIP3    H147809   5.214   4.415   5.672 -0.4380  1.0898  0.9835
 8798TIP3    H247810   5.348   4.351   5.703  0.1289  0.7023 -2.1565
 8799TIP3   OH247811   0.209   1.423  13.108 -0.3058 -0.0538 -0.2941
 8799TIP3    H147812   0.122   1.411  13.147 -0.0390 -0.1706  0.2575
 8799TIP3    H247813   0.252   1.338  13.120  1.4042  1.2152  3.1429
 8800TIP3   OH247814   3.139   0.186   6.118  0.4240  0.4917  0.0255
 8800TIP3    H147815   3.180   0.107   6.153 -0.2016  0.0831 -0.1680
 8800TIP3    H247816   3.194   0.210   6.044 -0.1656 -0.5480 -0.7654
 8801TIP3   OH247817   0.056   0.716  17.022 -0.1362 -0.1634  0.8115
 8801TIP3    H147818  -0.011   0.736  16.957  0.3891  0.4678  0.4567
 8801TIP3    H247819   0.021   0.749  17.105  0.2609  1.2881  0.4126
 8802TIP3   OH247820   1.344   5.453   5.239 -0.2319 -0.3662 -0.0146
 8802TIP3    H147821   1.399   5.525   5.269  0.4701 -0.0852 -1.9189
 8802TIP3    H247822   1.328   5.401   5.318  1.5552  0.3462  0.8536
 8803TIP3   OH247823   5.968   4.312  15.762  0.1290 -0.3010  0.0762
 8803TIP3    H147824   6.016   4.394  15.779 -2.4258  1.2487  0.0623
 8803TIP3    H247825   5.992   4.290  15.672  0.4147  0.7453 -0.1170
 8804TIP3   OH247826   0.769   0.407   0.210 -0.1316  0.1053 -0.1779
 8804TIP3    H147827   0.730   0.487   0.175 -0.1995  0.4204  0.6050
 8804TIP3    H247828   0.704   0.339   0.192  0.7291 -0.1316 -2.5139
 8805TIP3   OH247829   5.319   4.386  12.886 -0.0300 -0.0356  0.2401
 8805TIP3    H147830   5.340   4.322  12.954 -0.4236  0.0302  0.4214
 8805TIP3    H247831   5.242   4.432  12.918 -0.2385 -0.0255 -0.2687
 8806TIP3   OH247832   0.490   2.994   3.789  0.0916 -0.7273 -0.3350
 8806TIP3    H147833   0.516   3.014   3.879 -0.8397 -0.4280 -0.1199
 8806TIP3    H247834   0.440   2.912   3.797 -1.9943  0.5207 -0.2305
 8807TIP3   OH247835   3.989   5.804   6.260  0.4113  0.3896  0.2765
 8807TIP3    H147836   3.898   5.804   6.289  0.3260  0.3878  0.0103
 8807TIP3    H247837   4.030   5.732   6.308  0.7075  1.5270  1.7770
 8808TIP3   OH247838   5.059   4.440   3.438  0.1202  0.2262  0.6083
 8808TIP3    H147839   5.120   4.509   3.411 -0.5051  0.8478  0.7551
 8808TIP3    H247840   5.100   4.402   3.516 -0.2193  1.3997  1.3769
 8809TIP3   OH247841   0.691   3.593  16.833  0.4090 -0.0563 -0.6030
 8809TIP3    H147842   0.641   3.567  16.910  0.6685  0.8001 -0.1329
 8809TIP3    H247843   0.765   3.642  16.868  0.8777 -0.2128 -1.3647
 8810TIP3   OH247844   6.722   3.717   4.123 -0.2382  0.3902  0.2990
 8810TIP3    H147845   6.776   3.694   4.048  0.8892 -1.1214  1.5355
 8810TIP3    H247846   6.723   3.638   4.178 -1.9800  1.0730  1.3390
 8811TIP3   OH247847   4.411   5.530   3.725 -0.4134  0.2228  0.3737
 8811TIP3    H147848   4.472   5.489   3.664 -0.6822  0.0531  0.2199
 8811TIP3    H247849   4.429   5.488   3.809  0.9840  1.4984  0.7394
 8812TIP3   OH247850   0.206   0.432  11.699 -0.4538 -0.4181 -0.3708
 8812TIP3    H147851   0.132   0.488  11.723 -0.2843 -0.3880  0.0940
 8812TIP3    H247852   0.168   0.367  11.640 -1.0958 -1.0586  0.7142
 8813TIP3   OH247853   4.512   4.487  15.005  0.5907  0.3581 -0.7957
 8813TIP3    H147854   4.587   4.442  15.045  1.6961  0.8240 -2.2932
 8813TIP3    H247855   4.524   4.475  14.911 -2.5925 -1.7034 -1.0138
 8814TIP3   OH247856   6.499   0.863  12.542  0.2232 -0.2436  0.1454
 8814TIP3    H147857   6.594   0.861  12.543  0.2165 -1.9111 -1.2743
 8814TIP3    H247858   6.475   0.872  12.635  1.7286  0.3451  0.5032
 8815TIP3   OH247859   3.954   6.224  14.358 -0.0629 -0.2058  0.0592
 8815TIP3    H147860   3.871   6.176  14.358 -0.3445  0.1368  3.4169
 8815TIP3    H247861   4.021   6.156  14.361 -0.1169 -0.5035 -3.3166
 8816TIP3   OH247862   3.104   3.097  12.531 -0.0007 -0.0902  0.2871
 8816TIP3    H147863   3.050   3.036  12.480 -0.3250  1.9935 -1.9731
 8816TIP3    H247864   3.046   3.171  12.548  1.0478  0.5566  1.0363
 8817TIP3   OH247865   5.535   2.826  14.183 -0.0777  0.3901  0.2993
 8817TIP3    H147866   5.457   2.815  14.130  0.9009 -1.1207 -0.8835
 8817TIP3    H247867   5.599   2.866  14.124  0.5683  0.0266  0.7418
 8818TIP3   OH247868   5.097   2.933   3.327  0.4456 -0.2258  0.7655
 8818TIP3    H147869   5.108   2.855   3.272 -0.4052 -0.8250  1.4371
 8818TIP3    H247870   5.160   2.996   3.291  0.1544 -0.7292 -0.6660
 8819TIP3   OH247871   0.396   6.363  13.430  0.0980  0.7376 -0.3967
 8819TIP3    H147872   0.356   6.282  13.463  1.9051 -0.0464 -0.0532
 8819TIP3    H247873   0.348   6.382  13.350 -0.7327 -0.3575 -0.1817
 8820TIP3   OH247874   6.262   3.101   1.892 -0.3931  0.2509 -0.2879
 8820TIP3    H147875   6.240   3.038   1.823 -1.1151 -1.0384  1.1037
 8820TIP3    H247876   6.356   3.090   1.906 -0.2378  0.5349 -1.0596
 8821TIP3   OH247877   2.950   6.261   6.069 -0.0487  0.6134  0.4078
 8821TIP3    H147878   3.018   6.324   6.045 -1.0368  1.6385  0.2891
 8821TIP3    H247879   2.874   6.315   6.091 -0.5034 -0.4844  1.5747
 8822TIP3   OH247880   6.439   4.861  13.496  0.3877 -0.6664 -0.1429
 8822TIP3    H147881   6.344   4.852  13.484  0.4866 -0.2316 -1.3173
 8822TIP3    H247882   6.454   4.956  13.496  0.8615 -0.7409 -0.2948
 8823TIP3   OH247883   2.317   4.632  10.890 -0.4726  0.6584 -0.2125
 8823TIP3    H147884   2.382   4.612  10.957 -1.5063  0.9002  0.8817
 8823TIP3    H247885   2.310   4.552  10.839  0.4897  0.5460 -0.1786
 8824TIP3   OH247886   4.136   5.089   1.221  0.2128  0.0160  0.2577
 8824TIP3    H147887   4.224   5.077   1.184 -0.6310  0.3882 -1.9232
 8824TIP3    H247888   4.134   5.180   1.250  1.2484 -0.5793  2.2733
 8825TIP3   OH247889   5.169   2.101  14.157  0.5550  0.6907  0.4031
 8825TIP3    H147890   5.201   2.014  14.182 -0.1578  0.2648 -0.1435
 8825TIP3    H247891   5.083   2.107  14.198 -0.5384  0.0627 -1.7840
 8826TIP3   OH247892   2.021   2.710  12.062  0.7558 -0.2111  0.0577
 8826TIP3    H147893   2.022   2.806  12.066  1.8094 -0.1937 -0.5176
 8826TIP3    H247894   2.059   2.682  12.145 -1.0697 -0.1549  0.9217
 8827TIP3   OH247895   1.394   3.194   5.032  0.3724  0.3704  0.2576
 8827TIP3    H147896   1.406   3.281   4.995 -1.0593  0.7068  0.5669
 8827TIP3    H247897   1.357   3.209   5.119 -0.8220 -0.5587 -0.0687
 8828TIP3   OH247898   1.632   3.685  12.476 -0.3456  0.1645  0.1632
 8828TIP3    H147899   1.669   3.599  12.497  0.4793 -0.0397 -1.9793
 8828TIP3    H247900   1.704   3.747  12.490 -0.0701  0.1396 -1.1150
 8829TIP3   OH247901   2.070   0.776  13.216 -0.5989  0.0613  0.3232
 8829TIP3    H147902   2.091   0.686  13.190 -2.9601 -0.6305  0.7281
 8829TIP3    H247903   2.112   0.830  13.149 -3.2319 -1.5451 -2.8005
 8830TIP3   OH247904   5.631   6.174  17.156 -0.4099 -0.3200  0.2065
 8830TIP3    H147905   5.637   6.169  17.251 -0.5440 -0.1227  0.2263
 8830TIP3    H247906   5.689   6.105  17.125  0.6301  0.4664  0.4093
 8831TIP3   OH247907   2.951   1.754  16.109 -0.6558 -0.4710  0.3068
 8831TIP3    H147908   3.034   1.706  16.103 -1.3786 -1.6213 -0.8535
 8831TIP3    H247909   2.918   1.756  16.020 -1.0138  1.5964  0.4588
 8832TIP3   OH247910   3.292   3.155   2.213 -0.4727  0.4938  0.2077
 8832TIP3    H147911   3.269   3.154   2.306 -2.4467  2.2132 -0.2163
 8832TIP3    H247912   3.285   3.248   2.189  0.8281  0.1678 -1.4685
 8833TIP3   OH247913   1.540   1.554   3.238  0.3837 -0.0138  0.2747
 8833TIP3    H147914   1.607   1.496   3.203  2.6564  1.3371  2.2426
 8833TIP3    H247915   1.533   1.531   3.331 -1.9044 -0.1345  0.1103
 8834TIP3   OH247916   0.696   1.125   1.907  1.1407 -0.1495 -0.8147
 8834TIP3    H147917   0.764   1.190   1.920  1.2589 -0.7280  1.6748
 8834TIP3    H247918   0.731   1.045   1.946 -0.4723 -0.7495 -0.5397
 8835TIP3   OH247919   0.871   0.863   3.652  0.0134 -0.0858  0.1882
 8835TIP3    H147920   0.891   0.808   3.577  2.9382 -0.2604  1.0430
 8835TIP3    H247921   0.797   0.819   3.695  0.5589 -1.8761 -0.6521
 8836TIP3   OH247922   4.680   2.067  12.911 -0.0581  0.7037  0.0253
 8836TIP3    H147923   4.715   2.123  12.841 -1.0802  1.1538 -0.1384
 8836TIP3    H247924   4.615   2.012  12.867  0.8325 -0.5114  0.2195
 8837TIP3   OH247925   4.724   4.425   6.171  0.3956  0.4238 -0.1326
 8837TIP3    H147926   4.789   4.406   6.238  0.2831 -0.0201 -0.1490
 8837TIP3    H247927   4.726   4.349   6.113 -1.1327 -0.2379  0.6612
 8838TIP3   OH247928   3.858   3.074  17.142  0.0944 -0.4762 -0.6926
 8838TIP3    H147929   3.867   2.996  17.088 -0.9716 -0.4113 -0.9685
 8838TIP3    H247930   3.773   3.110  17.118 -0.3088 -0.3451  0.9016
 8839TIP3   OH247931   5.502   4.251  11.917  0.0273  0.5063  0.3697
 8839TIP3    H147932   5.443   4.260  11.992  0.8867 -1.5017  1.3132
 8839TIP3    H247933   5.487   4.162  11.885 -0.5905  1.4591 -2.0902
 8840TIP3   OH247934   6.449   3.757   1.856  0.4662 -0.0862  0.3375
 8840TIP3    H147935   6.456   3.837   1.805  0.8495  0.6539  1.5248
 8840TIP3    H247936   6.431   3.787   1.945 -1.3415 -1.3885  0.4427
 8841TIP3   OH247937   0.276   1.197   0.001  0.1166 -0.0705  0.0868
 8841TIP3    H147938   0.325   1.116  -0.013  0.9015  0.3721  0.2620
 8841TIP3    H247939   0.187   1.176  -0.028  0.1411 -1.2106  0.7969
 8842TIP3   OH247940   4.323   5.760  16.040  0.4783  0.2447 -0.2196
 8842TIP3    H147941   4.411   5.742  16.071  0.1982 -0.0590  0.4046
 8842TIP3    H247942   4.331   5.842  15.990  1.3586 -0.5313 -1.3519
 8843TIP3   OH247943   0.818   5.497   0.674 -0.2974  0.7450 -0.4083
 8843TIP3    H147944   0.783   5.419   0.631  2.7625 -0.4545 -0.8744
 8843TIP3    H247945   0.830   5.560   0.603  1.6832 -0.0862 -0.8529
 8844TIP3   OH247946   2.869   4.329   4.424 -0.2362 -0.0889  0.4318
 8844TIP3    H147947   2.932   4.384   4.377 -0.5732  0.9953  1.2313
 8844TIP3    H247948   2.898   4.239   4.407 -0.3876  0.2796 -1.8718
 8845TIP3   OH247949   6.504   0.962   3.109 -0.2956 -0.1336 -0.3627
 8845TIP3    H147950   6.581   0.905   3.110  1.0487  1.6376  2.0695
 8845TIP3    H247951   6.503   1.003   3.195 -2.0391  2.4382 -1.5381
 8846TIP3   OH247952   0.280   4.152  16.782  0.5993 -0.0490 -0.4345
 8846TIP3    H147953   0.234   4.226  16.742  0.8024 -0.1911 -0.9308
 8846TIP3    H247954   0.372   4.175  16.777  0.7435 -0.8280 -1.5996
 8847TIP3   OH247955   2.519   2.265  16.395 -0.6304  0.2285 -0.3512
 8847TIP3    H147956   2.529   2.188  16.339  0.8925  0.1771 -0.0080
 8847TIP3    H247957   2.443   2.311  16.358 -0.2186 -0.2998 -1.8793
 8848TIP3   OH247958   0.654   0.655   6.280  0.0008 -0.1541 -0.9346
 8848TIP3    H147959   0.699   0.632   6.361 -0.2373  0.1620 -0.7113
 8848TIP3    H247960   0.636   0.571   6.237  0.1997 -0.3158 -0.7026
 8849TIP3   OH247961   1.146   0.752  15.834  0.5882 -0.7456 -0.1867
 8849TIP3    H147962   1.149   0.841  15.868 -0.3392 -1.4407  1.7853
 8849TIP3    H247963   1.238   0.725  15.828  0.8394  0.1361 -0.2402
 8850TIP3   OH247964   3.514   3.959  17.079  0.3236 -0.3944  0.4076
 8850TIP3    H147965   3.538   4.015  17.005  0.1062  0.0660  0.6844
 8850TIP3    H247966   3.563   3.994  17.153 -0.0372 -0.3893  0.6455
 8851TIP3   OH247967   1.538   0.460  12.758  0.7472  0.0955 -0.0093
 8851TIP3    H147968   1.510   0.371  12.737  1.4208 -0.1696  0.2208
 8851TIP3    H247969   1.564   0.497  12.673  0.2634  0.1465 -0.1359
 8852TIP3   OH247970   6.709   1.491   5.553  0.7449  0.1442  0.1946
 8852TIP3    H147971   6.678   1.569   5.599 -0.6208  0.2034 -0.7912
 8852TIP3    H247972   6.761   1.526   5.481 -0.0838  0.1691 -0.4019
 8853TIP3   OH247973   5.279   1.993  16.422 -0.1892 -0.6803 -0.3328
 8853TIP3    H147974   5.274   2.030  16.333 -0.9074 -0.8843 -0.3799
 8853TIP3    H247975   5.270   2.069  16.480  1.3457 -0.4083 -0.4268
 8854TIP3   OH247976   0.165   4.625  12.386  0.2069 -0.1836 -0.4739
 8854TIP3    H147977   0.101   4.556  12.406 -0.6359  0.8231  0.3839
 8854TIP3    H247978   0.229   4.620  12.456 -0.3873  0.5170  0.1370
 8855TIP3   OH247979   3.272   5.044  15.748 -0.1992  0.0351 -0.4234
 8855TIP3    H147980   3.278   4.986  15.825  1.1353 -1.0333 -1.2934
 8855TIP3    H247981   3.352   5.025  15.699 -1.0684  0.6674 -2.1042
 8856TIP3   OH247982   6.301   2.754  14.685  0.1988 -0.0666  0.4364
 8856TIP3    H147983   6.266   2.747  14.597 -0.2000 -2.0191  0.7276
 8856TIP3    H247984   6.364   2.826  14.681 -0.7354  0.6742 -1.1149
 8857TIP3   OH247985   3.109   3.169   0.794 -0.5397  0.4143 -0.1893
 8857TIP3    H147986   3.179   3.123   0.747 -0.5756 -0.3024  0.4373
 8857TIP3    H247987   3.033   3.163   0.736 -0.4262  0.0477 -0.3015
 8858TIP3   OH247988   5.610   0.589  15.475  0.1397  0.2644  0.1859
 8858TIP3    H147989   5.673   0.658  15.497 -0.8755  1.2546 -0.0056
 8858TIP3    H247990   5.649   0.509  15.511  0.4589  1.2190  2.0106
 8859TIP3   OH247991   6.395   1.454  16.010  0.0373  0.4450  0.1429
 8859TIP3    H147992   6.453   1.480  16.082  0.6643 -0.5757  0.0119
 8859TIP3    H247993   6.447   1.468  15.931 -0.7020  1.7013 -0.1378
 8860TIP3   OH247994   2.911   4.055  14.064  0.3451 -0.2792 -0.1460
 8860TIP3    H147995   2.990   4.004  14.084 -0.2743 -0.7889  1.0792
 8860TIP3    H247996   2.870   4.068  14.150  0.5057  2.3296 -0.4289
 8861TIP3   OH247997   4.066   4.561   5.729  0.3948 -0.2533 -0.4080
 8861TIP3    H147998   4.036   4.609   5.807  0.1611  0.0552 -0.6871
 8861TIP3    H247999   3.988   4.553   5.675 -0.0314 -2.6198  0.4745
 8862TIP3   OH248000   2.548   4.633   5.300 -0.2479  0.6383  0.0799
 8862TIP3    H148001   2.531   4.712   5.352 -0.3081 -0.8075  2.3216
 8862TIP3    H248002   2.602   4.578   5.357 -1.9356 -1.8249 -0.6267
 8863TIP3   OH248003   1.697   1.146  12.376  0.6577  0.5336  0.7196
 8863TIP3    H148004   1.647   1.214  12.421  1.2252  2.7349 -1.8747
 8863TIP3    H248005   1.788   1.172  12.387  0.9685 -0.5633  0.8263
 8864TIP3   OH248006   5.281   0.116  12.867 -0.1088 -0.2807 -0.1135
 8864TIP3    H148007   5.321   0.052  12.926 -0.2391  2.4664  3.1728
 8864TIP3    H248008   5.187   0.103  12.878 -0.1352  0.3464  0.5108
 8865TIP3   OH248009   1.869   5.459  15.278  0.3534 -0.0230 -0.0338
 8865TIP3    H148010   1.852   5.385  15.337  2.5802  1.2362  2.3248
 8865TIP3    H248011   1.963   5.473  15.285  0.5634  0.6445 -3.4280
 8866TIP3   OH248012   0.744   0.072   1.075  0.6061 -0.2418  0.4106
 8866TIP3    H148013   0.714   0.040   1.160  1.5191 -1.7261  0.2008
 8866TIP3    H248014   0.739  -0.004   1.017  0.4098  0.6416 -0.7651
 8867TIP3   OH248015   3.698   2.404  13.892  0.3472  0.3991  0.1332
 8867TIP3    H148016   3.655   2.323  13.865 -0.9347  0.7348  1.1232
 8867TIP3    H248017   3.635   2.473  13.874  2.4231  1.5275 -3.1184
 8868TIP3   OH248018   4.234   0.216   0.620  0.4216 -0.2995 -0.1036
 8868TIP3    H148019   4.272   0.294   0.661  0.5498  0.5045 -1.7160
 8868TIP3    H248020   4.242   0.147   0.686  3.3734  0.2197  0.1327
 8869TIP3   OH248021   5.242   0.096   1.070 -0.3511  0.1957 -0.2333
 8869TIP3    H148022   5.186   0.101   1.147 -0.1448 -1.4007  0.0263
 8869TIP3    H248023   5.311   0.161   1.086  1.6677 -2.4930  2.5417
 8870TIP3   OH248024   1.325   5.103  14.409 -0.4985 -0.0334 -0.0727
 8870TIP3    H148025   1.362   5.064  14.330 -1.7822 -0.0702 -0.6575
 8870TIP3    H248026   1.270   5.174  14.378 -1.6966 -0.5960  0.7377
 8871TIP3   OH248027   3.391   3.747   1.199  0.2885 -0.0260 -0.3221
 8871TIP3    H148028   3.370   3.658   1.227  1.0991 -0.3587 -0.7700
 8871TIP3    H248029   3.480   3.762   1.230 -0.1257  0.9151  0.4294
 8872TIP3   OH248030   3.588   4.216   2.509  0.1455  0.2817  0.2783
 8872TIP3    H148031   3.506   4.211   2.459  1.1180 -0.8545 -1.2456
 8872TIP3    H248032   3.646   4.269   2.455  0.7947  0.0903  0.7881
 8873TIP3   OH248033   0.425   3.087  13.402 -0.4950  0.3869 -0.1278
 8873TIP3    H148034   0.481   3.059  13.330  0.5505  1.1698  0.3750
 8873TIP3    H248035   0.481   3.143  13.456 -0.8224 -1.3025  2.0562
 8874TIP3   OH248036   6.654   1.278  10.874  0.3124 -0.0618  0.1469
 8874TIP3    H148037   6.742   1.244  10.889 -0.1461 -1.4246 -0.2476
 8874TIP3    H248038   6.595   1.214  10.915 -0.4776  1.1832  1.0161
 8875TIP3   OH248039   0.448   4.404  11.597 -0.0407  0.1011 -0.2682
 8875TIP3    H148040   0.369   4.366  11.636  0.8811 -1.0031  0.5671
 8875TIP3    H248041   0.453   4.365  11.510 -0.1614 -0.1831 -0.1490
 8876TIP3   OH248042   6.086   4.768   4.897 -0.0979 -0.4660 -0.0153
 8876TIP3    H148043   6.117   4.733   4.981 -1.0628 -2.2371 -0.3721
 8876TIP3    H248044   6.166   4.792   4.850  0.4139  1.9435  1.9691
 8877TIP3   OH248045   1.229   0.235  14.696 -0.1553  0.5152  0.7568
 8877TIP3    H148046   1.214   0.146  14.665 -0.8516  0.5061  1.0992
 8877TIP3    H248047   1.285   0.225  14.773  1.5578  0.5351 -0.4592
 8878TIP3   OH248048   3.177   1.401   0.485  0.0178  0.1708  0.0378
 8878TIP3    H148049   3.111   1.454   0.529  0.3248 -0.3811  1.1757
 8878TIP3    H248050   3.130   1.324   0.454 -0.2927  0.7793 -1.0280
 8879TIP3   OH248051   5.667   1.193   0.738  0.0295  0.5198  0.0198
 8879TIP3    H148052   5.637   1.106   0.710  0.1064 -0.0769  1.7183
 8879TIP3    H248053   5.601   1.253   0.704 -2.2872 -0.6212  2.3504
 8880TIP3   OH248054   6.232   2.668   4.543 -0.5677  0.6828 -0.3248
 8880TIP3    H148055   6.218   2.578   4.570  0.6462  0.2181 -1.2104
 8880TIP3    H248056   6.145   2.702   4.525 -1.0315 -0.3052  0.0468
 8881TIP3   OH248057   4.752   6.218  12.465  0.8829  0.2183 -0.2852
 8881TIP3    H148058   4.732   6.307  12.437  1.6302 -0.4412 -3.0114
 8881TIP3    H248059   4.698   6.162  12.409 -0.4113 -1.0457  2.1271
 8882TIP3   OH248060   2.613   6.178   4.098 -0.2977  0.3998  0.4724
 8882TIP3    H148061   2.705   6.188   4.074 -0.4161 -0.4386 -0.3565
 8882TIP3    H248062   2.613   6.182   4.194  0.5943  0.4323  0.4796
 8883TIP3   OH248063   6.084   4.326   1.947  0.4846  0.3816 -0.7604
 8883TIP3    H148064   6.097   4.242   1.902 -0.1910 -0.7130  1.0494
 8883TIP3    H248065   6.042   4.381   1.882 -0.2027 -1.0782 -1.5844
 8884TIP3   OH248066   4.490   6.482  16.194  0.4092 -0.2161  0.2308
 8884TIP3    H148067   4.492   6.488  16.290 -2.6128 -0.6262  0.3743
 8884TIP3    H248068   4.470   6.391  16.176  0.6800 -0.0784 -0.7976
 8885TIP3   OH248069   3.634   2.204  14.569  0.0058  0.1659  0.2375
 8885TIP3    H148070   3.604   2.268  14.504 -0.5583  0.3634  0.6958
 8885TIP3    H248071   3.614   2.120  14.530  1.5658  0.2304 -0.7720
 8886TIP3   OH248072   1.801   4.198  14.155 -0.0280  0.2024  0.0967
 8886TIP3    H148073   1.889   4.171  14.129 -0.2903  0.4046 -1.0405
 8886TIP3    H248074   1.783   4.275  14.101 -0.1307  1.3831  1.7607
 8887TIP3   OH248075   1.995   1.927   4.558 -0.5987  0.7443 -0.1122
 8887TIP3    H148076   2.056   1.997   4.531 -0.4400  0.8389  0.4824
 8887TIP3    H248077   1.929   1.972   4.611 -1.4551  0.7175 -1.1565
 8888TIP3   OH248078   3.974   3.448  13.221 -0.2683 -0.1867  0.4316
 8888TIP3    H148079   3.919   3.415  13.150 -0.9133 -0.0335  0.8523
 8888TIP3    H248080   3.947   3.539  13.232  0.7602  0.1854 -0.0178
 8889TIP3   OH248081   3.969   4.952   3.541  0.4337  0.3134 -0.0810
 8889TIP3    H148082   3.887   4.974   3.585 -0.5179 -0.0397 -1.6153
 8889TIP3    H248083   3.992   5.031   3.492 -0.3507 -0.4078 -1.6503
 8890TIP3   OH248084   5.661   4.450  12.346  0.0241 -0.1061 -0.5671
 8890TIP3    H148085   5.705   4.518  12.397  0.6237 -0.4825 -0.5831
 8890TIP3    H248086   5.678   4.473  12.255 -0.5200  0.2117 -0.5964
 8891TIP3   OH248087   4.460   3.867  16.759 -0.4024 -0.3258  0.5064
 8891TIP3    H148088   4.422   3.952  16.736  2.7811  0.4604 -2.2088
 8891TIP3    H248089   4.493   3.880  16.848  0.4472  1.4269 -0.0435
 8892TIP3   OH248090   6.769   2.593   3.610  0.5439 -0.4079 -0.4865
 8892TIP3    H148091   6.795   2.632   3.527 -2.7561  1.0491 -0.8700
 8892TIP3    H248092   6.701   2.530   3.587 -1.1169  0.7187  1.1648
 8893TIP3   OH248093   3.154   4.577  13.423 -0.0254  0.8427  0.0861
 8893TIP3    H148094   3.181   4.492  13.459 -0.4848  0.5488 -0.2675
 8893TIP3    H248095   3.132   4.630  13.500 -0.5311  0.3748  0.2673
 8894TIP3   OH248096   0.042   6.764  17.111  0.0957 -0.5930 -0.2611
 8894TIP3    H148097   0.062   6.803  17.025 -2.9702  1.2672 -0.2363
 8894TIP3    H248098   0.023   6.673  17.092  2.8628 -1.0580 -1.0176
 8895TIP3   OH248099   4.389   3.457   5.485  0.2479 -0.0631  0.5234
 8895TIP3    H148100   4.353   3.419   5.405  1.7682 -1.0717  0.2887
 8895TIP3    H248101   4.415   3.381   5.538 -0.6852  0.5900  1.9578
 8896TIP3   OH248102   3.592   6.360   3.355 -0.0167 -0.3734 -0.3811
 8896TIP3    H148103   3.542   6.441   3.341  1.5095  0.4842 -1.1090
 8896TIP3    H248104   3.678   6.379   3.317  1.4258 -1.1951  2.3058
 8897TIP3   OH248105   4.650   6.521   3.737  0.3959  0.0788 -0.0252
 8897TIP3    H148106   4.637   6.504   3.644  0.1844 -1.2344  0.2366
 8897TIP3    H248107   4.741   6.495   3.754 -0.2115 -1.7257  0.5739
 8898TIP3   OH248108   1.347   1.649  13.105 -0.2921 -0.1298  0.0337
 8898TIP3    H148109   1.432   1.660  13.062  0.4321 -1.2875  1.1378
 8898TIP3    H248110   1.313   1.567  13.070 -1.8053  1.2104 -1.7618
 8899TIP3   OH248111   3.785   0.104   1.163 -0.3728 -0.1882  0.5039
 8899TIP3    H148112   3.780   0.196   1.189  1.5831 -0.7091  2.8776
 8899TIP3    H248113   3.821   0.106   1.074 -1.4433  1.3616  0.0889
 8900TIP3   OH248114   5.352   2.734   0.470 -0.3482  0.1238  0.5135
 8900TIP3    H148115   5.270   2.731   0.421 -0.4877 -0.0606  0.7581
 8900TIP3    H248116   5.342   2.808   0.529 -0.1653  0.3689  0.2397
 8901TIP3   OH248117   5.815   5.552  14.852 -0.4600 -0.3320  0.2524
 8901TIP3    H148118   5.867   5.610  14.909 -2.3135  1.9176 -0.2831
 8901TIP3    H248119   5.862   5.552  14.769  0.1805 -0.5545  0.6069
 8902TIP3   OH248120   6.435   0.234  16.443  0.9412  0.1436 -0.5971
 8902TIP3    H148121   6.389   0.314  16.416 -2.6727 -2.2922 -1.9548
 8902TIP3    H248122   6.521   0.242  16.403  0.0671  2.5616 -2.1499
 8903TIP3   OH248123   0.902   3.982  15.187  0.2575 -0.4652  0.4368
 8903TIP3    H148124   0.945   3.913  15.238 -0.1806 -1.3470 -0.3796
 8903TIP3    H248125   0.869   4.043  15.253 -0.6592 -1.7974  1.2307
 8904TIP3   OH248126   1.232   1.982   2.155  0.2987  0.4753 -0.1688
 8904TIP3    H148127   1.200   1.986   2.245 -1.6126  0.5272 -0.8239
 8904TIP3    H248128   1.275   2.066   2.140 -1.6338  1.4800 -0.1078
 8905TIP3   OH248129   3.413   5.219   6.110 -0.3287  0.2815 -0.3549
 8905TIP3    H148130   3.365   5.277   6.169 -1.0858 -0.8444  0.1484
 8905TIP3    H248131   3.347   5.158   6.077 -0.1545  1.5887 -3.2776
 8906TIP3   OH248132   6.727   1.382   2.541 -0.2845 -0.0384 -0.3001
 8906TIP3    H148133   6.688   1.469   2.529 -1.7074 -0.5696  0.3956
 8906TIP3    H248134   6.821   1.395   2.525 -0.5604  1.5197 -0.6973
 8907TIP3   OH248135   5.977   6.078  16.345  0.1247 -0.3388 -0.5503
 8907TIP3    H148136   5.957   6.166  16.312  1.0428 -0.5121 -1.6077
 8907TIP3    H248137   6.016   6.093  16.431  0.3479  0.3024 -0.7559
 8908TIP3   OH248138   5.450   5.708   3.478  0.4785  0.4919  0.1657
 8908TIP3    H148139   5.418   5.706   3.568 -0.2307  1.5171 -0.0571
 8908TIP3    H248140   5.478   5.798   3.464  0.0716  0.4778 -0.8190
 8909TIP3   OH248141   5.246   4.725  14.981 -0.1171 -0.0192  0.2321
 8909TIP3    H148142   5.333   4.698  14.951  0.0099 -0.5087  1.0144
 8909TIP3    H248143   5.254   4.730  15.076 -0.3479  2.0942  0.1714
 8910TIP3   OH248144   2.590   0.132  11.606  0.3205 -0.2383 -0.8708
 8910TIP3    H148145   2.604   0.227  11.607  0.1718 -0.2175 -0.7266
 8910TIP3    H248146   2.497   0.121  11.586  0.0718 -0.3226  0.2817
 8911TIP3   OH248147   6.748   0.948  11.630  0.3520  0.0541  0.2819
 8911TIP3    H148148   6.824   0.997  11.598 -1.2856 -0.1702 -4.3065
 8911TIP3    H248149   6.676   1.012  11.629 -0.8151 -1.2473 -1.4073
 8912TIP3   OH248150   2.700   4.652   0.384  0.3061 -0.1789  0.5692
 8912TIP3    H148151   2.743   4.591   0.324 -0.5204 -0.6451  0.4534
 8912TIP3    H248152   2.607   4.638   0.371  0.1189 -0.1130  1.7819
 8913TIP3   OH248153   2.135   4.828   0.748  0.2286 -0.1072  0.0714
 8913TIP3    H148154   2.185   4.755   0.711  0.1138 -0.1377 -0.0255
 8913TIP3    H248155   2.091   4.791   0.824 -2.6357 -1.0807 -1.9427
 8914TIP3   OH248156   3.653   0.756   4.797 -0.2274 -0.1075  0.1044
 8914TIP3    H148157   3.636   0.753   4.892 -0.5981  1.1952  0.0868
 8914TIP3    H248158   3.738   0.800   4.790  0.7167 -1.9250 -0.0796
 8915TIP3   OH248159   3.024   5.904   2.900 -0.5596 -0.0720 -0.1816
 8915TIP3    H148160   3.087   5.961   2.855  0.5617 -0.9596  0.2387
 8915TIP3    H248161   3.053   5.815   2.879 -1.9415 -0.5007 -0.3411
 8916TIP3   OH248162   6.253   1.144   5.895 -0.7861  0.4357  0.2155
 8916TIP3    H148163   6.335   1.162   5.942 -0.7048  0.0382  0.2271
 8916TIP3    H248164   6.232   1.226   5.851 -0.7807  0.7709  0.8225
 8917TIP3   OH248165   3.419   3.605   5.105 -0.0301  0.3007  0.2501
 8917TIP3    H148166   3.349   3.574   5.048  0.8664  1.5064 -1.5686
 8917TIP3    H248167   3.443   3.529   5.158 -0.7799 -0.8853 -1.0925
 8918TIP3   OH248168   0.277   2.441   0.717  0.0344  1.1074  0.2023
 8918TIP3    H148169   0.303   2.490   0.795 -0.4286  3.8888 -1.3331
 8918TIP3    H248170   0.360   2.423   0.671  0.1815  0.6056  0.6525
 8919TIP3   OH248171   2.163   0.374   4.720 -0.2735  0.1719  0.2502
 8919TIP3    H148172   2.231   0.310   4.699 -0.3538  0.0758  0.2827
 8919TIP3    H248173   2.210   0.458   4.726  0.0067 -0.0615  1.3318
 8920TIP3   OH248174   1.948   5.232  13.092 -1.2216  0.0026 -0.8397
 8920TIP3    H148175   1.999   5.298  13.139  0.1316 -0.2513 -1.9069
 8920TIP3    H248176   1.857   5.256  13.109 -0.7549  0.7540  0.7071
 8921TIP3   OH248177   0.210   5.766  15.392  0.0810 -0.2861 -0.1404
 8921TIP3    H148178   0.122   5.733  15.410  0.1396  1.7940  4.7426
 8921TIP3    H248179   0.268   5.693  15.416 -0.2135 -1.0502 -1.7007
 8922TIP3   OH248180   5.658   0.488  14.017  0.2626 -0.1764 -0.3746
 8922TIP3    H148181   5.585   0.538  14.054  1.7355  0.7611  1.3771
 8922TIP3    H248182   5.711   0.554  13.972  0.9458 -0.5517 -0.1273
 8923TIP3   OH248183   5.596   5.950  11.487  0.3269  0.1888 -0.0151
 8923TIP3    H148184   5.652   5.889  11.534  0.3390 -0.1199 -0.4331
 8923TIP3    H248185   5.654   6.023  11.464  0.5006 -0.0158 -0.2265
 8924TIP3   OH248186   3.117   5.548  12.029  0.5264  0.6047  0.1402
 8924TIP3    H148187   3.105   5.470  12.084  1.7312  0.5517  0.3564
 8924TIP3    H248188   3.091   5.519  11.942  1.4676 -0.2135  0.1170
 8925TIP3   OH248189   0.320   2.080  13.692  0.3618 -0.4505  0.5760
 8925TIP3    H148190   0.404   2.123  13.677 -0.9323  1.8676 -0.2614
 8925TIP3    H248191   0.273   2.139  13.751 -1.3043 -0.9061 -0.2708
 8926TIP3   OH248192   1.948   5.665   4.364 -0.2147  0.4662 -0.0882
 8926TIP3    H148193   2.006   5.739   4.384 -1.8609  1.8051 -0.0816
 8926TIP3    H248194   1.889   5.699   4.297 -0.1743 -1.2819 -1.0351
 8927TIP3   OH248195   4.396   1.038  14.361  0.4569 -0.0841  0.3768
 8927TIP3    H148196   4.372   1.020  14.270  1.3193  0.6772 -0.0074
 8927TIP3    H248197   4.365   1.127  14.377  0.9524  0.0469  0.6049
 8928TIP3   OH248198   3.798   3.920   0.115 -0.1507  0.1092 -0.4946
 8928TIP3    H148199   3.719   3.974   0.121 -0.5980 -0.7579  2.3767
 8928TIP3    H248200   3.798   3.870   0.196  2.6225 -0.9341 -1.1032
 8929TIP3   OH248201   2.155   3.564   4.456 -0.1653 -0.0575  0.2959
 8929TIP3    H148202   2.178   3.538   4.545 -2.0513 -0.2692  0.7524
 8929TIP3    H248203   2.216   3.516   4.400  0.8087 -0.1866  1.4569
 8930TIP3   OH248204   1.123   3.412  16.592 -0.1329  0.1502  0.9742
 8930TIP3    H148205   1.116   3.437  16.500 -0.3364  0.3789  1.0527
 8930TIP3    H248206   1.088   3.487  16.641 -1.9537 -0.7941  1.1619
 8931TIP3   OH248207   4.501   5.657  11.041 -0.4833  0.2371 -0.3879
 8931TIP3    H148208   4.595   5.674  11.044 -0.3313 -0.5060 -0.9530
 8931TIP3    H248209   4.479   5.662  10.948 -1.2380  1.6377 -0.1569
 8932TIP3   OH248210   1.540   2.015  13.394  0.4190  0.0311 -0.5441
 8932TIP3    H148211   1.526   2.010  13.489 -0.5613  0.6817 -0.6484
 8932TIP3    H248212   1.477   1.953  13.358 -0.6489  1.2901 -0.8822
 8933TIP3   OH248213   4.902   1.618   5.951 -0.8172 -0.1638 -0.2651
 8933TIP3    H148214   4.816   1.584   5.926 -0.9061  0.2282 -0.4889
 8933TIP3    H248215   4.895   1.712   5.941 -1.2946  0.1460  2.5977
 8934TIP3   OH248216   4.089   2.972   1.017 -0.9833  0.3384  0.4115
 8934TIP3    H148217   4.170   2.925   0.998 -1.1407 -0.4073  1.5095
 8934TIP3    H248218   4.076   3.030   0.942 -0.2294 -0.6217 -0.4769
 8935TIP3   OH248219   0.168   3.336  13.437 -0.0402 -0.3806  0.0595
 8935TIP3    H148220   0.093   3.375  13.392 -2.0552 -2.5651  1.4506
 8935TIP3    H248221   0.226   3.308  13.366 -1.1903  0.0498 -1.0718
 8936TIP3   OH248222   6.608   2.240  12.461 -0.4718 -0.2418  0.5216
 8936TIP3    H148223   6.689   2.189  12.474 -0.1198  0.5718  1.5615
 8936TIP3    H248224   6.540   2.186  12.501 -0.0788  0.1614  1.7387
 8937TIP3   OH248225   0.444   4.228   6.346  0.5537  0.1211 -0.6653
 8937TIP3    H148226   0.526   4.259   6.385 -0.4756  0.1371  1.5554
 8937TIP3    H248227   0.376   4.267   6.400 -0.8765 -1.4442 -1.2942
 8938TIP3   OH248228   6.634   5.385  17.001 -0.2435  0.6634 -0.6230
 8938TIP3    H148229   6.728   5.383  17.017 -0.3266  0.4249 -0.1564
 8938TIP3    H248230   6.602   5.456  17.057 -0.4329  0.3081 -0.2801
 8939TIP3   OH248231   0.855   3.643  15.816  0.6668 -0.1856 -0.1334
 8939TIP3    H148232   0.935   3.639  15.869  0.7888  1.4585 -0.1820
 8939TIP3    H248233   0.809   3.720  15.847 -1.0785 -1.2981  0.0979
 8940TIP3   OH248234   3.895   2.185   4.137  0.4028 -0.8313  0.3321
 8940TIP3    H148235   3.972   2.236   4.112 -0.0792  0.0974  0.7240
 8940TIP3    H248236   3.844   2.244   4.193 -0.8026 -1.2768 -0.2714
 8941TIP3   OH248237   0.494   1.529   4.540  0.6910 -0.2113 -0.0947
 8941TIP3    H148238   0.421   1.483   4.499  0.0739  1.1345 -0.5298
 8941TIP3    H248239   0.454   1.607   4.580  1.6921 -0.1292  0.7753
 8942TIP3   OH248240   1.206   4.058  16.558  0.2269 -0.5122 -0.0058
 8942TIP3    H148241   1.117   4.041  16.589 -0.4389 -0.8010 -2.0325
 8942TIP3    H248242   1.261   4.034  16.633 -1.2884 -2.1462  0.6400
 8943TIP3   OH248243   6.090   6.402   5.366 -0.9774  0.2257 -0.5569
 8943TIP3    H148244   6.029   6.468   5.400 -0.5415  0.9319 -1.1305
 8943TIP3    H248245   6.174   6.448   5.361 -0.6324 -0.4306 -0.7915
 8944TIP3   OH248246   6.665   5.270  15.720  0.4904  0.0299 -0.2877
 8944TIP3    H148247   6.674   5.178  15.744  0.2224 -0.1864 -1.0159
 8944TIP3    H248248   6.611   5.308  15.790 -0.0331 -0.5347 -0.3806
 8945TIP3   OH248249   0.372   5.675  13.274  0.2966 -0.1009  0.1117
 8945TIP3    H148250   0.381   5.662  13.368  0.3043  1.3259  0.3149
 8945TIP3    H248251   0.453   5.720  13.248  0.7719 -1.4120 -0.7646
 8946TIP3   OH248252   2.652   4.933  10.495 -0.3437  0.0205 -0.1900
 8946TIP3    H148253   2.626   4.848  10.530 -1.4036  0.6721  0.6259
 8946TIP3    H248254   2.739   4.949  10.531 -1.0529  0.2768  1.4299
 8947TIP3   OH248255   3.027   2.885   1.717  0.0100 -0.4282 -0.7064
 8947TIP3    H148256   2.967   2.884   1.642  0.7152 -0.2521 -1.2742
 8947TIP3    H248257   3.045   2.793   1.734 -1.2079 -0.5288  0.1021
 8948TIP3   OH248258   1.666   2.887  10.808 -0.1152  0.0640  0.7338
 8948TIP3    H148259   1.598   2.954  10.812 -0.6142 -0.4689  1.3224
 8948TIP3    H248260   1.743   2.932  10.774 -0.9200  0.5427 -0.4858
 8949TIP3   OH248261   2.058   0.643   1.878  0.3763 -0.0980  0.1082
 8949TIP3    H148262   2.047   0.734   1.852 -0.7441 -0.2618 -0.0187
 8949TIP3    H248263   1.977   0.600   1.850 -0.7893 -0.3529  3.5435
 8950TIP3   OH248264   4.970   5.690  15.790  0.0768  0.3849 -0.5863
 8950TIP3    H148265   4.915   5.739  15.729 -0.6976  0.0272 -0.1865
 8950TIP3    H248266   5.060   5.709  15.762 -0.1935  2.2679 -0.2565
 8951TIP3   OH248267   0.955   2.162  15.015  0.4742  0.0532  0.2041
 8951TIP3    H148268   0.955   2.094  15.084  0.9268 -0.5565 -0.3901
 8951TIP3    H248269   1.028   2.219  15.038  0.4253  0.0358  0.4075
 8952TIP3   OH248270   6.541   3.963  14.657  0.2085 -0.2588 -0.2547
 8952TIP3    H148271   6.624   3.920  14.637  0.1038 -0.6414  0.1200
 8952TIP3    H248272   6.482   3.932  14.588  0.5764  0.6346 -0.9831
 8953TIP3   OH248273   4.614   4.255   4.905  0.7649 -0.3629  0.0296
 8953TIP3    H148274   4.641   4.315   4.835  0.4061  0.0622  0.2524
 8953TIP3    H248275   4.695   4.237   4.953  0.4393  2.0779  1.5882
 8954TIP3   OH248276   4.259   4.784   2.515  0.2348  0.2851  0.5628
 8954TIP3    H148277   4.308   4.775   2.434  0.5483  0.5016  0.7264
 8954TIP3    H248278   4.325   4.778   2.584  0.0903  1.0140  0.7702
 8955TIP3   OH248279   1.806   5.280   2.375 -0.1641  0.2698 -0.2254
 8955TIP3    H148280   1.843   5.212   2.432 -1.4169  1.1436  1.6798
 8955TIP3    H248281   1.729   5.238   2.335 -0.4220  0.2920  0.2511
 8956TIP3   OH248282   0.930   3.811  14.676  0.1003  0.2640  0.3777
 8956TIP3    H148283   0.948   3.808  14.770  0.7775  0.8438  0.2671
 8956TIP3    H248284   1.013   3.834  14.637 -0.0796 -0.4032 -0.4056
 8957TIP3   OH248285   1.931   2.717   5.168 -0.5373 -0.2331  0.5271
 8957TIP3    H148286   1.964   2.635   5.204 -1.5149 -0.3796  1.0943
 8957TIP3    H248287   1.836   2.713   5.180 -0.6492  0.7431  0.0705
 8958TIP3   OH248288   2.471   4.901  16.055 -0.6120  0.3197 -0.6838
 8958TIP3    H148289   2.428   4.881  16.138 -0.3925 -0.9047 -0.8616
 8958TIP3    H248290   2.413   4.963  16.012  0.0700  2.2879  1.1015
 8959TIP3   OH248291   4.197   0.942   5.313 -0.2741  0.1458  0.3252
 8959TIP3    H148292   4.203   0.881   5.239 -1.1853 -0.7921  1.0122
 8959TIP3    H248293   4.166   0.888   5.386  0.3693  1.1181  1.3341
 8960TIP3   OH248294   0.986   4.655   0.523  0.5268  0.5381 -0.0209
 8960TIP3    H148295   0.949   4.567   0.525  0.9336  0.3843  0.7124
 8960TIP3    H248296   1.071   4.647   0.566  1.3109  0.9499 -1.4626
 8961TIP3   OH248297   2.713   2.043   5.805  0.0544 -0.1516 -0.1767
 8961TIP3    H148298   2.626   2.006   5.816  0.0844 -0.3807 -0.7293
 8961TIP3    H248299   2.709   2.090   5.722  1.0669 -1.8844 -1.2198
 8962TIP3   OH248300   4.330   4.696  12.598  0.1424  0.5717  0.4047
 8962TIP3    H148301   4.401   4.666  12.541  0.4857  1.6131  0.2714
 8962TIP3    H248302   4.258   4.716  12.538  0.4510  1.5200  0.3405
 8963TIP3   OH248303   4.549   4.729  16.836 -0.1119  0.0424 -0.0978
 8963TIP3    H148304   4.580   4.813  16.802  1.0097 -0.5110 -0.4553
 8963TIP3    H248305   4.523   4.748  16.926  1.6886  0.4321  0.3558
 8964TIP3   OH248306   3.747   4.676   0.209  0.0239 -0.0572  0.0275
 8964TIP3    H148307   3.760   4.763   0.173 -0.3261  0.5266  1.2968
 8964TIP3    H248308   3.743   4.619   0.132  0.4448  1.0095 -0.7978
 8965TIP3   OH248309   2.297   5.505   4.353  0.2360 -0.4725  0.1993
 8965TIP3    H148310   2.389   5.479   4.359 -0.0990 -1.4236  1.4184
 8965TIP3    H248311   2.295   5.572   4.285  1.8354 -0.4396  0.1740
 8966TIP3   OH248312   0.700   2.990   1.034  0.7501  0.1654 -0.3704
 8966TIP3    H148313   0.672   3.026   0.949 -2.6427  0.4160  0.7585
 8966TIP3    H248314   0.678   2.897   1.029  1.0687  0.0665  0.0349
 8967TIP3   OH248315   3.661   0.371   3.516  0.1504  0.8123 -0.4604
 8967TIP3    H148316   3.606   0.349   3.441 -1.8538  2.1543  0.5663
 8967TIP3    H248317   3.657   0.293   3.572 -1.7860  1.3693  0.2060
 8968TIP3   OH248318   3.441   3.389   2.445  0.3560  0.1071 -0.4629
 8968TIP3    H148319   3.479   3.396   2.532 -1.7096 -0.6546  0.5478
 8968TIP3    H248320   3.472   3.466   2.398  1.3072  0.6307  1.0242
 8969TIP3   OH248321   5.919   5.359  13.671 -0.5686  0.2938  0.6519
 8969TIP3    H148322   5.927   5.404  13.755 -1.2323  0.5993  0.5526
 8969TIP3    H248323   5.985   5.400  13.615  0.5832 -0.6116  1.3285
 8970TIP3   OH248324   5.971   3.818  15.153  0.1544 -0.3976 -0.3680
 8970TIP3    H148325   5.945   3.904  15.120 -0.9540 -0.7114 -0.3359
 8970TIP3    H248326   6.044   3.792  15.096  1.0977  0.9567  0.2164
 8971TIP3   OH248327   0.065   6.444   0.931 -0.0681 -0.2351  0.3094
 8971TIP3    H148328   0.082   6.511   0.865  0.5504 -0.3675  0.3348
 8971TIP3    H248329   0.010   6.489   0.996 -1.5206 -0.3859 -0.7777
 8972TIP3   OH248330   4.004   5.627  16.005  0.0748 -0.1281 -0.3176
 8972TIP3    H148331   3.922   5.580  16.020 -0.1804  0.0767 -1.0463
 8972TIP3    H248332   4.013   5.685  16.081  0.7051 -1.7794  0.8952
 8973TIP3   OH248333   4.470   1.075  14.915  0.0198  0.0985  0.0298
 8973TIP3    H148334   4.435   1.154  14.873  0.1124  0.2969  0.3181
 8973TIP3    H248335   4.408   1.006  14.893 -1.1279  0.6621  1.3965
 8974TIP3   OH248336   5.734   3.775  10.832 -0.5053  0.6159  0.5809
 8974TIP3    H148337   5.802   3.708  10.838 -0.1356  0.8851 -0.3929
 8974TIP3    H248338   5.775   3.845  10.782 -1.2836  1.0668  0.5725
 8975TIP3   OH248339   4.197   1.624  15.788  0.0957  0.2217  0.3107
 8975TIP3    H148340   4.237   1.591  15.868  1.9458  2.0360  0.1771
 8975TIP3    H248341   4.103   1.606  15.798  0.6987 -2.4334  1.4444
 8976TIP3   OH248342   0.824   4.938   2.469 -0.5412 -0.0293  0.3985
 8976TIP3    H148343   0.751   4.999   2.458 -0.3363  0.1420 -0.0264
 8976TIP3    H248344   0.879   4.978   2.536  0.2572  0.8991 -0.7861
 8977TIP3   OH248345   2.492   5.193   1.827 -0.4406  0.3152 -0.5980
 8977TIP3    H148346   2.566   5.151   1.871 -0.5293  0.8901  0.1136
 8977TIP3    H248347   2.457   5.126   1.770  0.3428 -0.1148 -0.5881
 8978TIP3   OH248348   3.876   1.300  15.530 -0.4264  0.0235 -0.0219
 8978TIP3    H148349   3.952   1.271  15.581  0.9884  1.5729 -1.1758
 8978TIP3    H248350   3.861   1.230  15.467 -0.1684 -0.4650  0.4602
 8979TIP3   OH248351   6.243   3.068   5.819 -0.4819 -0.1542 -0.1696
 8979TIP3    H148352   6.249   3.153   5.863 -1.9432  1.2610 -2.6346
 8979TIP3    H248353   6.167   3.025   5.860  0.7033 -0.6324  1.5989
 8980TIP3   OH248354   6.015   1.388   6.565  0.2884  0.4036 -0.2160
 8980TIP3    H148355   5.967   1.384   6.482  4.0319  0.2517 -2.4940
 8980TIP3    H248356   5.985   1.311   6.613 -1.0885 -0.1785 -1.9330
 8981TIP3   OH248357   4.641   2.792  12.913  0.1212  0.0530  0.4796
 8981TIP3    H148358   4.664   2.748  12.831  1.5242  0.4850  0.6193
 8981TIP3    H248359   4.571   2.852  12.890  0.1152 -0.2464 -0.2869
 8982TIP3   OH248360   4.632   6.736   4.775 -0.1163  1.0324 -0.2834
 8982TIP3    H148361   4.617   6.660   4.718 -2.2047  0.8751  0.4235
 8982TIP3    H248362   4.562   6.797   4.752 -1.3925  0.6973  2.5313
 8983TIP3   OH248363   6.294   2.185   6.022  0.5877 -0.2394  0.5807
 8983TIP3    H148364   6.248   2.258   5.981  0.4643 -0.0159  1.1107
 8983TIP3    H248365   6.236   2.110   6.013 -0.6510  0.4163  2.7597
 8984TIP3   OH248366   4.249   5.437  14.101 -0.0091 -0.1263  0.2463
 8984TIP3    H148367   4.238   5.493  14.024  1.5525  0.5694  0.4997
 8984TIP3    H248368   4.182   5.369  14.092  0.7896 -0.6382 -2.2529
 8985TIP3   OH248369   3.146   0.619  10.873 -0.0382 -0.5292  0.7741
 8985TIP3    H148370   3.115   0.668  10.948 -0.7338 -0.9649  0.7751
 8985TIP3    H248371   3.102   0.659  10.798  0.0626 -0.5939  0.6797
 8986TIP3   OH248372   4.629   0.655  12.224 -0.3632 -0.2722 -0.2067
 8986TIP3    H148373   4.658   0.702  12.146 -1.1858  0.9548  0.1958
 8986TIP3    H248374   4.534   0.646  12.213 -0.6553  0.9071  1.1486
 8987TIP3   OH248375   0.750   3.245  11.743  0.2615 -0.3393  0.4738
 8987TIP3    H148376   0.780   3.335  11.725  0.7132 -0.5713  0.0547
 8987TIP3    H248377   0.743   3.242  11.838  0.6336  0.0238  0.5187
 8988TIP3   OH248378   5.233   4.319   4.975 -0.6776 -0.0837 -0.1451
 8988TIP3    H148379   5.211   4.237   5.018  0.5574 -0.4211 -0.1281
 8988TIP3    H248380   5.329   4.323   4.979 -0.6542  0.7573 -1.2194
 8989TIP3   OH248381   4.590   2.914  13.604 -0.1327  0.2698  0.7826
 8989TIP3    H148382   4.655   2.982  13.621  1.7553 -1.6087  1.2638
 8989TIP3    H248383   4.591   2.860  13.683 -0.0304 -1.5795 -0.4709
 8990TIP3   OH248384   2.314   1.159  13.426  0.6765 -0.5490  0.1775
 8990TIP3    H148385   2.229   1.144  13.383  0.9464 -1.7631  0.0490
 8990TIP3    H248386   2.339   1.247  13.399 -0.6018 -0.1235  0.3118
 8991TIP3   OH248387   3.415   2.427   4.040  0.0896 -0.0953  0.5435
 8991TIP3    H148388   3.449   2.337   4.045 -0.2082 -0.2117  0.5266
 8991TIP3    H248389   3.430   2.463   4.127  2.2697  0.6019 -0.0988
 8992TIP3   OH248390   2.427   3.878   1.875  0.1378  0.0374  0.2724
 8992TIP3    H148391   2.471   3.951   1.832 -0.6847 -0.1179 -0.8722
 8992TIP3    H248392   2.423   3.903   1.968  2.2171  0.2270  0.3173
 8993TIP3   OH248393   1.693   2.976  16.835  0.6155  0.2462 -0.1573
 8993TIP3    H148394   1.707   3.056  16.785 -0.6477  1.0780  0.7966
 8993TIP3    H248395   1.744   2.988  16.915 -1.3821  1.1390  1.0436
 8994TIP3   OH248396   6.291   0.623   5.651 -0.3862 -0.0701 -0.0841
 8994TIP3    H148397   6.378   0.590   5.630 -1.1647 -1.8186 -0.7056
 8994TIP3    H248398   6.272   0.686   5.582  1.0850  1.6882  1.0624
 8995TIP3   OH248399   4.805   2.641  11.945 -0.0279 -0.0150  0.1900
 8995TIP3    H148400   4.857   2.572  11.902 -1.1846 -0.6438 -0.2136
 8995TIP3    H248401   4.857   2.665  12.022  1.2381 -0.0870 -0.6199
 8996TIP3   OH248402   0.504   1.563   1.636 -0.4890 -0.2750  0.1262
 8996TIP3    H148403   0.509   1.516   1.719 -0.0721 -0.4541  0.0026
 8996TIP3    H248404   0.551   1.507   1.574 -0.9321 -0.2179 -0.2661
 8997TIP3   OH248405   0.574   4.188  12.569 -0.5551 -0.3757  0.7415
 8997TIP3    H148406   0.572   4.162  12.661 -1.4704 -0.6197  0.6630
 8997TIP3    H248407   0.483   4.208  12.548 -0.1778  0.8604  0.2206
 8998TIP3   OH248408   3.035   4.803  14.202 -1.0341 -0.4710  0.6023
 8998TIP3    H148409   3.103   4.773  14.141  0.7993  1.5772  1.5491
 8998TIP3    H248410   2.966   4.737  14.196  0.6878 -2.1884 -1.0014
 8999TIP3   OH248411   0.446   6.546   0.090 -0.4172 -0.5396  0.0050
 8999TIP3    H148412   0.428   6.607   0.162  0.9826  1.5956 -1.3948
 8999TIP3    H248413   0.524   6.499   0.117  2.0362  2.5283 -1.4121
 9000TIP3   OH248414   4.375   1.214   5.906 -0.3646  0.1254 -0.0596
 9000TIP3    H148415   4.460   1.205   5.949 -0.4234 -0.3738 -0.0498
 9000TIP3    H248416   4.312   1.221   5.979 -0.6000 -1.9129 -0.0375
 9001TIP3   OH248417   4.058   1.239  16.741  0.1139  0.5490  0.0862
 9001TIP3    H148418   4.109   1.193  16.674  1.0645 -0.3685  1.4067
 9001TIP3    H248419   3.996   1.292  16.691  0.2743 -0.7008 -1.5179
 9002TIP3   OH248420   0.761   4.494  12.955  0.4294 -0.7848  0.3868
 9002TIP3    H148421   0.667   4.497  12.939  0.1881 -1.8022  1.5284
 9002TIP3    H248422   0.779   4.575  13.004 -0.0603 -1.1238  1.1435
 9003TIP3   OH248423   0.113   1.617   5.949 -0.2345  0.3517 -0.0460
 9003TIP3    H148424   0.176   1.661   6.007 -0.6542  0.5954  0.2277
 9003TIP3    H248425   0.097   1.680   5.880  1.1933 -0.4053 -1.1003
 9004TIP3   OH248426   5.449   4.095  15.300 -0.4180  0.1452  0.0692
 9004TIP3    H148427   5.430   4.011  15.257 -0.4958 -1.5400  3.2047
 9004TIP3    H248428   5.538   4.117  15.272  0.9420 -2.7837  1.8523
 9005TIP3   OH248429   6.176   3.171   4.402  1.0725  0.2736 -0.4576
 9005TIP3    H148430   6.127   3.160   4.483  0.5595 -3.9281 -1.2246
 9005TIP3    H248431   6.241   3.101   4.404  1.2849  0.3423 -3.5309
 9006TIP3   OH248432   2.723   2.472   5.026 -0.3315 -0.2892  0.0281
 9006TIP3    H148433   2.666   2.416   5.079 -0.3630 -0.7865 -0.5315
 9006TIP3    H248434   2.663   2.524   4.973 -0.3037  0.2986  0.5640
 9007TIP3   OH248435   3.586   2.535  15.335  0.6278  0.1498  0.8691
 9007TIP3    H148436   3.662   2.481  15.355  2.1274  1.1563 -1.8270
 9007TIP3    H248437   3.618   2.625  15.338 -0.2485  0.5654 -0.9628
 9008TIP3   OH248438   6.516   0.516   2.567 -0.3105  0.8089 -0.8150
 9008TIP3    H148439   6.541   0.589   2.509  1.1309  1.5631  0.7220
 9008TIP3    H248440   6.575   0.445   2.542  0.1379  1.0533 -0.4645
 9009TIP3   OH248441   0.027   3.582   1.084  0.5236 -0.2735 -0.3711
 9009TIP3    H148442  -0.031   3.587   1.007  0.7195 -1.0955 -0.5810
 9009TIP3    H248443   0.063   3.493   1.080  0.4182 -0.3673  0.7601
 9010TIP3   OH248444   6.310   3.904   2.724 -0.5490 -0.0471  0.3128
 9010TIP3    H148445   6.330   3.936   2.636 -0.2060 -0.0399  0.3916
 9010TIP3    H248446   6.380   3.841   2.743 -2.0353 -1.9759 -0.4300
 9011TIP3   OH248447   3.490   4.666   5.020 -0.3511 -0.8508  0.3138
 9011TIP3    H148448   3.546   4.590   5.035  1.5108  0.5632  0.6839
 9011TIP3    H248449   3.497   4.683   4.926 -1.4423 -1.6254  0.0786
 9012TIP3   OH248450   5.298   2.452  15.276  0.3649  0.1411 -0.1115
 9012TIP3    H148451   5.310   2.386  15.208  0.1945  1.5218 -1.5135
 9012TIP3    H248452   5.367   2.516  15.259 -0.2747  0.9839  0.4246
 9013TIP3   OH248453   6.351   3.551   2.587 -0.2719 -0.3188  0.3588
 9013TIP3    H148454   6.320   3.476   2.637 -0.2994  0.8331  2.0991
 9013TIP3    H248455   6.407   3.599   2.647 -1.6115  1.9749 -0.1416
 9014TIP3   OH248456   3.401   2.259  12.310  0.3813 -0.1359  0.1011
 9014TIP3    H148457   3.366   2.304  12.233  2.0920 -0.1769 -0.7133
 9014TIP3    H248458   3.326   2.212  12.346 -0.7183  0.8675 -0.8308
 9015TIP3   OH248459   4.479   0.696   4.993  0.3555 -0.1837 -0.0547
 9015TIP3    H148460   4.426   0.648   4.930 -0.5987 -0.3076  0.8252
 9015TIP3    H248461   4.501   0.632   5.061 -2.0508  0.8813  1.8177
 9016TIP3   OH248462   4.376   0.610  16.687  0.1620  0.3250 -0.3841
 9016TIP3    H148463   4.322   0.689  16.685  0.5990  0.6750  1.2432
 9016TIP3    H248464   4.357   0.570  16.772  1.5914 -0.1566 -0.2768
 9017TIP3   OH248465   5.974   5.520  14.622 -0.0407  0.5393  0.4676
 9017TIP3    H148466   6.056   5.553  14.586  0.4346 -1.4009 -0.3056
 9017TIP3    H248467   5.907   5.547  14.560  0.4174 -0.4278 -0.4549
 9018TIP3   OH248468   2.452   0.388   3.920 -0.3442 -0.1882 -0.0580
 9018TIP3    H148469   2.527   0.382   3.978  0.7709 -0.7036 -1.5147
 9018TIP3    H248470   2.391   0.447   3.964  1.4166  1.1744  0.5964
 9019TIP3   OH248471   0.927   1.561   2.038 -0.4215  0.0559  0.1775
 9019TIP3    H148472   0.966   1.643   2.008  0.2022 -0.1181  0.5001
 9019TIP3    H248473   0.966   1.546   2.124 -0.0216 -0.9247 -0.1667
 9020TIP3   OH248474   4.299   1.033  14.118 -0.0493  0.2414  0.4702
 9020TIP3    H148475   4.274   1.091  14.047 -2.0515 -0.9526  0.1468
 9020TIP3    H248476   4.217   1.014  14.164  1.2039  1.0511  3.1784
 9021TIP3   OH248477   2.089   0.056   3.884 -0.7010 -0.1755 -0.0076
 9021TIP3    H148478   2.098   0.061   3.788  0.9430 -1.1057  0.0845
 9021TIP3    H248479   2.163   0.105   3.918 -1.3718  0.2807  0.7923
 9022TIP3   OH248480   3.909   0.292  14.053  0.2111 -0.6426  0.0687
 9022TIP3    H148481   3.875   0.262  14.137 -2.0597 -0.6440 -0.8115
 9022TIP3    H248482   3.923   0.386  14.064  0.3747 -0.7250  0.5760
 9023TIP3   OH248483   5.671   5.226   2.932 -0.2762  0.0413  0.4030
 9023TIP3    H148484   5.579   5.245   2.946 -0.3184  0.2317 -0.1200
 9023TIP3    H248485   5.677   5.131   2.935 -0.5655  0.0097 -0.0167
 9024TIP3   OH248486   4.958   5.066   5.311 -0.3068 -0.0901  0.1831
 9024TIP3    H148487   5.006   5.016   5.377  2.0894  0.2360 -1.2758
 9024TIP3    H248488   4.974   5.158   5.333 -1.4221  0.0438  0.4902
 9025TIP3   OH248489   6.488   5.824  12.203  0.0702 -0.3612 -0.1918
 9025TIP3    H148490   6.477   5.792  12.113  0.5388  1.1161 -0.7888
 9025TIP3    H248491   6.582   5.835  12.213 -0.0537  0.3858  0.1628
 9026TIP3   OH248492   3.254   3.621  15.501  0.3678  0.0611  0.3122
 9026TIP3    H148493   3.304   3.684  15.553 -0.8704  1.8104 -0.5267
 9026TIP3    H248494   3.163   3.638  15.525 -0.1161 -0.1036 -1.3153
 9027TIP3   OH248495   0.480   1.112   2.158  0.1410  0.2614 -0.5402
 9027TIP3    H148496   0.486   1.017   2.150  0.7853  0.3722 -1.4395
 9027TIP3    H248497   0.549   1.146   2.101  0.0985  1.2636 -0.0114
 9028TIP3   OH248498   5.783   1.162   6.613 -0.0759  0.3966 -0.7800
 9028TIP3    H148499   5.800   1.227   6.682 -0.1281  0.2263 -0.6052
 9028TIP3    H248500   5.693   1.133   6.629  0.2893 -0.4527 -0.2398
 9029TIP3   OH248501   2.900   6.580  11.091 -0.3822 -0.0556 -0.5194
 9029TIP3    H148502   2.812   6.557  11.120 -0.9503 -0.5591 -2.5199
 9029TIP3    H248503   2.894   6.581  10.995  0.6340  4.5072 -0.6228
 9030TIP3   OH248504   4.390   2.106   5.399 -0.0462 -0.6982  0.2462
 9030TIP3    H148505   4.482   2.088   5.382 -0.1047 -1.8801  1.0973
 9030TIP3    H248506   4.386   2.117   5.494 -0.8796 -1.2592  0.2796
 9031TIP3   OH248507   3.117   4.190  14.701  0.5039 -0.0899  0.3537
 9031TIP3    H148508   3.147   4.276  14.674  0.7561 -0.2973 -0.0298
 9031TIP3    H248509   3.041   4.207  14.757  1.2131  0.4279  1.1835
 9032TIP3   OH248510   2.633   2.165   2.565 -0.3093 -0.0287  0.1469
 9032TIP3    H148511   2.546   2.168   2.607 -1.1919 -2.7383 -1.3743
 9032TIP3    H248512   2.618   2.198   2.477 -0.1029 -1.6890 -0.5390
 9033TIP3   OH248513   3.445   1.544   0.668  0.0828  0.2099 -0.1527
 9033TIP3    H148514   3.538   1.565   0.670  0.3522 -1.0284  0.7280
 9033TIP3    H248515   3.408   1.604   0.602  1.1698  1.9475  0.7930
 9034TIP3   OH248516   2.718   2.120  14.197  0.6968  0.3477 -0.1034
 9034TIP3    H148517   2.657   2.157  14.133 -1.3793  1.3677  2.3767
 9034TIP3    H248518   2.697   2.026  14.199  0.0228  0.4926 -0.1693
 9035TIP3   OH248519   6.174   1.046   2.405  0.0646  0.0904 -0.3762
 9035TIP3    H148520   6.099   1.105   2.399 -1.1719 -1.5170 -1.2188
 9035TIP3    H248521   6.202   1.052   2.496 -1.9615 -0.3182  0.3048
 9036TIP3   OH248522   4.427   6.278   2.146  0.0862 -0.5903  0.7529
 9036TIP3    H148523   4.375   6.261   2.225 -0.9628  1.9435  0.6409
 9036TIP3    H248524   4.412   6.370   2.126  2.4300 -0.5112 -0.9138
 9037TIP3   OH248525   2.928   0.238   4.013  0.2202  0.4274  0.1310
 9037TIP3    H148526   2.981   0.310   3.978  0.5246 -0.4199 -1.1897
 9037TIP3    H248527   2.961   0.224   4.101  1.6368  0.4655 -0.3858
 9038TIP3   OH248528   6.725   1.160  16.392 -0.2973  0.2169 -0.3582
 9038TIP3    H148529   6.779   1.081  16.387 -0.7437 -0.0435 -1.2468
 9038TIP3    H248530   6.672   1.148  16.470 -0.1822 -0.2520 -0.3494
 9039TIP3   OH248531   6.395   1.800   3.483 -0.3315  0.1822 -0.0825
 9039TIP3    H148532   6.339   1.846   3.545 -1.0744 -1.8380  0.7755
 9039TIP3    H248533   6.453   1.747   3.537 -2.5965 -3.4955 -1.0603
 9040TIP3   OH248534   1.472   4.566  15.795  0.6105  0.2630  0.1715
 9040TIP3    H148535   1.558   4.548  15.834 -0.2552  1.0395  2.5252
 9040TIP3    H248536   1.437   4.480  15.773  1.1226 -0.1889  1.0936
 9041TIP3   OH248537   6.143   1.100  11.423 -0.0219  0.0930  0.2359
 9041TIP3    H148538   6.186   1.152  11.355  1.3615 -2.0511 -0.6063
 9041TIP3    H248539   6.134   1.013  11.383 -2.6902 -0.2263  1.4170
 9042TIP3   OH248540   1.328   2.853   4.870 -0.2259 -0.3753 -0.5691
 9042TIP3    H148541   1.405   2.889   4.914  0.6315 -2.8000  0.0500
 9042TIP3    H248542   1.275   2.817   4.942 -1.3267  0.2098 -1.0951
 9043TIP3   OH248543   5.175   4.532   3.104 -0.0296 -0.5216  0.3252
 9043TIP3    H148544   5.267   4.512   3.122  0.2283 -1.1565 -1.5816
 9043TIP3    H248545   5.175   4.566   3.014 -1.8034 -1.7754 -0.1761
 9044TIP3   OH248546   5.208   2.855   2.588 -0.0842 -0.7677  0.0205
 9044TIP3    H148547   5.302   2.866   2.576  0.1099 -2.4479 -0.0343
 9044TIP3    H248548   5.169   2.909   2.520  0.8608 -1.5168 -1.1271
 9045TIP3   OH248549   6.195   4.313   5.277 -0.1584 -0.0961 -0.0029
 9045TIP3    H148550   6.204   4.408   5.286 -0.7661 -0.1312  1.0104
 9045TIP3    H248551   6.101   4.297   5.287  0.0678 -0.9116  0.8681
 9046TIP3   OH248552   5.943   6.315  16.566 -0.0573  0.1869 -0.4377
 9046TIP3    H148553   5.982   6.388  16.614 -0.6296  1.1071 -1.3485
 9046TIP3    H248554   5.908   6.257  16.634 -0.5973  1.3220  0.2625
 9047TIP3   OH248555   3.163   1.148   2.814 -0.3629  0.3396 -0.4388
 9047TIP3    H148556   3.193   1.119   2.728  0.9502  0.7318 -0.1380
 9047TIP3    H248557   3.153   1.243   2.805 -1.2756  0.2393 -0.4630
 9048TIP3   OH248558   5.170   1.975   4.035 -0.0455  0.4122  0.2440
 9048TIP3    H148559   5.262   1.995   4.051 -0.2625  0.5915  1.3422
 9048TIP3    H248560   5.171   1.908   3.966  0.9412 -0.2542  0.8969
 9049TIP3   OH248561   6.725   4.456   1.896 -0.4931 -0.2446  0.4981
 9049TIP3    H148562   6.820   4.443   1.889 -0.8272 -2.0628 -1.1320
 9049TIP3    H248563   6.689   4.404   1.824 -2.7198  0.5946  0.9857
 9050TIP3   OH248564   2.912   0.104   1.761 -0.2910 -0.1830  0.0026
 9050TIP3    H148565   2.834   0.159   1.766 -1.0898 -1.2671 -0.2848
 9050TIP3    H248566   2.916   0.060   1.846 -1.2348 -1.7595 -0.7442
 9051TIP3   OH248567   0.107   6.682   0.779 -0.2625  0.1710 -0.2097
 9051TIP3    H148568   0.157   6.760   0.803 -1.2446  0.8424 -0.3004
 9051TIP3    H248569   0.031   6.716   0.732 -1.0336 -0.7891  0.3139
 9052TIP3   OH248570   3.454   5.354   4.750 -0.4672 -0.4861  0.4745
 9052TIP3    H148571   3.497   5.357   4.835 -2.2372  2.0395  1.3259
 9052TIP3    H248572   3.493   5.427   4.701 -1.5841 -0.1008  0.1563
 9053TIP3   OH248573   4.887   1.269  10.631  0.6364  0.1172 -0.2280
 9053TIP3    H148574   4.885   1.364  10.639 -1.4555  0.3714 -2.9425
 9053TIP3    H248575   4.965   1.251  10.578  0.8071  0.3462 -0.0566
 9054TIP3   OH248576   3.878   6.653  12.571  0.0578 -1.0594  0.7135
 9054TIP3    H148577   3.861   6.633  12.479  0.2861 -1.1357  0.6851
 9054TIP3    H248578   3.973   6.665  12.575  0.2545 -2.5726  1.2104
 9055TIP3   OH248579   5.633   2.067   4.943 -0.8881  0.4832 -0.3877
 9055TIP3    H148580   5.575   1.993   4.962 -0.9052  0.9235  1.3085
 9055TIP3    H248581   5.574   2.142   4.934 -0.7439  0.5575 -0.7316
 9056TIP3   OH248582   6.484   3.649   3.848 -0.0867 -0.0503 -0.7386
 9056TIP3    H148583   6.475   3.600   3.930 -0.5645  1.1999 -0.0358
 9056TIP3    H248584   6.447   3.591   3.782  0.4748 -1.1497 -0.0995
 9057TIP3   OH248585   5.967   6.110   4.328  0.0602  0.2453 -0.3347
 9057TIP3    H148586   5.998   6.094   4.417 -0.4456  1.1226  0.0078
 9057TIP3    H248587   6.014   6.189   4.300  0.4694 -0.2181 -0.9760
 9058TIP3   OH248588   1.121   0.016   3.738 -0.2147  0.2061  0.3013
 9058TIP3    H148589   1.079  -0.070   3.744 -1.4224  0.7324 -0.3474
 9058TIP3    H248590   1.146   0.037   3.828  0.1129 -0.8269  0.4614
 9059TIP3   OH248591   6.595   2.477   2.939 -0.4880 -0.6091  0.4023
 9059TIP3    H148592   6.596   2.395   2.988 -2.5564 -0.3438  0.9447
 9059TIP3    H248593   6.599   2.545   3.006 -0.3287 -0.2661  0.0461
 9060TIP3   OH248594   5.115   5.004   0.071 -0.0330 -0.4828  0.2551
 9060TIP3    H148595   5.099   5.027  -0.020  1.4510  2.0332  0.5784
 9060TIP3    H248596   5.192   4.947   0.069  0.0427 -0.3682 -0.0640
 9061TIP3   OH248597   3.560   0.922  16.412 -0.1485 -0.4875  0.2314
 9061TIP3    H148598   3.651   0.916  16.440  0.0949 -0.0312 -0.4545
 9061TIP3    H248599   3.563   0.968  16.328 -1.1279  0.6414  0.8048
 9062TIP3   OH248600   0.990   0.625  14.691 -0.2773  0.2120 -0.1906
 9062TIP3    H148601   1.073   0.626  14.642 -0.6098  0.5261 -0.7545
 9062TIP3    H248602   0.997   0.696  14.753 -1.2632  2.1138 -2.1738
 9063TIP3   OH248603   4.779   1.271   3.295 -0.5922  0.0318 -0.8416
 9063TIP3    H148604   4.687   1.274   3.318 -0.6074 -1.8659 -0.6074
 9063TIP3    H248605   4.787   1.195   3.237  0.7050  0.5899 -1.4303
 9064TIP3   OH248606   6.005   3.875   5.183  0.0981  0.1945 -0.4856
 9064TIP3    H148607   6.077   3.821   5.151  0.2732 -0.2898  0.7194
 9064TIP3    H248608   6.005   3.862   5.277 -1.4360  0.3659 -0.4524
 9065TIP3   OH248609   5.123   5.392   2.805 -0.4395 -0.1188 -0.6142
 9065TIP3    H148610   5.159   5.447   2.736 -1.5252  1.1404 -0.2101
 9065TIP3    H248611   5.132   5.303   2.773  0.2455  0.3780 -1.8120
 9066TIP3   OH248612   0.551   2.145  13.566  0.1152 -0.1573  0.2428
 9066TIP3    H148613   0.543   2.203  13.490  0.0574 -0.5450 -0.0485
 9066TIP3    H248614   0.633   2.097  13.551 -0.6581 -1.3274 -0.3324
 9067TIP3   OH248615   4.137   3.264   0.128  0.1284 -0.4881  0.0345
 9067TIP3    H148616   4.224   3.282   0.094  0.4827  0.6152  1.4877
 9067TIP3    H248617   4.085   3.243   0.051  0.9608  1.7345 -1.1783
 9068TIP3   OH248618   1.757   6.406  15.754  0.1380  0.5379 -0.3569
 9068TIP3    H148619   1.725   6.436  15.669  1.0344  0.7340 -0.6320
 9068TIP3    H248620   1.728   6.315  15.761  1.3963  0.0296 -1.5546
 9069TIP3   OH248621   2.018   5.142  15.391  0.1235  0.0815  1.4287
 9069TIP3    H148622   1.940   5.137  15.336  0.6715 -1.8965  0.7755
 9069TIP3    H248623   1.986   5.123  15.479 -0.1583 -0.5602  1.1914
 9070TIP3   OH248624   3.780   2.931   0.445  0.7796  0.2864  0.4826
 9070TIP3    H148625   3.740   2.954   0.361 -3.3407  1.1158  2.6156
 9070TIP3    H248626   3.768   2.836   0.452 -1.3667  0.6110  1.3659
 9071TIP3   OH248627   1.353   4.654  13.736  0.8098 -0.1179  0.0514
 9071TIP3    H148628   1.281   4.687  13.682  1.6096  2.3136  0.4550
 9071TIP3    H248629   1.420   4.627  13.673  0.0137 -1.3689 -0.2859
 9072TIP3   OH248630   2.928   5.078   5.038 -0.3485  0.1981  0.1612
 9072TIP3    H148631   2.868   5.098   4.966 -1.4392  0.1814  1.0528
 9072TIP3    H248632   2.872   5.038   5.105  0.9457 -1.2657  0.3725
 9073TIP3   OH248633   0.658   4.862   3.971  0.1097 -0.4231  0.2260
 9073TIP3    H148634   0.601   4.839   3.897  0.1089 -2.3959  0.8196
 9073TIP3    H248635   0.607   4.926   4.021  0.2699  1.2368 -1.6722
 9074TIP3   OH248636   6.037   2.274  15.338 -0.0987 -0.2418 -0.0722
 9074TIP3    H148637   5.991   2.315  15.265  0.0072  0.4868  0.2596
 9074TIP3    H248638   6.111   2.229  15.298  1.9322  2.9507 -0.1385
 9075TIP3   OH248639   0.564   4.647  11.578 -0.2753 -0.0118  0.2602
 9075TIP3    H148640   0.530   4.691  11.500 -1.1846 -0.8058  0.2043
 9075TIP3    H248641   0.505   4.573  11.592  0.7021 -0.6872  0.8911
 9076TIP3   OH248642   6.610   6.012  11.922  0.2567  0.4125 -0.3148
 9076TIP3    H148643   6.548   6.060  11.977 -0.8948  0.2319 -1.4336
 9076TIP3    H248644   6.571   5.926  11.910  0.9119  0.1647 -0.7216
 9077TIP3   OH248645   0.673   1.333  13.404  0.1453 -0.6146  0.1051
 9077TIP3    H148646   0.745   1.305  13.461  0.4476  0.8187  0.4465
 9077TIP3    H248647   0.667   1.264  13.338  0.4393 -1.7901  1.2999
 9078TIP3   OH248648   2.994   2.658  13.698 -0.8041  0.3986  0.2805
 9078TIP3    H148649   3.033   2.586  13.649 -2.1097 -0.9020  1.0997
 9078TIP3    H248650   2.926   2.692  13.640 -0.6832  0.4851  0.1899
 9079TIP3   OH248651   0.852   4.038  12.455 -0.1126  0.0634 -0.2493
 9079TIP3    H148652   0.796   3.962  12.469  0.3024 -0.1001  0.5725
 9079TIP3    H248653   0.940   4.008  12.479  0.2392  0.4827 -0.9753
 9080TIP3   OH248654   0.605   5.200   4.427 -0.1680 -0.1802  0.1322
 9080TIP3    H148655   0.632   5.121   4.381  0.1993 -0.0960  0.2047
 9080TIP3    H248656   0.509   5.196   4.428 -0.1470 -0.6842  0.2422
 9081TIP3   OH248657   5.942   1.907   3.781 -0.1752  0.3268  0.6332
 9081TIP3    H148658   5.936   1.826   3.732 -0.7147  0.3113  0.7242
 9081TIP3    H248659   5.852   1.928   3.805 -0.1388  1.4285 -0.1694
 9082TIP3   OH248660   2.173   4.415  11.727 -0.4462 -0.2368  0.0793
 9082TIP3    H148661   2.262   4.415  11.691 -0.0840 -1.7984  0.9210
 9082TIP3    H248662   2.164   4.501  11.768 -0.4547  1.1411 -2.7026
 9083TIP3   OH248663   3.393   6.515   0.935 -0.0261 -0.0978 -0.3026
 9083TIP3    H148664   3.425   6.432   0.969 -1.2919 -1.1239 -1.5426
 9083TIP3    H248665   3.305   6.524   0.974 -0.3040  0.1487 -0.9809
 9084TIP3   OH248666   4.105   5.495   2.686 -0.3716  0.1453  0.2955
 9084TIP3    H148667   4.078   5.567   2.630 -1.7627 -0.2120  0.5004
 9084TIP3    H248668   4.125   5.423   2.626  0.7113  0.5961  0.1100
 9085TIP3   OH248669   6.762   2.594  12.104  0.8433 -0.5531 -0.3483
 9085TIP3    H148670   6.837   2.620  12.050 -0.1920  0.6237 -1.2332
 9085TIP3    H248671   6.687   2.638  12.064 -0.6437 -3.1907 -0.5988
 9086TIP3   OH248672   0.503   5.336   2.959 -0.3765 -0.1509  0.0975
 9086TIP3    H148673   0.531   5.278   3.029  0.6793  0.0989 -0.1039
 9086TIP3    H248674   0.408   5.326   2.955 -0.4110 -0.3864  1.3630
 9087TIP3   OH248675   5.457   1.501   4.815  0.7792  0.0936  0.1524
 9087TIP3    H148676   5.438   1.446   4.892  1.9343  0.5644  0.7900
 9087TIP3    H248677   5.479   1.438   4.746 -0.7407 -0.3569  0.0429
 9088TIP3   OH248678   2.050   3.002  17.003  0.3221 -0.7088  0.3029
 9088TIP3    H148679   2.146   3.010  17.008  0.2826  0.1505 -0.1387
 9088TIP3    H248680   2.035   2.936  16.935  0.5948 -0.1687 -0.2937
 9089TIP3   OH248681   3.219   5.854   6.215 -0.3898  0.2989 -0.4256
 9089TIP3    H148682   3.305   5.896   6.225 -0.5086  0.3369  0.4492
 9089TIP3    H248683   3.166   5.919   6.170 -0.6771  1.2389  1.2360
 9090TIP3   OH248684   5.330   0.256  13.150  0.0814 -0.3347 -0.0102
 9090TIP3    H148685   5.367   0.212  13.074  0.1365  0.5894 -0.5294
 9090TIP3    H248686   5.373   0.214  13.225  2.7165  1.1117 -0.6149
 9091TIP3   OH248687   5.576   2.585  16.228 -0.3880 -0.1685  0.4257
 9091TIP3    H148688   5.480   2.585  16.225 -0.3793 -1.0037 -0.9680
 9091TIP3    H248689   5.600   2.674  16.251 -1.4602  0.9497 -2.5441
 9092TIP3   OH248690   5.747   1.991  15.771 -0.2171 -0.3145  0.1621
 9092TIP3    H148691   5.775   2.078  15.797 -1.0485  0.2716 -0.8732
 9092TIP3    H248692   5.807   1.965  15.701 -1.1082  0.1950 -0.8012
 9093TIP3   OH248693   6.643   4.559   6.021 -0.6832  0.7013  0.1612
 9093TIP3    H148694   6.659   4.580   6.113 -0.8882 -0.7908  0.5505
 9093TIP3    H248695   6.730   4.566   5.980 -0.1634 -0.9110  0.9481
 9094TIP3   OH248696   3.372   1.688  10.948  0.3588 -0.5459 -0.0989
 9094TIP3    H148697   3.440   1.683  11.016 -0.3887  0.6082  0.7456
 9094TIP3    H248698   3.382   1.776  10.911 -0.0644 -0.7126 -0.6141
 9095TIP3   OH248699   3.520   4.970   2.571 -0.3211  0.3947  0.3237
 9095TIP3    H148700   3.515   5.042   2.509 -1.0786 -0.3974 -0.5513
 9095TIP3    H248701   3.595   4.992   2.627  0.0871  1.3451 -0.5723
 9096TIP3   OH248702   4.215   3.161   4.394  0.2310  0.6257  0.5288
 9096TIP3    H148703   4.172   3.217   4.458  1.0067 -0.1294  1.7223
 9096TIP3    H248704   4.234   3.080   4.441  2.0471  0.5750 -0.2648
 9097TIP3   OH248705   2.372   2.704  14.972 -0.1398 -0.2675  0.2057
 9097TIP3    H148706   2.411   2.790  14.959 -1.3594  0.5095  1.5141
 9097TIP3    H248707   2.396   2.680  15.062  0.7886 -1.6176 -0.3901
 9098TIP3   OH248708   2.088   1.349  15.489 -0.2888 -0.2334 -0.1056
 9098TIP3    H148709   2.174   1.385  15.511  0.7648 -1.4871 -2.0525
 9098TIP3    H248710   2.090   1.260  15.524 -1.1918  0.0827  0.7514
 9099TIP3   OH248711   1.718   1.185   2.591  0.3142  0.6783  0.4270
 9099TIP3    H148712   1.759   1.245   2.528  0.5004 -2.0394 -2.1453
 9099TIP3    H248713   1.787   1.121   2.611 -0.1544  0.7802  2.4643
 9100TIP3   OH248714   1.514   6.076  17.142 -0.0146  0.5726  0.1842
 9100TIP3    H148715   1.583   6.132  17.177 -0.3260  2.1370 -1.6223
 9100TIP3    H248716   1.436   6.132  17.141 -0.9444 -0.6897  0.7327
 9101TIP3   OH248717   2.662   4.502   2.933 -0.2890 -0.0568  0.3828
 9101TIP3    H148718   2.649   4.581   2.880 -1.8163  0.8386  2.0252
 9101TIP3    H248719   2.574   4.466   2.942  0.0876 -0.6775  1.5902
 9102TIP3   OH248720   4.643   0.183  13.742  0.0699 -0.8173 -0.0004
 9102TIP3    H148721   4.580   0.255  13.737  0.7540 -0.2731 -1.1646
 9102TIP3    H248722   4.654   0.166  13.836 -0.5008  0.2435  0.2636
 9103TIP3   OH248723   3.353   1.107  12.473  0.0673 -0.3248  0.0908
 9103TIP3    H148724   3.319   1.018  12.471  1.4168 -0.8419 -0.1757
 9103TIP3    H248725   3.398   1.113  12.557  0.6914 -0.1685 -0.2533
 9104TIP3   OH248726   6.527   2.058  15.844 -0.2570  0.0614 -0.3184
 9104TIP3    H148727   6.507   1.965  15.856 -0.6688 -0.0524 -1.8124
 9104TIP3    H248728   6.444   2.097  15.817 -0.2964  1.0324  1.1388
 9105TIP3   OH248729   6.768   4.715   6.212 -0.4926  0.3720  0.5818
 9105TIP3    H148730   6.759   4.750   6.301 -1.2513 -0.2022  0.7327
 9105TIP3    H248731   6.847   4.662   6.215 -1.5178 -1.1658  1.4292
 9106TIP3   OH248732   1.021   0.325  12.961 -0.3517  0.1305  0.8617
 9106TIP3    H148733   1.038   0.244  13.009  1.4178 -0.5021 -0.7697
 9106TIP3    H248734   0.947   0.365  13.007 -0.2151 -1.6024  2.6669
 9107TIP3   OH248735   4.254   6.304   5.034  0.0209  0.1548 -0.2956
 9107TIP3    H148736   4.230   6.237   4.970 -0.8764  0.6365 -0.4699
 9107TIP3    H248737   4.193   6.292   5.106  0.2492  0.4022 -0.0584
 9108TIP3   OH248738   2.285   2.540   5.132 -0.2276 -0.4150  0.4709
 9108TIP3    H148739   2.202   2.538   5.180 -1.7846 -2.7718 -2.1809
 9108TIP3    H248740   2.261   2.532   5.040  2.9188 -0.5985 -0.4144
 9109TIP3   OH248741   5.395   2.486   2.690 -0.8509  0.0146 -0.0177
 9109TIP3    H148742   5.401   2.408   2.635  0.5352 -0.1609  0.3622
 9109TIP3    H248743   5.407   2.559   2.629 -1.5366 -0.0884 -0.2799
 9110TIP3   OH248744   2.295   5.476   0.533  0.4841 -0.0705  0.2735
 9110TIP3    H148745   2.307   5.382   0.523 -0.2628 -0.4352  2.4354
 9110TIP3    H248746   2.245   5.485   0.614 -0.6746  2.1208 -0.6419
 9111TIP3   OH248747   6.343   0.932  16.674 -0.4826  0.0089 -0.0783
 9111TIP3    H148748   6.334   1.010  16.620  0.9210  0.1704 -0.1067
 9111TIP3    H248749   6.391   0.870  16.619 -0.2140 -0.3060  0.5024
 9112TIP3   OH248750   5.829   2.173   4.400 -0.1941 -0.1939  0.2903
 9112TIP3    H148751   5.784   2.172   4.484 -0.9152  0.0113 -0.0860
 9112TIP3    H248752   5.922   2.173   4.422 -0.3785 -0.2584  1.0819
 9113TIP3   OH248753   4.092   1.478   5.617 -0.2508  0.2740 -0.8980
 9113TIP3    H148754   4.134   1.559   5.589  0.2859  0.2222 -0.2372
 9113TIP3    H248755   4.163   1.425   5.652 -0.9300  0.3808  0.6709
 9114TIP3   OH248756   5.884   5.594  11.397  0.5880 -0.6630  0.3301
 9114TIP3    H148757   5.943   5.599  11.472 -1.7854  1.5069  2.1325
 9114TIP3    H248758   5.837   5.512  11.410 -1.3207  0.7113  2.4445
 9115TIP3   OH248759   5.748   2.260   3.717  0.3506 -0.2792  0.1819
 9115TIP3    H148760   5.791   2.344   3.737  1.0531  0.4630 -3.8734
 9115TIP3    H248761   5.661   2.285   3.685  0.9524 -0.9457 -2.0859
 9116TIP3   OH248762   5.927   0.009  14.618 -0.1485  0.0649  0.2044
 9116TIP3    H148763   5.889   0.093  14.642 -0.2061  0.9994 -2.9070
 9116TIP3    H248764   5.962   0.023  14.529  1.6765 -2.5967  0.4382
 9117TIP3   OH248765   6.419   2.414   2.643 -0.5759  0.2789 -0.0277
 9117TIP3    H148766   6.488   2.398   2.707 -0.6295 -1.5190 -0.3759
 9117TIP3    H248767   6.465   2.428   2.561 -0.5591  0.9772  0.1024
 9118TIP3   OH248768   2.082   6.201   1.607  0.3352  0.1232 -0.7043
 9118TIP3    H148769   2.174   6.175   1.608  0.9833  2.3755  0.7313
 9118TIP3    H248770   2.052   6.179   1.519  2.6976  0.9346 -1.7472
 9119TIP3   OH248771   5.259   2.072  12.716 -0.4230 -0.0698  0.3869
 9119TIP3    H148772   5.171   2.068  12.754 -0.4145  0.5822  0.4890
 9119TIP3    H248773   5.279   2.166  12.713  0.4099 -0.2293  0.7010
 9120TIP3   OH248774   5.313   4.314  10.984 -0.4052 -0.2813 -0.4159
 9120TIP3    H148775   5.398   4.357  10.973 -1.7607  2.1677 -1.7420
 9120TIP3    H248776   5.299   4.268  10.901 -0.0284 -1.3650  0.1102
 9121TIP3   OH248777   3.607   0.123  11.601 -0.3332 -0.2487 -0.0788
 9121TIP3    H148778   3.517   0.110  11.631 -0.9538  1.4983 -1.1115
 9121TIP3    H248779   3.604   0.203  11.549  1.6990 -0.5218 -0.6746
 9122TIP3   OH248780   1.136   2.393  15.008  0.3141  0.0150  0.1202
 9122TIP3    H148781   1.218   2.377  15.053 -0.1742  0.8193  1.3142
 9122TIP3    H248782   1.092   2.459  15.060 -1.7244 -1.4300  0.2942
 9123TIP3   OH248783   5.835   0.565   4.379  0.5753  0.0764  0.1978
 9123TIP3    H148784   5.793   0.579   4.464  0.5613 -1.4780  0.4625
 9123TIP3    H248785   5.915   0.618   4.382  1.2250 -0.9527  1.6930
 9124TIP3   OH248786   1.756   2.040   4.091 -1.0608 -0.0981  0.0845
 9124TIP3    H148787   1.695   2.050   4.164 -0.1044 -1.5701  1.1175
 9124TIP3    H248788   1.744   2.119   4.038 -0.3385  1.9252  2.8847
 9125TIP3   OH248789   2.346   6.721  11.585  0.3316  0.0140 -0.2416
 9125TIP3    H148790   2.311   6.645  11.540  0.7769  0.3373 -1.1410
 9125TIP3    H248791   2.273   6.754  11.637 -1.2847  1.8136 -3.5406
 9126TIP3   OH248792   6.492   4.573   5.536  0.4965 -0.7495 -0.1983
 9126TIP3    H148793   6.405   4.589   5.573  0.9837  3.8070 -0.7586
 9126TIP3    H248794   6.552   4.584   5.610  1.0149  2.5168 -1.0315
 9127TIP3   OH248795   4.651   6.232   5.409  0.8337  0.3944 -0.0929
 9127TIP3    H148796   4.669   6.276   5.492  2.2768  1.0522 -0.7388
 9127TIP3    H248797   4.716   6.162   5.405 -0.1216 -0.5220 -0.0419
 9128TIP3   OH248798   0.751   4.538  15.099 -0.1267  0.3211 -0.6843
 9128TIP3    H148799   0.751   4.558  15.192  1.0437  0.4211 -0.6975
 9128TIP3    H248800   0.680   4.474  15.088  0.9063 -1.1011  0.6069
 9129TIP3   OH248801   1.082   2.646  12.845 -0.0792  0.0473  0.2078
 9129TIP3    H148802   1.019   2.603  12.787 -0.6729  0.4952  0.5109
 9129TIP3    H248803   1.168   2.624  12.808 -0.4647  1.0354 -1.3491
 9130TIP3   OH248804   1.131   6.556  14.787 -0.0338 -0.0566  0.3765
 9130TIP3    H148805   1.107   6.610  14.863 -1.7445 -0.8027  0.3916
 9130TIP3    H248806   1.220   6.527  14.806  0.3332  1.4955  1.0920
 9131TIP3   OH248807   2.989   1.649   5.453  0.2162 -0.0249 -0.1465
 9131TIP3    H148808   2.908   1.682   5.412  0.6194  0.2915 -0.6937
 9131TIP3    H248809   2.979   1.554   5.452 -0.1597  0.0114 -0.1892
 9132TIP3   OH248810   0.597   6.432  12.122 -0.0351  0.7480  0.4701
 9132TIP3    H148811   0.669   6.369  12.118 -0.2958  0.4612  0.2099
 9132TIP3    H248812   0.609   6.478  12.205 -0.0905  0.0434  0.8731
 9133TIP3   OH248813   2.100   2.528   1.779  0.0543  0.3144 -0.5412
 9133TIP3    H148814   2.105   2.621   1.760 -0.4472  0.7196  1.2525
 9133TIP3    H248815   2.080   2.523   1.873  0.6294 -1.5904 -0.4933
 9134TIP3   OH248816   1.476   0.179  15.403  0.5321  0.3823 -0.2051
 9134TIP3    H148817   1.435   0.214  15.482 -0.0477  0.5752 -0.5818
 9134TIP3    H248818   1.565   0.213  15.405  0.6706 -0.0123  0.6121
 9135TIP3   OH248819   0.882   5.964  11.716 -0.1884 -0.1971 -0.1932
 9135TIP3    H148820   0.906   5.959  11.623 -3.9631 -1.4588 -1.1785
 9135TIP3    H248821   0.823   6.038  11.722 -0.1553 -0.2660  1.1709
 9136TIP3   OH248822   4.103   2.423   3.543 -0.3869  0.1787  0.1458
 9136TIP3    H148823   4.164   2.422   3.469 -1.9408  0.4641 -1.1725
 9136TIP3    H248824   4.077   2.515   3.551 -0.5396  0.0787  0.7843
 9137TIP3   OH248825   5.959   0.730   3.807  0.7025 -0.4328  0.3979
 9137TIP3    H148826   5.864   0.731   3.792  0.8182  1.2715 -0.3434
 9137TIP3    H248827   5.981   0.821   3.825  2.0796 -0.9532  1.3988
 9138TIP3   OH248828   4.762   0.890  13.171  0.1659 -0.3167  0.2340
 9138TIP3    H148829   4.741   0.909  13.262  0.7768  1.0834  0.0988
 9138TIP3    H248830   4.679   0.866  13.131 -0.3880  0.7180  0.7601
 9139TIP3   OH248831   5.494   0.446   1.704  0.1362 -0.0722  0.3329
 9139TIP3    H148832   5.476   0.393   1.626 -2.2121 -2.3824  2.3723
 9139TIP3    H248833   5.547   0.519   1.671  0.4084 -1.7363 -3.1701
 9140TIP3   OH248834   5.964   3.518   5.298  0.3902  0.6980 -0.4774
 9140TIP3    H148835   6.006   3.461   5.362  0.6357  1.3421 -0.0641
 9140TIP3    H248836   5.924   3.587   5.349  0.2038  0.9733 -0.9892
 9141TIP3   OH248837   4.910   0.720  12.745 -0.4390 -0.0687 -0.0310
 9141TIP3    H148838   4.965   0.796  12.725 -0.3858 -0.0446  0.2035
 9141TIP3    H248839   4.935   0.695  12.834 -0.7901 -0.0704  0.0702
 9142TIP3   OH248840   2.931   2.290  11.599 -0.2716 -0.6519 -0.2746
 9142TIP3    H148841   2.929   2.308  11.693  2.3482 -2.7672  0.2810
 9142TIP3    H248842   2.948   2.196  11.594  0.5118 -0.4099 -2.8521
 9143TIP3   OH248843   1.285   5.702  14.118  0.1715 -0.1328  0.3384
 9143TIP3    H148844   1.325   5.616  14.127 -1.4363 -0.8358  0.8186
 9143TIP3    H248845   1.346   5.751  14.062  1.3904 -1.3719  0.5715
 9144TIP3   OH248846   6.058   2.971   6.537  0.3559  0.3832 -0.0314
 9144TIP3    H148847   6.112   2.918   6.478  0.3414 -0.5639  0.7893
 9144TIP3    H248848   6.090   3.060   6.526 -0.6852  0.4793 -2.6376
 9145TIP3   OH248849   2.604   5.970   2.652  0.1809 -0.0493 -0.2738
 9145TIP3    H148850   2.518   6.005   2.630  0.2296  0.5297  0.4181
 9145TIP3    H248851   2.665   6.040   2.630  0.3321  0.1080  0.6044
 9146TIP3   OH248852   1.346   1.851  16.956  0.4691 -0.5226  0.0556
 9146TIP3    H148853   1.405   1.857  16.880  0.0026 -0.2689 -0.2888
 9146TIP3    H248854   1.261   1.831  16.918 -0.0105  0.8252  0.4153
 9147TIP3   OH248855   2.507   5.937  12.394 -0.2167  0.2040  0.0857
 9147TIP3    H148856   2.454   5.910  12.319  0.6971  1.3429 -1.0066
 9147TIP3    H248857   2.590   5.889  12.384 -0.3297 -0.1223  0.7181
 9148TIP3   OH248858   1.512   2.233   4.221  0.3859  0.3010  0.5775
 9148TIP3    H148859   1.422   2.206   4.240  0.0727 -0.1217 -1.4732
 9148TIP3    H248860   1.566   2.161   4.255 -0.2099 -0.7506 -0.6457
 9149TIP3   OH248861   0.223   0.749   4.080 -0.6868  0.2118 -0.1067
 9149TIP3    H148862   0.224   0.660   4.045 -0.4164 -0.2481  1.0489
 9149TIP3    H248863   0.315   0.769   4.100 -0.6108  1.1329 -1.2801
 9150TIP3   OH248864   1.106   2.222   3.395 -0.0999 -0.3772  0.0549
 9150TIP3    H148865   1.079   2.314   3.393  1.1179 -0.0183 -2.0959
 9150TIP3    H248866   1.174   2.219   3.462 -0.2414  0.2779  0.2333
 9151TIP3   OH248867   0.419   1.439   2.819 -0.2094  0.4028  0.0589
 9151TIP3    H148868   0.459   1.449   2.906  1.8500  0.3131 -0.8652
 9151TIP3    H248869   0.359   1.513   2.812 -0.2417  0.5277  1.4717
 9152TIP3   OH248870   4.868   4.438  10.881 -0.3995 -0.4958 -0.3552
 9152TIP3    H148871   4.829   4.455  10.795 -1.8180  0.3252  0.4189
 9152TIP3    H248872   4.873   4.342  10.887 -2.0762 -0.6149 -0.5987
 9153TIP3   OH248873   0.051   1.488   3.220  0.2099  0.0430  0.4332
 9153TIP3    H148874   0.009   1.446   3.294  1.6221 -0.9968  0.6700
 9153TIP3    H248875   0.109   1.421   3.183 -1.8369 -0.0655 -2.7849
 9154TIP3   OH248876   3.825   5.674   2.827 -0.2070  0.2354 -0.6987
 9154TIP3    H148877   3.756   5.645   2.887 -0.2705 -0.7062 -1.2040
 9154TIP3    H248878   3.900   5.694   2.884 -0.4921  0.0373 -0.2506
 9155TIP3   OH248879   2.896   2.561  11.517  0.4642 -0.4532 -0.3579
 9155TIP3    H148880   2.815   2.560  11.466 -0.2765 -0.9523  0.8119
 9155TIP3    H248881   2.901   2.473  11.556  2.1223 -0.7932 -1.2719
 9156TIP3   OH248882   5.713   2.951   2.663  0.0349  0.0295  0.0253
 9156TIP3    H148883   5.673   2.899   2.593  0.9032 -0.7558  0.0951
 9156TIP3    H248884   5.805   2.923   2.664  0.1698  0.4741  1.0815
 9157TIP3   OH248885   6.165   5.045   1.489  0.2324 -0.5191 -0.1573
 9157TIP3    H148886   6.260   5.058   1.485  0.3168 -1.5005 -2.3813
 9157TIP3    H248887   6.131   5.130   1.517  1.8360 -0.5587  2.0889
 9158TIP3   OH248888   3.094   6.599   2.832  0.2172  0.4662  0.5574
 9158TIP3    H148889   3.034   6.527   2.855  0.2072  0.6259  1.0420
 9158TIP3    H248890   3.112   6.642   2.915  0.1941  1.0491  0.2617
 9159TIP3   OH248891   2.544   0.767  14.093  0.2424  0.1589  0.8304
 9159TIP3    H148892   2.518   0.705  14.161 -0.9203 -0.8328 -0.4777
 9159TIP3    H248893   2.475   0.833  14.091  0.1319  0.0367  0.4443
 9160TIP3   OH248894   1.969   5.960   2.906 -0.2577 -0.0191 -0.0060
 9160TIP3    H148895   2.003   5.885   2.857 -0.5787 -0.7048  0.8025
 9160TIP3    H248896   1.899   5.995   2.852  2.2699  1.9531 -2.1129
 9161TIP3   OH248897   0.340   3.683   0.777  0.2075 -0.4525  0.3116
 9161TIP3    H148898   0.413   3.693   0.716 -0.9067  1.3878 -0.8012
 9161TIP3    H248899   0.367   3.614   0.837  2.8617  0.2205 -0.0589
 9162TIP3   OH248900   4.589   3.759  13.579  0.3092  0.2819  0.1378
 9162TIP3    H148901   4.494   3.757  13.588  0.2463 -3.7094 -0.5476
 9162TIP3    H248902   4.622   3.755  13.668 -0.2084 -1.9433  0.2487
 9163TIP3   OH248903   3.617   2.327   3.757 -0.0938  0.6781  0.3147
 9163TIP3    H148904   3.602   2.399   3.820  0.4260  1.5790 -0.5777
 9163TIP3    H248905   3.712   2.323   3.746 -0.2562  1.8721 -1.9144
 9164TIP3   OH248906   3.500   5.771   3.495 -0.1759 -0.3727 -0.1147
 9164TIP3    H148907   3.510   5.761   3.589 -1.4749  2.4751  0.4005
 9164TIP3    H248908   3.589   5.784   3.463  0.0348  1.7286  1.1910
 9165TIP3   OH248909   5.084   2.635  10.842  0.3371 -0.1026  0.4438
 9165TIP3    H148910   5.012   2.633  10.779 -0.4401  1.1484  1.2669
 9165TIP3    H248911   5.090   2.545  10.874 -1.0202 -0.1722  0.5333
 9166TIP3   OH248912   4.759   0.851  14.648  0.1098 -0.3233 -0.1020
 9166TIP3    H148913   4.769   0.834  14.742  0.1051 -0.2437 -0.0877
 9166TIP3    H248914   4.679   0.903  14.641 -1.1096 -2.1732 -0.3477
 9167TIP3   OH248915   4.209   4.109  16.424  0.1641  0.0870  0.0533
 9167TIP3    H148916   4.223   4.110  16.519 -1.4600 -0.8220  0.3236
 9167TIP3    H248917   4.195   4.201  16.401 -0.6222  0.1863  0.8902
 9168TIP3   OH248918   0.746   3.595  13.368 -0.2725  0.0567 -0.5267
 9168TIP3    H148919   0.761   3.547  13.286  2.1479  1.0800 -0.7291
 9168TIP3    H248920   0.782   3.538  13.435  1.2066  0.8900 -0.6008
 9169TIP3   OH248921   4.684   3.362   0.532 -0.4358  0.0526 -0.0307
 9169TIP3    H148922   4.744   3.366   0.607 -0.5485  0.4696  0.0378
 9169TIP3    H248923   4.740   3.377   0.456 -0.2689 -0.6828 -0.0560
 9170TIP3   OH248924   4.795   5.385  10.986 -0.3075  0.2995  0.2215
 9170TIP3    H148925   4.780   5.454  10.922 -0.0156 -0.4091 -0.6288
 9170TIP3    H248926   4.890   5.383  10.997 -0.1031 -1.5708 -1.5966
 9171TIP3   OH248927   0.877   1.119   3.810  0.4674  0.6625  0.1825
 9171TIP3    H148928   0.895   1.106   3.903 -0.4046  2.7751  0.6698
 9171TIP3    H248929   0.902   1.036   3.769  0.5074 -0.4287  2.3467
 9172TIP3   OH248930   5.844   6.743  10.820 -1.1151  0.2008  0.0469
 9172TIP3    H148931   5.854   6.648  10.820 -1.6679  0.1401 -0.0669
 9172TIP3    H248932   5.915   6.775  10.765  0.2184 -0.0223  1.6000
 9173TIP3   OH248933   4.840   5.349  14.157  0.3053  0.1215  0.7124
 9173TIP3    H148934   4.931   5.361  14.182  0.5752  0.6197 -0.4807
 9173TIP3    H248935   4.839   5.267  14.107 -0.0258 -0.2551  1.3277
 9174TIP3   OH248936   0.483   4.464  15.587  0.0750  0.5345  0.1136
 9174TIP3    H148937   0.408   4.407  15.605  0.4336  0.8230  2.7327
 9174TIP3    H248938   0.479   4.531  15.655  1.1571  2.1445 -1.3586
 9175TIP3   OH248939   6.376   2.999   4.462 -0.3200  0.5542 -0.8628
 9175TIP3    H148940   6.400   2.935   4.530 -1.0717  3.4098  2.2569
 9175TIP3    H248941   6.458   3.041   4.438 -0.1883  0.2479 -0.9509
 9176TIP3   OH248942   0.285   1.206  16.580  0.0863  0.2044 -0.1404
 9176TIP3    H148943   0.343   1.240  16.648 -0.7000 -2.0846  1.7470
 9176TIP3    H248944   0.202   1.191  16.625 -0.5578 -1.0225 -1.6959
 9177TIP3   OH248945   4.685   3.401   5.295  0.2654  0.0420  0.2612
 9177TIP3    H148946   4.669   3.374   5.385 -0.1086 -0.0779  0.1610
 9177TIP3    H248947   4.762   3.458   5.299  0.3980 -0.1653  0.6214
 9178TIP3   OH248948   2.361   2.456   1.249 -0.0900  0.2719 -0.1964
 9178TIP3    H148949   2.291   2.391   1.237 -0.3352  0.3341  0.8399
 9178TIP3    H248950   2.343   2.495   1.335  0.5728  1.0827 -0.4187
 9179TIP3   OH248951   0.502   3.675   3.710 -0.1484 -0.5799 -0.1272
 9179TIP3    H148952   0.451   3.686   3.790  0.3618 -2.7968  0.5419
 9179TIP3    H248953   0.437   3.673   3.639 -0.6454  0.7400  0.2795
 9180TIP3   OH248954   1.019   0.540   6.822 -0.6806 -0.0392  0.6684
 9180TIP3    H148955   0.929   0.560   6.798 -0.6236  0.8037  1.1452
 9180TIP3    H248956   1.038   0.458   6.775 -1.3117  0.3695 -0.3281
 9181TIP3   OH248957   3.815   2.122  14.093  0.3610 -0.6981  0.0355
 9181TIP3    H148958   3.789   2.030  14.099  0.2216 -0.6063  0.9187
 9181TIP3    H248959   3.897   2.127  14.141 -0.0231 -0.2210  0.6627
 9182TIP3   OH248960   3.177   4.429  15.184 -0.0367 -0.4383 -0.4879
 9182TIP3    H148961   3.092   4.398  15.154 -1.3122 -0.3180  2.8265
 9182TIP3    H248962   3.183   4.519  15.153 -1.6214 -0.0791  0.2361
 9183TIP3   OH248963   6.636   1.086   2.177  0.0942 -0.1388 -0.1472
 9183TIP3    H148964   6.635   1.106   2.270 -1.3574  0.7323 -0.3296
 9183TIP3    H248965   6.727   1.099   2.150  0.5511 -0.5280  1.1581
 9184TIP3   OH248966   4.666   3.628   3.592 -0.5876  0.4631  0.5770
 9184TIP3    H148967   4.651   3.722   3.596 -0.6795  0.4089  1.7154
 9184TIP3    H248968   4.581   3.590   3.569 -0.4281  0.6904 -0.4034
 9185TIP3   OH248969   5.827   0.185   0.319  0.2597 -0.8799 -0.1129
 9185TIP3    H148970   5.732   0.174   0.317  0.1111  0.5278 -2.0770
 9185TIP3    H248971   5.841   0.274   0.350  0.9375 -0.9471 -0.2132
 9186TIP3   OH248972   4.082   5.827   0.634  0.2456 -0.5179 -0.1420
 9186TIP3    H148973   4.152   5.763   0.640  0.8246  0.1790  0.7031
 9186TIP3    H248974   4.004   5.776   0.612  0.6495 -1.5411  0.7623
 9187TIP3   OH248975   5.729   6.388   5.966  0.3032 -0.4685 -0.1296
 9187TIP3    H148976   5.777   6.449   6.022  0.0814 -0.1027 -0.3395
 9187TIP3    H248977   5.748   6.302   6.004  0.8355 -0.2973  0.0040
 9188TIP3   OH248978   3.121   3.832   4.040 -0.3528  0.4974 -0.1940
 9188TIP3    H148979   3.101   3.858   3.950 -1.9100 -1.3565 -0.4297
 9188TIP3    H248980   3.149   3.740   4.032 -1.2148  0.0912  1.2785
 9189TIP3   OH248981   3.857   5.365   3.704  0.2821 -0.1729  0.1088
 9189TIP3    H148982   3.892   5.278   3.725  1.2926  0.3059  0.4444
 9189TIP3    H248983   3.851   5.409   3.789  0.5438  0.3658 -0.1500
 9190TIP3   OH248984   6.288   3.401  12.581 -0.2139 -0.6527  0.0677
 9190TIP3    H148985   6.326   3.408  12.668  1.7068  2.2645 -0.9116
 9190TIP3    H248986   6.223   3.471  12.578  3.2551  2.6965 -2.4015
 9191TIP3   OH248987   3.933   1.443   0.916  0.9424 -0.1643 -0.7232
 9191TIP3    H148988   3.934   1.535   0.888 -0.0778  0.1832  0.3193
 9191TIP3    H248989   3.921   1.394   0.835  1.0592  0.6449 -1.2429
 9192TIP3   OH248990   2.629   5.560   2.565  0.1808  0.5766 -0.2648
 9192TIP3    H148991   2.682   5.639   2.556  1.2923 -0.0831  0.4351
 9192TIP3    H248992   2.669   5.511   2.637 -0.8073 -0.3805 -0.3398
 9193TIP3   OH248993   0.851   5.040  12.054 -0.1577 -0.2609  0.2717
 9193TIP3    H148994   0.937   5.080  12.068  0.0575 -1.1043  1.4905
 9193TIP3    H248995   0.869   4.947  12.042 -0.7002 -0.1042 -1.9792
 9194TIP3   OH248996   3.679   0.431  10.838  0.3370  0.2772 -0.1537
 9194TIP3    H148997   3.739   0.445  10.911 -1.3368 -0.8873  1.5082
 9194TIP3    H248998   3.615   0.502  10.846 -0.2986 -0.3088  0.0089
 9195TIP3   OH248999   0.380   6.695  12.606  0.0551  0.7385  0.2229
 9195TIP3    H149000   0.417   6.686  12.518  1.1833 -1.2583  0.8569
 9195TIP3    H249001   0.435   6.762  12.648  0.7826  0.2730  0.0297
 9196TIP3   OH249002   2.322   0.047  14.603  0.8929  0.2418 -0.0647
 9196TIP3    H149003   2.240  -0.003  14.607 -0.9532  3.2104  0.2952
 9196TIP3    H249004   2.308   0.109  14.532  3.1962  0.2249 -0.5597
 9197TIP3   OH249005   1.523   3.513  14.820  0.0904 -0.1881 -0.3421
 9197TIP3    H149006   1.545   3.512  14.913  1.6625  0.1629 -0.6969
 9197TIP3    H249007   1.522   3.606  14.797 -1.0509 -0.2353 -0.5095
 9198TIP3   OH249008   6.121   3.416   3.972 -0.1798 -0.5013 -0.3260
 9198TIP3    H149009   6.071   3.479   4.023 -2.0535 -1.6794 -0.6795
 9198TIP3    H249010   6.089   3.426   3.883  0.9281 -0.5795 -0.7441
 9199TIP3   OH249011   5.808   1.558   4.969  0.0714  0.1281  0.2706
 9199TIP3    H149012   5.797   1.501   5.045  0.6680  0.6268  0.7429
 9199TIP3    H249013   5.862   1.508   4.908 -1.3055 -0.7030 -0.3048
 9200TIP3   OH249014   0.558   0.876  16.274  0.1132  0.1727 -0.8090
 9200TIP3    H149015   0.564   0.851  16.182 -0.9268 -0.5147 -0.6996
 9200TIP3    H249016   0.623   0.946  16.284 -0.7832  1.2604 -2.3957
 9201TIP3   OH249017   4.134   3.312   3.139  0.0643 -0.3118 -0.4373
 9201TIP3    H149018   4.136   3.402   3.104 -0.3347 -0.0454  0.2265
 9201TIP3    H249019   4.119   3.323   3.233 -0.4245 -1.0888 -0.4228
 9202TIP3   OH249020   3.799   1.710   5.111 -0.0754 -0.0699 -0.7291
 9202TIP3    H149021   3.770   1.731   5.200 -1.0927 -1.5064 -0.7016
 9202TIP3    H249022   3.823   1.794   5.073 -1.3746  0.7854  0.2907
 9203TIP3   OH249023   3.271   0.826   2.008 -0.3764  0.3549  0.4673
 9203TIP3    H149024   3.215   0.841   2.085 -0.8471 -1.0994  0.4208
 9203TIP3    H249025   3.254   0.900   1.951 -0.0425  1.4436  1.7551
 9204TIP3   OH249026   5.113   0.816   5.360  0.2933  0.0494  0.2954
 9204TIP3    H149027   5.107   0.794   5.267  1.6091 -1.4638  0.5541
 9204TIP3    H249028   5.045   0.763   5.401  1.3345 -1.1405  0.5025
 9205TIP3   OH249029   1.467   0.280   5.444  0.1272 -0.1416  0.1079
 9205TIP3    H149030   1.559   0.260   5.458 -0.0041 -0.5533  0.3577
 9205TIP3    H249031   1.422   0.196   5.450  0.0235 -0.3014 -2.3486
 9206TIP3   OH249032   3.142   1.489   0.177  0.5979 -0.2861 -0.2617
 9206TIP3    H149033   3.095   1.408   0.162 -0.3648  0.2043  0.0457
 9206TIP3    H249034   3.232   1.462   0.194  0.9032 -1.1060 -2.9362
 9207TIP3   OH249035   2.483   6.331  16.735  0.7947 -0.1400  0.1588
 9207TIP3    H149036   2.561   6.350  16.787  0.6501  0.0106  0.3190
 9207TIP3    H249037   2.409   6.347  16.794  0.6770 -1.3495  0.3548
 9208TIP3   OH249038   4.743   0.331   5.077 -0.0333 -0.0758 -0.2161
 9208TIP3    H149039   4.751   0.314   5.171  0.8171 -1.7813 -0.5760
 9208TIP3    H249040   4.769   0.249   5.035 -2.6798 -0.1216 -1.9068
 9209TIP3   OH249041   0.977   6.368  15.391  0.4553 -0.0215 -0.6651
 9209TIP3    H149042   1.054   6.354  15.446  0.8028 -2.2492 -1.6368
 9209TIP3    H249043   1.008   6.355  15.302 -0.9558 -0.5467 -1.1030
 9210TIP3   OH249044   1.782   5.382   0.186 -0.0503 -0.0572  0.0887
 9210TIP3    H149045   1.783   5.287   0.176 -0.0624  0.1518 -2.0690
 9210TIP3    H249046   1.784   5.416   0.097  3.4955  2.0329  0.8892
 9211TIP3   OH249047   6.064   4.537  13.795  0.3371  0.7179 -0.0153
 9211TIP3    H149048   6.031   4.624  13.770 -1.8027 -0.0340  0.1758
 9211TIP3    H249049   6.094   4.548  13.885 -1.5462  0.8308  0.6102
 9212TIP3   OH249050   6.229   4.222  12.170 -0.3321 -0.5132 -0.3339
 9212TIP3    H149051   6.304   4.169  12.196  1.1237  1.5377 -0.2603
 9212TIP3    H249052   6.178   4.233  12.250  0.5192  0.0336  0.1374
 9213TIP3   OH249053   1.432   5.012   5.307 -0.2640 -0.0443  0.7275
 9213TIP3    H149054   1.465   5.018   5.217 -0.5423 -1.1428  0.5420
 9213TIP3    H249055   1.399   4.923   5.314 -1.1007  0.3295  1.6294
 9214TIP3   OH249056   6.609   4.793  15.411  0.4467 -0.6215 -0.4105
 9214TIP3    H149057   6.679   4.822  15.351 -0.1270 -1.2433 -1.3831
 9214TIP3    H249058   6.536   4.771  15.353 -0.1005 -1.2647  0.5299
 9215TIP3   OH249059   2.288   0.535   1.780 -0.4985 -0.1152  0.3691
 9215TIP3    H149060   2.336   0.580   1.711 -1.6708  3.3516  1.6589
 9215TIP3    H249061   2.206   0.585   1.789 -1.2337 -1.6414  2.8902
 9216TIP3   OH249062   6.785   1.488   3.651 -0.4494  0.2210 -0.0226
 9216TIP3    H149063   6.835   1.538   3.716  0.0940  0.1071 -0.3605
 9216TIP3    H249064   6.727   1.553   3.611 -0.8545  0.2775  0.6340
 9217TIP3   OH249065   2.697   1.175   3.900 -0.5130 -0.9629 -0.6488
 9217TIP3    H149066   2.646   1.201   3.823  0.9993  1.1135 -1.0047
 9217TIP3    H249067   2.670   1.236   3.969 -0.6173 -1.7192 -0.0164
 9218TIP3   OH249068   2.173   6.068  12.110 -0.0889 -0.4071 -0.1144
 9218TIP3    H149069   2.233   6.076  12.036 -1.7078 -0.7879 -1.5138
 9218TIP3    H249070   2.203   6.133  12.173  0.4721  0.9392 -1.7343
 9219TIP3   OH249071   0.410   3.969   6.283  0.5925 -0.5167  0.7040
 9219TIP3    H149072   0.470   3.916   6.336  3.3152  1.3054 -0.4869
 9219TIP3    H249073   0.438   4.059   6.297 -0.6552  0.2256 -1.4007
 9220TIP3   OH249074   4.214   1.172  10.968 -0.2472  0.1991 -0.5414
 9220TIP3    H149075   4.131   1.124  10.960 -0.1786 -0.3573  1.8502
 9220TIP3    H249076   4.277   1.116  10.922 -0.7832 -0.4778 -0.4742
 9221TIP3   OH249077   2.700   1.384  16.624 -0.1247  0.7457 -0.5394
 9221TIP3    H149078   2.640   1.458  16.614 -0.7522  0.5049  1.3508
 9221TIP3    H249079   2.714   1.376  16.718  1.9185  0.0174 -0.8795
 9222TIP3   OH249080   4.772   3.015   0.588  0.5813 -0.1299  0.3269
 9222TIP3    H149081   4.686   2.974   0.594 -0.5146  2.1729  1.3150
 9222TIP3    H249082   4.831   2.945   0.562 -1.4834 -1.9057  0.2995
 9223TIP3   OH249083   5.927   5.992  12.784  0.4653  0.1266  0.0433
 9223TIP3    H149084   5.863   6.028  12.723 -0.0820 -0.5943  0.1818
 9223TIP3    H249085   5.991   6.062  12.796 -0.4912  0.9812  0.1913
 9224TIP3   OH249086   2.738   2.313  17.026  0.0397  0.3821 -0.2871
 9224TIP3    H149087   2.788   2.273  16.955 -1.0468 -0.0250 -0.8337
 9224TIP3    H249088   2.665   2.356  16.982  0.0286  1.1635  0.4851
 9225TIP3   OH249089   2.467   0.995   3.990 -0.1738  0.3040 -0.2631
 9225TIP3    H149090   2.493   0.922   4.047  0.2745  1.5910  1.1987
 9225TIP3    H249091   2.531   0.994   3.920 -0.9925 -1.5841 -1.0298
 9226TIP3   OH249092   4.834   2.033   5.182 -0.0944 -0.7898 -0.1106
 9226TIP3    H149093   4.915   2.046   5.231 -0.2306 -0.1723 -0.0523
 9226TIP3    H249094   4.833   2.104   5.118  0.4424 -2.0047 -1.5051
 9227TIP3   OH249095   2.325   2.160   3.784  0.4965  0.1831 -0.1375
 9227TIP3    H149096   2.369   2.142   3.701 -0.4864 -0.0008 -0.6333
 9227TIP3    H249097   2.331   2.254   3.795  0.6631  0.2033 -0.4014
 9228TIP3   OH249098   4.250   3.375   2.233 -0.1584  0.1990 -0.0209
 9228TIP3    H149099   4.282   3.456   2.194 -1.0801  0.5291 -0.1148
 9228TIP3    H249100   4.160   3.395   2.259 -1.4506 -1.6540 -2.8010
 9229TIP3   OH249101   4.482   6.340  15.192 -0.1712 -0.3688 -0.3263
 9229TIP3    H149102   4.415   6.362  15.257  0.1590 -1.0268  0.2436
 9229TIP3    H249103   4.439   6.356  15.107 -0.4316  1.0002  0.0448
 9230TIP3   OH249104   6.495   2.080   2.551 -0.6044  0.0814 -0.0832
 9230TIP3    H149105   6.525   2.158   2.506 -0.3239 -0.8604 -1.5793
 9230TIP3    H249106   6.431   2.112   2.615 -1.7225  1.3636 -1.8106
 9231TIP3   OH249107   3.501   0.693   5.054  0.4693 -0.2507 -0.0964
 9231TIP3    H149108   3.405   0.694   5.051  0.4403 -0.9012  0.6174
 9231TIP3    H249109   3.522   0.705   5.146  1.0368 -2.1004  0.0239
 9232TIP3   OH249110   6.156   3.710   1.633  0.0118 -0.6757 -0.1038
 9232TIP3    H149111   6.243   3.736   1.665 -0.0909 -1.8547  1.1783
 9232TIP3    H249112   6.102   3.706   1.711 -1.0546 -0.5496 -0.8279
 9233TIP3   OH249113   0.904   1.281   1.972  0.2369 -0.0118  0.1783
 9233TIP3    H149114   0.870   1.299   2.060  0.9559  0.5325  0.3499
 9233TIP3    H249115   0.899   1.365   1.927  0.7954 -0.0674  0.0159
 9234TIP3   OH249116   5.430   2.391  14.916 -1.0910  0.3364 -0.2669
 9234TIP3    H149117   5.355   2.338  14.943  0.0355 -0.9436  0.4330
 9234TIP3    H249118   5.448   2.363  14.827 -1.2737  0.4458 -0.3379
 9235TIP3   OH249119   0.645   6.713   5.816 -0.1293  0.3098  0.0814
 9235TIP3    H149120   0.559   6.749   5.792 -0.5712 -0.6820  0.1482
 9235TIP3    H249121   0.708   6.778   5.786 -0.7484 -0.2215 -2.4927
 9236TIP3   OH249122   0.512   3.151   6.335  0.6531  0.0162  0.1800
 9236TIP3    H149123   0.423   3.168   6.365  0.5925  1.9308 -0.9742
 9236TIP3    H249124   0.538   3.070   6.379 -1.8606 -0.8710  0.0710
 9237TIP3   OH249125   2.159   0.386   4.440  0.1919 -0.0654 -0.9202
 9237TIP3    H149126   2.111   0.369   4.521  0.6990 -0.8080 -0.7771
 9237TIP3    H249127   2.163   0.482   4.434 -0.3166 -0.0088 -0.3524
 9238TIP3   OH249128   2.251   0.294  17.096  0.0934  0.6085  0.1826
 9238TIP3    H149129   2.336   0.272  17.134  0.0876 -0.9719 -0.6356
 9238TIP3    H249130   2.195   0.312  17.171  0.9737  0.9715  0.7596
 9239TIP3   OH249131   2.132   3.806  14.749  0.2724  0.3698  0.6382
 9239TIP3    H149132   2.206   3.779  14.803 -1.0229 -0.8596  1.8613
 9239TIP3    H249133   2.141   3.756  14.669 -0.1348 -1.0372  1.4567
 9240TIP3   OH249134   5.558   6.713   0.184 -0.1747 -0.0499  0.2247
 9240TIP3    H149135   5.544   6.639   0.244 -2.0686 -0.4729 -0.7020
 9240TIP3    H249136   5.654   6.721   0.178  0.0376 -0.1838  3.0467
 9241TIP3   OH249137   5.101   4.959   2.210  0.0837 -0.1181 -0.0725
 9241TIP3    H149138   5.191   4.985   2.192  0.0934  0.5313  0.8833
 9241TIP3    H249139   5.108   4.884   2.268  0.0097  0.1450  0.2801
 9242TIP3   OH249140   1.667   4.827   5.613  0.4234  0.0718 -0.9280
 9242TIP3    H149141   1.738   4.777   5.654 -0.7498 -2.1047 -1.4440
 9242TIP3    H249142   1.598   4.762   5.598 -1.7941  2.1954 -0.1867
 9243TIP3   OH249143   2.310   0.703   5.048  0.4006  0.1571 -0.4587
 9243TIP3    H149144   2.278   0.792   5.031 -0.7796  0.0067  0.8831
 9243TIP3    H249145   2.402   0.706   5.022  0.5579  1.9611  0.2135
 9244TIP3   OH249146   5.683   3.363   2.907 -0.3963 -0.2615  0.2480
 9244TIP3    H149147   5.727   3.324   2.831 -1.4126 -0.0342 -0.4674
 9244TIP3    H249148   5.727   3.447   2.920  1.2465 -1.2537  1.2774
 9245TIP3   OH249149   3.763   2.257   5.886 -0.0494 -0.0470 -0.0415
 9245TIP3    H149150   3.844   2.268   5.936 -0.1057  0.2991 -0.0285
 9245TIP3    H249151   3.750   2.341   5.842  0.5333 -0.6652 -1.4328
 9246TIP3   OH249152   4.837   2.189   2.363  0.7038 -0.2158 -0.4899
 9246TIP3    H149153   4.844   2.280   2.391 -2.3864  0.0270 -0.2404
 9246TIP3    H249154   4.841   2.193   2.267  0.7579  0.1733 -0.4720
 9247TIP3   OH249155   5.312   2.043  15.144  0.0994  0.3733  0.2632
 9247TIP3    H149156   5.264   2.011  15.220  1.0491  2.2845  1.7110
 9247TIP3    H249157   5.256   2.112  15.108 -0.6250 -0.9127 -1.1723
 9248TIP3   OH249158   2.117   4.712  12.990  0.0053 -0.1878 -0.1343
 9248TIP3    H149159   2.082   4.771  12.923 -0.0777 -0.2234 -0.1214
 9248TIP3    H249160   2.188   4.762  13.030 -0.4255  0.1173  0.2542
 9249TIP3   OH249161   3.691   4.516   1.040  0.2737  1.1646  0.0672
 9249TIP3    H149162   3.661   4.602   1.070  0.2085  1.9221 -2.1069
 9249TIP3    H249163   3.726   4.474   1.119 -2.4285  1.9888  1.7873
 9250TIP3   OH249164   5.565   4.869   1.187  0.8006  0.5204  0.2633
 9250TIP3    H149165   5.573   4.946   1.242 -0.2004  0.4078  0.5803
 9250TIP3    H249166   5.474   4.871   1.156  1.0631  0.0271 -0.5420
 9251TIP3   OH249167   6.510   3.302   0.679 -0.6175 -0.4838 -0.0516
 9251TIP3    H149168   6.568   3.262   0.744 -0.3263  0.9260  0.5737
 9251TIP3    H249169   6.560   3.376   0.645 -2.3323  1.2219  1.0555
 9252TIP3   OH249170   1.554   4.789  17.211  0.8925  0.7318 -0.0750
 9252TIP3    H149171   1.632   4.734  17.222  0.2634  0.1555  1.6589
 9252TIP3    H249172   1.562   4.855  17.279 -1.4996 -0.9691  1.8983
 9253TIP3   OH249173   1.726   0.265  15.395  0.1546  0.1220  0.0720
 9253TIP3    H149174   1.810   0.220  15.389 -0.2096 -0.6963  0.9914
 9253TIP3    H249175   1.749   0.357  15.407  0.9199 -0.0954  0.3085
 9254TIP3   OH249176   3.198   5.325  16.847 -0.5815 -0.2528 -0.1415
 9254TIP3    H149177   3.108   5.355  16.854 -0.4169  0.9383 -2.7230
 9254TIP3    H249178   3.197   5.262  16.775  0.8183  0.5106 -0.8509
 9255TIP3   OH249179   1.220   2.281  11.524 -0.1909 -0.3653  0.3153
 9255TIP3    H149180   1.213   2.360  11.470  2.1615 -0.9155 -0.8663
 9255TIP3    H249181   1.245   2.212  11.463  0.2177 -1.5008  1.7408
 9256TIP3   OH249182   0.197   5.239   4.805 -0.6371  0.2997  0.8411
 9256TIP3    H149183   0.169   5.156   4.843  0.1538  0.8205  2.6259
 9256TIP3    H249184   0.292   5.233   4.800 -0.7391  0.1257 -1.3898
 9257TIP3   OH249185   1.824   1.128  15.319 -0.6389 -0.2994 -0.0896
 9257TIP3    H149186   1.762   1.058  15.341 -0.8926  0.3248  1.2407
 9257TIP3    H249187   1.904   1.104  15.364 -0.0621 -0.8321 -1.3841
 9258TIP3   OH249188   3.080   2.067   2.615  0.1762  0.3194 -0.2192
 9258TIP3    H149189   3.041   2.092   2.531 -0.9944 -0.5769  0.0409
 9258TIP3    H249190   3.174   2.064   2.598  0.3065  3.9599 -0.4782
 9259TIP3   OH249191   4.310   3.697   1.488 -0.3445  0.0276 -0.0301
 9259TIP3    H149192   4.215   3.686   1.476 -0.3955  0.0440  0.3548
 9259TIP3    H249193   4.343   3.713   1.399 -0.6885 -0.0807 -0.1806
 9260TIP3   OH249194   3.469   3.881   5.152 -0.2246  0.2086 -0.1647
 9260TIP3    H149195   3.383   3.922   5.161 -0.1182  0.4052 -0.0376
 9260TIP3    H249196   3.450   3.789   5.135 -0.4321 -0.5095  3.5718
 9261TIP3   OH249197   4.645   2.252  13.139 -0.1713  0.3267 -0.5481
 9261TIP3    H149198   4.644   2.196  13.062  1.9808 -2.0863  1.0873
 9261TIP3    H249199   4.716   2.314  13.124 -0.1152  0.2140 -0.7335
 9262TIP3   OH249200   1.084   6.579  10.961  0.1759 -0.1738  0.4777
 9262TIP3    H149201   1.092   6.665  10.920 -0.6932 -0.5173 -0.4203
 9262TIP3    H249202   1.017   6.534  10.910 -0.1725 -0.9854  1.6353
 9263TIP3   OH249203   1.997   2.198   5.601 -0.3173  0.2643  0.4737
 9263TIP3    H149204   2.016   2.118   5.552 -0.9481  0.5416 -0.2319
 9263TIP3    H249205   2.078   2.248   5.597 -0.1023 -0.0879  0.4276
 9264TIP3   OH249206   4.080   6.555  12.100 -0.3210 -0.8580 -0.2376
 9264TIP3    H149207   4.153   6.554  12.039 -0.9176 -1.0440 -0.9554
 9264TIP3    H249208   4.002   6.552  12.045 -0.8515 -2.2643  0.5738
 9265TIP3   OH249209   5.750   4.481  12.793  0.7480  0.0253 -0.4075
 9265TIP3    H149210   5.673   4.424  12.785  2.0371 -1.9220  0.7291
 9265TIP3    H249211   5.761   4.518  12.705 -0.7113 -0.6842 -0.9054
 9266TIP3   OH249212   1.734   6.041   0.322  0.1933 -0.3359 -0.2608
 9266TIP3    H149213   1.659   5.985   0.300 -0.6818  0.3244  1.0294
 9266TIP3    H249214   1.696   6.125   0.345  1.3497  0.0528  0.2725
 9267TIP3   OH249215   2.464   1.280   2.129  0.0321  0.3864 -0.2020
 9267TIP3    H149216   2.433   1.324   2.049  0.2278  0.9326  0.0236
 9267TIP3    H249217   2.401   1.210   2.142 -0.4484  0.7701 -0.4093
 9268TIP3   OH249218   6.478   2.771   2.738 -0.0746  0.4777 -0.4184
 9268TIP3    H149219   6.561   2.758   2.692 -0.2992  2.3045 -1.3714
 9268TIP3    H249220   6.504   2.785   2.829  0.4857 -1.3425 -0.2764
 9269TIP3   OH249221   2.425   3.875   4.284  0.1080 -0.9363  0.0554
 9269TIP3    H149222   2.388   3.960   4.260  0.0758 -0.7031  0.8975
 9269TIP3    H249223   2.442   3.832   4.201  1.3155  0.4033 -0.4210
 9270TIP3   OH249224   5.227   4.122  10.692  0.1665  0.2991  0.7845
 9270TIP3    H149225   5.156   4.077  10.647  0.3880  1.0017 -0.3015
 9270TIP3    H249226   5.307   4.084  10.655  0.3749  2.4994 -1.1858
 9271TIP3   OH249227   5.674   6.748   2.065 -0.3077  0.3296  0.0720
 9271TIP3    H149228   5.645   6.671   2.114 -0.8520  0.5905  0.1539
 9271TIP3    H249229   5.600   6.808   2.066 -0.3356  0.3275 -1.0934
 9272TIP3   OH249230   3.882   5.261  15.270 -0.3013 -0.1329  0.0411
 9272TIP3    H149231   3.800   5.292  15.232 -0.8102  0.8375  1.8691
 9272TIP3    H249232   3.924   5.340  15.304  0.7515 -0.8096  0.3391
 9273TIP3   OH249233   3.470   0.284   3.779 -0.0142 -0.3349 -0.6750
 9273TIP3    H149234   3.503   0.218   3.718  0.2115 -1.3921  0.5910
 9273TIP3    H249235   3.401   0.330   3.729 -1.0307 -2.3271 -1.1477
 9274TIP3   OH249236   2.925   2.397   6.406  0.5291 -0.2064 -0.0672
 9274TIP3    H149237   3.008   2.410   6.452 -0.1603  2.4229  0.5318
 9274TIP3    H249238   2.888   2.319   6.446  1.2632  0.4055  1.9114
 9275TIP3   OH249239   0.501   2.451   1.154 -0.5348  0.0227  0.3775
 9275TIP3    H149240   0.405   2.461   1.151 -0.5936 -0.6691 -0.2440
 9275TIP3    H249241   0.526   2.487   1.239 -1.4628 -0.6619  0.9634
 9276TIP3   OH249242   1.388   3.055   1.783  0.4726  0.4045  0.7673
 9276TIP3    H149243   1.445   3.132   1.786  0.5799  0.4978 -2.1860
 9276TIP3    H249244   1.431   2.992   1.840  2.1405  1.3996  0.6649
 9277TIP3   OH249245   2.263   5.219   1.959 -0.0112  0.6382  0.3909
 9277TIP3    H149246   2.335   5.202   1.898 -0.7510  0.6949 -0.4977
 9277TIP3    H249247   2.303   5.274   2.027  0.3809  2.1241 -0.9924
 9278TIP3   OH249248   3.975   1.617  13.787 -0.1611 -0.2272  0.4666
 9278TIP3    H149249   4.020   1.532  13.785 -0.0670 -0.1619 -0.6934
 9278TIP3    H249250   4.008   1.663  13.710 -1.8818  0.0112 -0.1420
 9279TIP3   OH249251   0.260   5.843  12.932 -0.1543 -0.6251 -0.0150
 9279TIP3    H149252   0.197   5.840  13.004  0.6906 -1.1381  0.7197
 9279TIP3    H249253   0.341   5.809  12.970  0.1755 -1.3708 -1.3490
 9280TIP3   OH249254   5.907   4.178   1.079 -0.0136  0.0336  0.6535
 9280TIP3    H149255   5.879   4.239   1.011 -0.9029  0.9929  1.8592
 9280TIP3    H249256   5.998   4.157   1.057 -0.1970  0.5734 -0.6476
 9281TIP3   OH249257   6.595   4.289  15.073  0.2247 -0.3975 -0.1021
 9281TIP3    H149258   6.690   4.278  15.070  0.1972 -0.3509 -2.3180
 9281TIP3    H249259   6.583   4.374  15.115  1.2120 -0.0946 -0.3934
 9282TIP3   OH249260   5.855   4.118  16.134  0.1981  0.0974 -0.3547
 9282TIP3    H149261   5.916   4.186  16.104  0.7788 -0.7136 -1.0261
 9282TIP3    H249262   5.844   4.061  16.059 -3.2024  1.4887 -1.0207
 9283TIP3   OH249263   4.510   6.441  13.890 -0.1654 -0.1384  0.7696
 9283TIP3    H149264   4.510   6.537  13.889 -1.0849 -0.1461 -0.2750
 9283TIP3    H249265   4.564   6.416  13.815 -1.2664 -0.4321  0.0648
 9284TIP3   OH249266   5.935   4.597  13.494  0.5374  0.1729 -0.3513
 9284TIP3    H149267   5.919   4.671  13.553  0.7072 -0.1424  0.0934
 9284TIP3    H249268   5.880   4.527  13.528 -1.8315  0.9335 -2.4626
 9285TIP3   OH249269   1.162   4.642  14.568 -0.0524  0.0672 -0.0273
 9285TIP3    H149270   1.070   4.664  14.576  0.2684  0.9517  1.4544
 9285TIP3    H249271   1.163   4.554  14.531 -1.4480  0.6608 -1.5290
 9286TIP3   OH249272   3.932   3.630  14.396 -0.2632 -0.2000  0.4075
 9286TIP3    H149273   3.987   3.707  14.382 -0.6001  0.0670  0.5282
 9286TIP3    H249274   3.843   3.666  14.404 -0.5921 -0.7093 -0.7970
 9287TIP3   OH249275   1.787   4.074   1.923  1.1978 -0.9271  0.3928
 9287TIP3    H149276   1.859   4.130   1.893 -0.6270  3.1892  3.2141
 9287TIP3    H249277   1.820   4.032   2.002  0.5058  1.0815  1.7745
 9288TIP3   OH249278   2.865   5.572  16.247 -0.5788  0.4615 -0.3318
 9288TIP3    H149279   2.779   5.562  16.206 -0.7232  1.0415 -0.1762
 9288TIP3    H249280   2.926   5.528  16.187 -1.0249 -0.2366 -0.2781
 9289TIP3   OH249281   5.058   5.604  13.492  1.2607 -0.3475  0.0210
 9289TIP3    H149282   5.016   5.520  13.511  1.7302 -0.3959  0.8638
 9289TIP3    H249283   5.130   5.582  13.432 -0.7061 -0.0912 -2.5416
 9290TIP3   OH249284   4.157   5.663   3.785  0.6421 -0.1669 -0.2934
 9290TIP3    H149285   4.253   5.664   3.787  0.7053 -3.1070  0.7860
 9290TIP3    H249286   4.131   5.695   3.872  0.5853  1.6184 -0.9421
 9291TIP3   OH249287   2.242   6.560   4.716  0.5211  0.2239  0.3174
 9291TIP3    H149288   2.204   6.500   4.780  1.1215 -0.5988 -0.0911
 9291TIP3    H249289   2.325   6.586   4.755  0.4091  0.5426  0.3447
 9292TIP3   OH249290   6.014   2.279  12.780 -0.0219  0.5529  0.5943
 9292TIP3    H149291   5.930   2.283  12.735 -0.7893  0.2407  1.9921
 9292TIP3    H249292   6.062   2.355  12.747 -0.5847  0.3777 -0.6877
 9293TIP3   OH249293   4.925   1.159  13.463 -0.6058  0.4676  0.4975
 9293TIP3    H149294   4.984   1.210  13.519  0.8360  0.2316 -0.7478
 9293TIP3    H249295   4.917   1.212  13.383 -0.6390 -0.3516 -0.0505
 9294TIP3   OH249296   3.162   2.680  15.704  0.2824  0.3615  0.0884
 9294TIP3    H149297   3.245   2.632  15.697  0.4108  0.8323 -2.2273
 9294TIP3    H249298   3.102   2.619  15.746  1.0211 -1.0409 -0.8609
 9295TIP3   OH249299   3.810   4.680   3.393  0.0884 -0.4512 -0.2359
 9295TIP3    H149300   3.806   4.645   3.304  0.6395  0.4461 -0.6255
 9295TIP3    H249301   3.718   4.686   3.420 -0.0670 -1.0502 -0.6155
 9296TIP3   OH249302   2.379   6.546  15.501 -0.0174 -0.4908  0.2382
 9296TIP3    H149303   2.360   6.540  15.595  0.2974  0.1303  0.3418
 9296TIP3    H249304   2.403   6.638  15.487  0.0566 -0.6102 -0.4290
 9297TIP3   OH249305   2.167   3.722  14.495 -0.3172 -0.2365  0.2550
 9297TIP3    H149306   2.147   3.629  14.483 -1.3857  0.2098 -1.5858
 9297TIP3    H249307   2.243   3.737  14.440 -0.7315  0.1974 -0.1959
 9298TIP3   OH249308   2.100   5.761   0.538  0.4699 -0.6357 -0.1357
 9298TIP3    H149309   2.027   5.745   0.478  2.1054  0.0189 -2.3676
 9298TIP3    H249310   2.109   5.678   0.586 -1.4608 -0.8539 -0.0832
 9299TIP3   OH249311   2.953   0.075  10.933 -0.2726  0.2730 -0.9799
 9299TIP3    H149312   2.892   0.001  10.924 -1.1339  0.6988  1.2866
 9299TIP3    H249313   3.027   0.039  10.982 -0.2658  0.6662 -0.7010
 9300TIP3   OH249314   2.203   1.022  12.660 -0.0598 -0.4824 -0.2040
 9300TIP3    H149315   2.125   1.018  12.605 -0.2451  1.3560 -0.0867
 9300TIP3    H249316   2.219   1.115  12.674  0.2884 -0.8959  2.4535
 9301TIP3   OH249317   1.998   5.906   5.216  0.0992  0.6199  0.5360
 9301TIP3    H149318   1.959   5.838   5.161  0.0402  0.9226  0.2060
 9301TIP3    H249319   2.092   5.899   5.198  0.3071 -0.7424  2.0427
 9302TIP3   OH249320   0.931   5.965   3.003 -0.0030  0.3832  0.4302
 9302TIP3    H149321   0.994   5.941   2.935 -0.4142 -0.9223  0.5052
 9302TIP3    H249322   0.982   5.970   3.084  0.0261 -0.5114  0.4638
 9303TIP3   OH249323   6.379   1.395   5.712 -0.1126 -0.3513  0.2005
 9303TIP3    H149324   6.349   1.486   5.717  2.0923  0.4588 -0.3639
 9303TIP3    H249325   6.384   1.377   5.618  0.8574 -0.5497  0.2865
 9304TIP3   OH249326   4.154   5.385  13.716  0.2300 -1.3258  0.4572
 9304TIP3    H149327   4.214   5.452  13.750 -0.3977 -0.8711  0.6988
 9304TIP3    H249328   4.070   5.407  13.756  0.0431 -2.3469  0.6385
 9305TIP3   OH249329   0.129   3.134   5.924 -0.2439 -0.0671 -0.2321
 9305TIP3    H149330   0.089   3.107   5.841 -0.5499 -2.9919  0.7934
 9305TIP3    H249331   0.223   3.123   5.910 -0.3772 -2.0394  0.2463
 9306TIP3   OH249332   1.643   3.437  16.088  0.0305 -0.4931  0.0919
 9306TIP3    H149333   1.620   3.366  16.148 -0.7015  0.8084  1.3427
 9306TIP3    H249334   1.696   3.497  16.140 -1.1053  0.9437 -0.3907
 9307TIP3   OH249335   5.376   1.025   5.395 -0.2366  0.5183 -0.2612
 9307TIP3    H149336   5.319   1.037   5.319  1.0635  3.2178 -0.8695
 9307TIP3    H249337   5.352   1.095   5.455 -0.4936 -0.9350  1.3628
 9308TIP3   OH249338   4.161   1.642   5.173 -0.3044  0.1782  0.3232
 9308TIP3    H149339   4.166   1.668   5.081 -0.6011  1.7768  0.7412
 9308TIP3    H249340   4.163   1.724   5.222 -4.9184 -0.3009  1.5499
 9309TIP3   OH249341   0.151   1.383   0.131 -0.5983 -0.6223  0.3768
 9309TIP3    H149342   0.107   1.301   0.154  0.0929 -1.3341 -0.8303
 9309TIP3    H249343   0.206   1.361   0.056  2.7168 -0.0510  2.5375
 9310TIP3   OH249344   4.474   0.940  16.703  0.2710  0.6783 -0.1017
 9310TIP3    H149345   4.385   0.906  16.691  0.3209  0.7271 -0.6162
 9310TIP3    H249346   4.478   1.017  16.645  0.5604  0.8284  0.1189
 9311TIP3   OH249347   6.269   5.884  13.626 -0.0944  0.0926 -0.2297
 9311TIP3    H149348   6.318   5.918  13.551 -1.5820 -0.0727 -1.3008
 9311TIP3    H249349   6.178   5.884  13.597 -0.6283 -0.4957  1.3926
 9312TIP3   OH249350   3.871   1.311  13.134 -0.0526 -0.2045  0.4293
 9312TIP3    H149351   3.827   1.338  13.054  1.7631  1.5445 -0.0106
 9312TIP3    H249352   3.820   1.353  13.204 -0.9183 -0.7415  0.1259
 9313TIP3   OH249353   5.072   0.428  15.920 -0.0961  0.2722  0.1680
 9313TIP3    H149354   5.014   0.403  15.848 -1.8739 -1.8823  2.2727
 9313TIP3    H249355   5.028   0.504  15.959  0.5464  1.0510 -0.5931
 9314TIP3   OH249356   2.459   4.656  15.279 -0.4610  0.7323 -0.0240
 9314TIP3    H149357   2.433   4.605  15.355 -1.4301  1.8112  0.3986
 9314TIP3    H249358   2.554   4.645  15.273 -0.8666 -2.7066 -1.1595
 9315TIP3   OH249359   4.165   1.231   4.190 -0.5190  0.0491 -0.3498
 9315TIP3    H149360   4.124   1.237   4.104 -1.9401  0.2081  0.3290
 9315TIP3    H249361   4.120   1.158   4.233  1.9147 -1.6811 -0.6444
 9316TIP3   OH249362   4.526   3.898   0.419 -0.4680  0.2332 -0.7942
 9316TIP3    H149363   4.433   3.906   0.400 -0.5111 -1.4889 -1.3841
 9316TIP3    H249364   4.532   3.820   0.475  0.4153  1.3930  0.7659
 9317TIP3   OH249365   0.297   3.554  11.237 -0.1063  0.1106 -0.0175
 9317TIP3    H149366   0.269   3.486  11.174  1.5383  1.6310 -2.4750
 9317TIP3    H249367   0.384   3.526  11.265 -0.4343 -0.0508  0.8353
 9318TIP3   OH249368   2.706   1.441   2.615  0.3616  0.1497 -0.2921
 9318TIP3    H149369   2.751   1.357   2.627  0.8196  0.2936 -1.0279
 9318TIP3    H249370   2.654   1.451   2.695  0.1826 -0.9111 -0.2613
 9319TIP3   OH249371   3.695   6.094   1.950 -0.4290 -0.2045  0.1957
 9319TIP3    H149372   3.778   6.095   1.998  0.7165  1.5130 -1.7594
 9319TIP3    H249373   3.704   6.164   1.885 -3.3592 -0.0921 -0.1340
 9320TIP3   OH249374   4.535   5.648  15.817  0.5405 -0.3483 -0.0483
 9320TIP3    H149375   4.554   5.706  15.890 -0.2888 -0.1767  0.0403
 9320TIP3    H249376   4.446   5.616  15.835  0.2169 -0.0669 -1.1432
 9321TIP3   OH249377   5.133   1.105  12.981 -0.5423  0.1427 -0.3916
 9321TIP3    H149378   5.119   1.104  12.887 -1.1852  0.3129 -0.3020
 9321TIP3    H249379   5.045   1.106  13.018 -0.2981 -0.2471  0.2149
 9322TIP3   OH249380   1.336   3.975   2.284 -0.0401 -0.2501  0.0406
 9322TIP3    H149381   1.349   4.070   2.276  1.0385 -0.3994  0.0125
 9322TIP3    H249382   1.381   3.938   2.208  0.7016 -0.8784  0.7733
 9323TIP3   OH249383   4.817   5.885  11.365 -0.8063 -0.3946  0.6102
 9323TIP3    H149384   4.832   5.797  11.398 -2.1869 -1.4590 -1.5046
 9323TIP3    H249385   4.832   5.879  11.271  0.4905  1.9762  0.6268
 9324TIP3   OH249386   1.425   2.002   5.609  0.5296 -0.3184  0.3323
 9324TIP3    H149387   1.438   1.929   5.669 -1.3857  0.3605  1.6053
 9324TIP3    H249388   1.333   2.027   5.621  0.9505  1.7785 -0.6630
 9325TIP3   OH249389   0.267   5.144   6.445  0.0276  0.0392  0.4483
 9325TIP3    H149390   0.249   5.183   6.531 -3.6749 -0.4015 -0.0748
 9325TIP3    H249391   0.201   5.181   6.387  0.9530 -1.5496 -1.6941
 9326TIP3   OH249392   4.221   2.358   6.843 -0.3813  0.3408 -0.0940
 9326TIP3    H149393   4.288   2.307   6.888 -0.5191  1.1773  1.0983
 9326TIP3    H249394   4.208   2.436   6.899 -2.4705  0.0979 -0.1725
 9327TIP3   OH249395   0.140   6.755  13.722  0.2486 -0.3273 -0.0529
 9327TIP3    H149396   0.211   6.693  13.737  0.4458 -0.1842 -0.3648
 9327TIP3    H249397   0.184   6.840  13.719 -0.1578 -0.0494  1.4687
 9328TIP3   OH249398   5.482   4.257   1.462 -0.1764  0.3409 -0.5146
 9328TIP3    H149399   5.419   4.264   1.534 -0.1564 -1.9204 -0.2452
 9328TIP3    H249400   5.566   4.243   1.505 -0.0543 -0.3417 -0.9756
 9329TIP3   OH249401   5.941   3.045   4.974 -0.0267 -0.2452 -0.5887
 9329TIP3    H149402   5.971   3.128   5.012  0.1676 -0.1742 -0.8925
 9329TIP3    H249403   5.846   3.048   4.985 -0.1304  0.5336 -1.6065
 9330TIP3   OH249404   0.641   3.139   2.281 -0.7913  0.4059  0.0579
 9330TIP3    H149405   0.705   3.154   2.351  0.1099  0.2248 -0.7167
 9330TIP3    H249406   0.643   3.219   2.229 -0.5940  0.0780 -0.4400
 9331TIP3   OH249407   4.760   4.821   2.834 -0.5486 -0.3875 -0.2095
 9331TIP3    H149408   4.794   4.778   2.913 -0.3825 -0.8327 -0.5212
 9331TIP3    H249409   4.720   4.902   2.866 -0.3793 -0.5108  0.3186
 9332TIP3   OH249410   0.166   3.284  13.818 -0.1388 -0.2225 -1.0195
 9332TIP3    H149411   0.211   3.223  13.876 -1.4142 -0.9966 -0.8260
 9332TIP3    H249412   0.167   3.242  13.732  1.5659  0.8297 -1.5408
 9333TIP3   OH249413   4.129   3.832  14.333  0.1679 -0.5741 -0.6672
 9333TIP3    H149414   4.055   3.843  14.273  0.0180  0.5511 -0.3024
 9333TIP3    H249415   4.201   3.880  14.291  1.1299 -2.9288 -1.7499
 9334TIP3   OH249416   5.002   1.481  12.815 -0.2842 -0.0712 -0.5814
 9334TIP3    H149417   5.036   1.512  12.899  1.6492  1.4478 -1.8871
 9334TIP3    H249418   4.978   1.561  12.768  0.5165 -0.8030 -2.2664
 9335TIP3   OH249419   6.409   5.544  15.790 -0.3383 -0.7699  0.1392
 9335TIP3    H149420   6.418   5.475  15.855  0.3116 -0.9615 -0.1500
 9335TIP3    H249421   6.329   5.590  15.814  1.1040  0.6208  2.4722
 9336TIP3   OH249422   6.037   2.910  15.722 -0.0205 -0.0692 -0.0849
 9336TIP3    H149423   6.006   2.939  15.636  2.8601 -2.0245 -1.8775
 9336TIP3    H249424   6.116   2.961  15.738 -0.4897  0.2185  1.3946
 9337TIP3   OH249425   0.525   4.515   5.763 -0.1195 -0.0468  0.2581
 9337TIP3    H149426   0.501   4.537   5.674  0.3702  1.1112  0.3972
 9337TIP3    H249427   0.463   4.563   5.818  1.3553  1.5484  0.5772
 9338TIP3   OH249428   4.491   2.491  11.331  0.0304 -0.1170 -0.1878
 9338TIP3    H149429   4.582   2.522  11.326  0.0290  0.2727  1.5904
 9338TIP3    H249430   4.491   2.433  11.407 -0.9729 -0.9817 -0.8506
 9339TIP3   OH249431   1.677   5.641   5.686 -0.4007  0.4984 -0.5346
 9339TIP3    H149432   1.694   5.634   5.780 -0.5254 -0.7413 -0.5953
 9339TIP3    H249433   1.763   5.647   5.646 -0.1542 -2.8000 -0.6188
 9340TIP3   OH249434   6.126   2.752   2.377  0.1605  0.2159 -0.1018
 9340TIP3    H149435   6.211   2.731   2.417  0.4942  0.2403 -0.7738
 9340TIP3    H249436   6.075   2.791   2.447  0.9200  0.7584  0.1610
 9341TIP3   OH249437   4.335   0.030  10.435 -0.3929 -0.9645  0.4747
 9341TIP3    H149438   4.377   0.092  10.494 -0.6019 -0.9782  0.6361
 9341TIP3    H249439   4.380  -0.053  10.452  0.0707 -0.8022  0.0683
 9342TIP3   OH249440   1.816   4.273  15.639 -0.4350  0.8313 -0.2052
 9342TIP3    H149441   1.762   4.204  15.601  0.6250 -0.2301  0.1744
 9342TIP3    H249442   1.879   4.295  15.570 -1.6334  2.3998 -0.8195
 9343TIP3   OH249443   1.172   1.806   1.289  0.0990 -0.1581  0.3021
 9343TIP3    H149444   1.229   1.880   1.308  0.7117 -0.4023 -0.5649
 9343TIP3    H249445   1.097   1.845   1.243  0.9172 -0.2002 -1.0915
 9344TIP3   OH249446   3.951   2.108   3.071  0.3843  0.5632  0.6514
 9344TIP3    H149447   3.961   2.052   3.148 -2.4360 -1.6909 -0.5086
 9344TIP3    H249448   3.857   2.107   3.052  1.0100  0.8594 -2.9651
 9345TIP3   OH249449   3.146   1.544   5.232 -0.5703  0.5632  0.0489
 9345TIP3    H149450   3.105   1.598   5.299 -0.7864 -0.0491  0.4200
 9345TIP3    H249451   3.210   1.491   5.279 -1.5666 -0.7300 -0.0213
 9346TIP3   OH249452   2.741   2.435   4.336 -0.2678  0.6075  0.1781
 9346TIP3    H149453   2.740   2.431   4.432 -1.2134  0.3718  0.1647
 9346TIP3    H249454   2.672   2.497   4.314  0.0967  0.8290 -0.3500
 9347TIP3   OH249455   1.746   5.136  11.743 -0.1773 -0.2577 -0.0785
 9347TIP3    H149456   1.832   5.105  11.770 -0.1469  0.4112  0.6088
 9347TIP3    H249457   1.764   5.204  11.679 -0.2267 -0.9849 -0.8778
 9348TIP3   OH249458   4.984   0.067   4.393 -0.0316  0.2301  0.0148
 9348TIP3    H149459   4.907   0.013   4.375  0.8280 -1.0002 -0.0298
 9348TIP3    H249460   4.993   0.067   4.488 -1.4582  2.3466  0.1912
 9349TIP3   OH249461   2.469   2.717   5.772  0.0744  0.4358  0.4743
 9349TIP3    H149462   2.491   2.650   5.837  2.4724  0.9313  0.2247
 9349TIP3    H249463   2.417   2.781   5.820  0.7096  0.1312  1.5954
 9350TIP3   OH249464   1.593   0.841   2.415  0.8364  0.2588  0.0113
 9350TIP3    H149465   1.576   0.918   2.468 -0.9318 -1.0632  1.4594
 9350TIP3    H249466   1.678   0.809   2.445  1.2032  1.1895 -0.0386
 9351TIP3   OH249467   0.298   5.510   1.665  0.4462 -0.4402  0.3104
 9351TIP3    H149468   0.334   5.442   1.607 -2.7467  1.1627 -3.8062
 9351TIP3    H249469   0.330   5.592   1.627  0.1107  0.5811  2.2002
 9352TIP3   OH249470   2.441   3.969  13.813  0.3703  0.0212  0.4903
 9352TIP3    H149471   2.467   3.951  13.903 -1.7830 -1.4039  0.8752
 9352TIP3    H249472   2.346   3.952  13.812  0.2697  0.5563 -1.9054
 9353TIP3   OH249473   6.215   2.278   2.932  0.7661 -0.3704  0.0449
 9353TIP3    H149474   6.192   2.364   2.898 -0.8645 -0.8492 -0.0814
 9353TIP3    H249475   6.236   2.226   2.854 -1.4979 -1.0308 -0.1561
 9354TIP3   OH249476   2.124   6.486  14.165  0.1368  0.2460  0.3249
 9354TIP3    H149477   2.187   6.421  14.135  0.5230  1.6181 -1.9062
 9354TIP3    H249478   2.056   6.487  14.097 -0.2725  1.5986  0.7262
 9355TIP3   OH249479   0.454   3.261  16.795 -0.1039 -0.1713  0.6185
 9355TIP3    H149480   0.442   3.171  16.766 -3.2984  0.2763  0.3911
 9355TIP3    H249481   0.528   3.257  16.856  0.7429 -2.6622 -0.5270
 9356TIP3   OH249482   1.647   3.538   1.529 -0.3928  0.0358 -0.3731
 9356TIP3    H149483   1.738   3.530   1.500 -0.8960 -2.2726 -1.4536
 9356TIP3    H249484   1.604   3.461   1.492 -2.5682  0.5807  0.9621
 9357TIP3   OH249485   3.699   6.570   3.189 -0.2102 -0.2067  0.3342
 9357TIP3    H149486   3.727   6.491   3.142 -0.3221 -0.8541  1.3435
 9357TIP3    H249487   3.774   6.630   3.181 -0.1786 -0.3566 -0.5525
 9358TIP3   OH249488   2.531   5.331  14.599 -0.4684  0.1179  0.1549
 9358TIP3    H149489   2.458   5.370  14.552 -0.3768 -1.9876 -1.8419
 9358TIP3    H249490   2.572   5.273  14.534  1.1750 -0.9553  2.1218
 9359TIP3   OH249491   4.061   6.764   4.032  0.3453  0.1565 -0.1337
 9359TIP3    H149492   4.012   6.682   4.041  1.2634 -0.6020 -1.8111
 9359TIP3    H249493   4.152   6.739   4.049  0.4771  1.0712  0.5233
 9360TIP3   OH249494   3.223   2.019   4.069  0.5068 -0.1659  0.0856
 9360TIP3    H149495   3.167   2.082   4.026 -0.2643 -2.0372 -1.7309
 9360TIP3    H249496   3.179   2.001   4.152 -1.0673 -0.8497 -0.8717
 9361TIP3   OH249497   3.648   2.077   0.678 -0.3919 -0.6179 -0.4169
 9361TIP3    H149498   3.676   2.157   0.632 -0.3694  0.9159  2.1635
 9361TIP3    H249499   3.711   2.011   0.651  0.3756  0.5553 -1.5938
 9362TIP3   OH249500   1.209   1.975  13.892  0.5919 -0.0015  0.0476
 9362TIP3    H149501   1.122   1.976  13.934  1.5726  0.7019  2.1369
 9362TIP3    H249502   1.191   1.993  13.800 -1.6092 -1.1660  0.2080
 9363TIP3   OH249503   1.186   1.588  14.466 -0.6776  0.0816  0.5483
 9363TIP3    H149504   1.248   1.661  14.467 -1.8866  1.1259  1.0338
 9363TIP3    H249505   1.226   1.523  14.408 -0.2142  1.6903 -0.9820
 9364TIP3   OH249506   6.699   6.675   6.203 -0.6521  0.3788 -0.5486
 9364TIP3    H149507   6.736   6.600   6.157  0.5843 -0.2857  1.4771
 9364TIP3    H249508   6.667   6.639   6.285 -1.3591  1.8302 -0.1712
 9365TIP3   OH249509   5.450   5.877  14.115 -0.4237 -0.3102  0.5344
 9365TIP3    H149510   5.466   5.851  14.205 -1.0066  0.5952  0.9079
 9365TIP3    H249511   5.537   5.882  14.075 -0.1532 -0.5439  1.0951
 9366TIP3   OH249512   1.263   3.819   5.701  0.0531  0.4870 -0.2403
 9366TIP3    H149513   1.199   3.885   5.676  1.6097  1.5706 -1.4851
 9366TIP3    H249514   1.277   3.767   5.622  0.2940 -0.0995  0.1788
 9367TIP3   OH249515   3.975   5.530   2.131 -0.4084  0.2961  0.0865
 9367TIP3    H149516   3.990   5.452   2.186 -0.9067 -1.2291 -1.8788
 9367TIP3    H249517   3.906   5.504   2.071  0.1574  1.9201 -1.3089
 9368TIP3   OH249518   1.409   3.619   0.244  0.4968 -0.1577  0.5306
 9368TIP3    H149519   1.356   3.652   0.171  0.7101 -0.5511  0.1933
 9368TIP3    H249520   1.446   3.697   0.283  1.7021 -0.0396 -0.8066
 9369TIP3   OH249521   3.071   3.708  12.855  0.2603 -0.1388  0.2082
 9369TIP3    H149522   3.023   3.631  12.824 -2.1237  1.6874 -0.8520
 9369TIP3    H249523   3.004   3.763  12.896  1.7270  1.7988  0.0789
 9370TIP3   OH249524   6.299   5.943   5.133 -0.0279  0.3978 -0.1568
 9370TIP3    H149525   6.233   5.894   5.084  0.5011 -0.6357  0.1484
 9370TIP3    H249526   6.275   5.932   5.225  0.0527  0.7723 -0.0893
 9371TIP3   OH249527   0.169   2.667  10.911  0.0105 -0.1475 -0.2538
 9371TIP3    H149528   0.189   2.685  10.819 -1.3831 -0.7235 -0.6885
 9371TIP3    H249529   0.254   2.660  10.954  0.7173 -1.8457 -1.8761
 9372TIP3   OH249530   3.774   0.452  13.808 -0.5798 -0.3198  0.3004
 9372TIP3    H149531   3.837   0.387  13.776 -1.6127 -1.5636  0.7613
 9372TIP3    H249532   3.705   0.455  13.742 -0.9652 -0.3178  0.6963
 9373TIP3   OH249533   5.020   3.997  12.350 -0.1753  0.1756  0.1053
 9373TIP3    H149534   4.951   3.930  12.345  0.4354 -0.7220  2.7814
 9373TIP3    H249535   5.039   4.018  12.259 -2.4357 -1.1718 -0.7364
 9374TIP3   OH249536   0.663   2.990  16.245 -0.6502 -0.2980  0.7871
 9374TIP3    H149537   0.607   2.925  16.286 -1.0431 -1.0254 -0.8681
 9374TIP3    H249538   0.747   2.982  16.290 -1.3630 -0.3554  2.1307
 9375TIP3   OH249539   2.605   3.194  11.035  0.6284  0.4463  0.1820
 9375TIP3    H149540   2.608   3.258  10.963  0.8939 -0.1060 -0.3044
 9375TIP3    H249541   2.639   3.113  10.996 -0.2138 -0.1328  0.6524
 9376TIP3   OH249542   3.746   5.819   3.394 -0.0323 -0.3947 -0.6230
 9376TIP3    H149543   3.779   5.894   3.345  1.6638 -0.3441  0.5653
 9376TIP3    H249544   3.760   5.744   3.337  0.9966 -0.1947 -0.6416
 9377TIP3   OH249545   1.570   3.657   4.697  0.3544 -0.3209  0.3348
 9377TIP3    H149546   1.652   3.685   4.738 -0.0503 -1.7924  2.2328
 9377TIP3    H249547   1.573   3.694   4.609  2.4265  0.7944  0.8435
 9378TIP3   OH249548   3.535   0.727   1.947 -0.2685 -0.3854 -0.4494
 9378TIP3    H149549   3.468   0.795   1.937  3.2363  3.2407 -0.6909
 9378TIP3    H249550   3.525   0.697   2.038 -0.7592  1.7118  0.2097
 9379TIP3   OH249551   6.768   0.417  17.102 -0.2910 -0.4476  0.5576
 9379TIP3    H149552   6.779   0.512  17.098 -1.1840 -0.3172  1.0789
 9379TIP3    H249553   6.854   0.382  17.081  0.0431  0.4805  0.3676
 9380TIP3   OH249554   3.171   0.250  13.841  0.2678  0.4373  0.1475
 9380TIP3    H149555   3.093   0.198  13.820 -0.2543  1.7164 -1.1587
 9380TIP3    H249556   3.186   0.235  13.934 -1.5578  0.1939  0.4095
 9381TIP3   OH249557   6.339   2.303  16.230  0.6819  0.0093  0.0229
 9381TIP3    H149558   6.246   2.327  16.224  0.8345  0.3730 -1.1293
 9381TIP3    H249559   6.348   2.261  16.315 -0.2262  1.3476  0.8028
 9382TIP3   OH249560   2.153   2.335  17.112  0.1606  0.0287  0.3460
 9382TIP3    H149561   2.065   2.339  17.149 -0.2582  2.6174 -0.8279
 9382TIP3    H249562   2.138   2.332  17.017  1.3319  1.0838  0.1154
 9383TIP3   OH249563   5.153   2.356   5.735  0.3382  0.4689 -0.1572
 9383TIP3    H149564   5.101   2.367   5.656  1.0806  0.0955 -0.6997
 9383TIP3    H249565   5.090   2.325   5.801 -0.3078  0.9353 -0.5511
 9384TIP3   OH249566   5.985   5.807  16.349 -0.5555  0.1986 -0.3763
 9384TIP3    H149567   5.955   5.810  16.440  1.2896  1.9208  0.2175
 9384TIP3    H249568   5.998   5.899  16.325  0.9758 -0.3448 -1.6939
 9385TIP3   OH249569   3.386   0.029  12.474 -0.0191  0.3361 -0.5041
 9385TIP3    H149570   3.367  -0.055  12.433  1.3241 -0.1161 -0.2327
 9385TIP3    H249571   3.470   0.056  12.436  1.0859  0.0814  1.6812
 9386TIP3   OH249572   3.266   0.351  14.305  0.6273  0.3055 -0.0037
 9386TIP3    H149573   3.202   0.363  14.376 -0.2518  1.3924 -0.9539
 9386TIP3    H249574   3.321   0.429  14.310 -0.3096  1.0846 -1.3705
 9387TIP3   OH249575   6.438   3.463  14.818 -0.2591  0.4369  0.2993
 9387TIP3    H149576   6.363   3.521  14.832  0.2405  0.5688  2.8060
 9387TIP3    H249577   6.512   3.522  14.808 -0.2750  0.2838 -0.7275
 9388TIP3   OH249578   1.697   3.878  12.194 -0.9165  0.7084 -0.4315
 9388TIP3    H149579   1.735   3.872  12.282 -0.9127 -0.9659 -0.5313
 9388TIP3    H249580   1.616   3.928  12.206 -2.1715 -1.5681  0.9701
 9389TIP3   OH249581   1.635   0.668   1.115  0.0527 -0.6094  0.5070
 9389TIP3    H149582   1.667   0.751   1.150 -0.6509 -0.5995  1.1428
 9389TIP3    H249583   1.710   0.632   1.068  1.3437 -1.0776  2.8255
 9390TIP3   OH249584   1.951   5.615  16.562  0.1852 -0.1640  0.1184
 9390TIP3    H149585   2.009   5.684  16.530  0.8436  0.1164  1.8162
 9390TIP3    H249586   2.001   5.573  16.633 -1.1594 -0.8003  0.7129
 9391TIP3   OH249587   1.353   1.259   3.934  0.4529 -0.4415  0.0266
 9391TIP3    H149588   1.439   1.250   3.975  0.9060  0.9844 -0.5637
 9391TIP3    H249589   1.373   1.274   3.842 -0.4479 -0.5452 -0.1831
 9392TIP3   OH249590   5.654   5.718   4.289 -0.2125 -0.5411 -0.4179
 9392TIP3    H149591   5.715   5.676   4.350  1.5251  1.0089 -1.0609
 9392TIP3    H249592   5.667   5.671   4.206 -0.5553 -0.7824 -0.3404
 9393TIP3   OH249593   0.556   2.744   2.059 -0.4343 -0.0036 -0.2097
 9393TIP3    H149594   0.639   2.786   2.081 -0.9993  0.6385  0.7267
 9393TIP3    H249595   0.517   2.802   1.993  0.4671 -1.0166 -1.6579
 9394TIP3   OH249596   1.907   2.750  16.217 -0.5421 -0.2277  0.6577
 9394TIP3    H149597   1.878   2.679  16.274  0.1401  0.0083  1.3017
 9394TIP3    H249598   1.964   2.803  16.272 -0.0950  0.1553 -0.1729
 9395TIP3   OH249599   2.772   4.675   5.121  0.6284  0.2623 -0.6259
 9395TIP3    H149600   2.703   4.655   5.185 -1.3335  2.4246 -1.9872
 9395TIP3    H249601   2.837   4.724   5.171  0.1650  0.0421  0.2038
 9396TIP3   OH249602   6.707   5.666  11.488 -0.1868 -0.1433  0.4534
 9396TIP3    H149603   6.781   5.676  11.428  0.1854  0.2495  0.9813
 9396TIP3    H249604   6.682   5.574  11.478 -1.1473  0.2901 -1.4854
 9397TIP3   OH249605   5.173   2.880   4.917  0.0879 -0.2959 -0.0289
 9397TIP3    H149606   5.152   2.972   4.901  0.9009  0.2404  1.9476
 9397TIP3    H249607   5.262   2.870   4.883  1.0448  0.3412  2.2517
 9398TIP3   OH249608   0.109   2.089   3.830  0.4195  0.2688  0.0259
 9398TIP3    H149609   0.064   2.096   3.914  1.5206 -1.5024  0.7904
 9398TIP3    H249610   0.041   2.060   3.769 -0.1095  0.3712  0.5571
 9399TIP3   OH249611   0.872   3.983   5.863  0.5703  0.4183  0.0138
 9399TIP3    H149612   0.799   3.988   5.925  0.0593  0.3048 -0.5746
 9399TIP3    H249613   0.923   3.907   5.892 -0.9091 -0.9954 -1.0302
 9400TIP3   OH249614   6.338   2.721  13.324 -0.4590 -0.0524 -0.2680
 9400TIP3    H149615   6.349   2.799  13.377 -1.7706  0.1846 -0.3315
 9400TIP3    H249616   6.298   2.657  13.383 -1.7738  0.1595 -0.9193
 9401TIP3   OH249617   1.159   4.445   5.702 -0.4335 -0.4849 -0.5436
 9401TIP3    H149618   1.244   4.418   5.736  0.8958  1.2372 -2.4194
 9401TIP3    H249619   1.113   4.481   5.778 -0.0840 -2.7389  0.7850
 9402TIP3   OH249620   0.439   6.205   2.540  0.1370 -0.0360 -0.3769
 9402TIP3    H149621   0.404   6.260   2.470  1.1967 -0.0114 -0.8886
 9402TIP3    H249622   0.419   6.252   2.620  1.2812  1.2340 -0.8277
 9403TIP3   OH249623   0.782   3.418   6.035 -0.6257  0.3102 -0.0299
 9403TIP3    H149624   0.769   3.333   6.078  0.7886 -0.4427 -1.0221
 9403TIP3    H249625   0.804   3.478   6.106  2.4340 -1.0842  0.2939
 9404TIP3   OH249626   2.076   5.913  12.398  0.0028 -0.4270 -0.7830
 9404TIP3    H149627   1.996   5.867  12.424  0.1824 -0.9357 -1.1360
 9404TIP3    H249628   2.084   5.896  12.305 -0.6454  1.4111 -1.1969
 9405TIP3   OH249629   5.069   0.066  14.126 -0.2486 -0.3521 -0.4969
 9405TIP3    H149630   5.059   0.131  14.056  0.3288 -1.8220 -1.9692
 9405TIP3    H249631   5.031   0.108  14.203 -0.4104  1.5061 -1.5634
 9406TIP3   OH249632   0.719   1.986  16.129  0.3440  0.2158  0.3105
 9406TIP3    H149633   0.713   2.078  16.105  0.9636  0.1500 -0.1039
 9406TIP3    H249634   0.633   1.965  16.166  0.0848  0.8660  0.0795
 9407TIP3   OH249635   4.002   3.647   3.460 -0.2589 -0.3955  0.1940
 9407TIP3    H149636   3.971   3.713   3.397 -2.0004 -1.0558  0.3446
 9407TIP3    H249637   4.088   3.621   3.426 -1.1285 -0.6778 -1.8839
 9408TIP3   OH249638   0.740   2.640  10.410  0.0068  0.2273  0.0828
 9408TIP3    H149639   0.689   2.712  10.446 -1.4268 -1.1809  0.9776
 9408TIP3    H249640   0.687   2.607  10.337 -0.3997 -1.2459  1.0099
 9409TIP3   OH249641   6.285   2.420  11.044  0.0328 -0.0883  0.3095
 9409TIP3    H149642   6.299   2.499  10.992 -1.6320  0.9293  1.3867
 9409TIP3    H249643   6.214   2.374  10.998  0.6289 -0.6956 -0.0118
 9410TIP3   OH249644   4.003   1.253   3.604 -0.4560 -0.0617 -0.3811
 9410TIP3    H149645   3.941   1.193   3.563 -0.7124 -0.1556  0.1483
 9410TIP3    H249646   3.949   1.321   3.644 -0.1513  0.8067 -1.4048
 9411TIP3   OH249647   2.978   3.045  13.283  0.0568  0.1140  0.0782
 9411TIP3    H149648   2.911   2.979  13.301 -0.7840  1.2012  1.1253
 9411TIP3    H249649   3.010   3.025  13.196 -1.2133 -0.8072 -0.1907
 9412TIP3   OH249650   2.129   2.059   1.517 -0.8293  0.4013 -0.4206
 9412TIP3    H149651   2.145   2.150   1.544  1.2103  0.1298 -0.6132
 9412TIP3    H249652   2.177   2.050   1.435  0.6467 -1.4037  0.6136
 9413TIP3   OH249653   1.102   4.274  16.784 -0.7641 -0.3222  0.4093
 9413TIP3    H149654   1.079   4.290  16.693 -0.2003  0.6542  0.4334
 9413TIP3    H249655   1.113   4.361  16.822  2.0118 -0.7078  0.6336
 9414TIP3   OH249656   4.793   6.646  14.688 -0.2515  0.4895  0.7155
 9414TIP3    H149657   4.773   6.729  14.732 -0.1215  0.7723  0.2397
 9414TIP3    H249658   4.707   6.610  14.667 -0.3031  1.7386 -1.3903
 9415TIP3   OH249659   1.970   5.136   1.688  0.5172 -0.0744 -0.6889
 9415TIP3    H149660   1.892   5.171   1.645  0.2204 -0.2323 -0.2765
 9415TIP3    H249661   1.986   5.195   1.761 -0.7393 -1.5206  0.7838
 9416TIP3   OH249662   1.023   5.037   2.997  0.5318  0.5635 -0.0778
 9416TIP3    H149663   0.976   5.003   2.921  0.9049  0.1209 -0.1159
 9416TIP3    H249664   1.116   5.027   2.975  0.6657  3.3252 -0.8202
 9417TIP3   OH249665   5.450   6.155  15.645  0.4399  0.3184 -0.4710
 9417TIP3    H149666   5.416   6.174  15.558 -0.5791  1.0485  0.0800
 9417TIP3    H249667   5.380   6.181  15.705  0.7044 -1.1629  0.5186
 9418TIP3   OH249668   0.360   2.709  15.812  0.3494  0.3693  0.0538
 9418TIP3    H149669   0.267   2.717  15.790  0.4645  0.4295 -0.4125
 9418TIP3    H249670   0.405   2.710  15.728  0.5336 -3.1001  0.0551
 9419TIP3   OH249671   2.632   6.457  13.333 -0.3358  0.6212  0.2021
 9419TIP3    H149672   2.594   6.520  13.272 -2.6301 -0.9200 -0.0082
 9419TIP3    H249673   2.560   6.434  13.392  0.6213 -1.3256  0.6581
 9420TIP3   OH249674   4.054   0.570  11.548  0.1991 -0.0196 -0.6028
 9420TIP3    H149675   4.124   0.516  11.583 -0.0820 -1.2468 -1.9240
 9420TIP3    H249676   3.987   0.508  11.520 -0.3845  1.0329 -1.5883
 9421TIP3   OH249677   4.853   5.438  11.252 -0.5598 -0.4182  0.0428
 9421TIP3    H149678   4.812   5.387  11.182 -0.0929  0.0473 -0.5801
 9421TIP3    H249679   4.944   5.448  11.224 -0.8088  1.3711 -0.2146
 9422TIP3   OH249680   1.461   3.717  16.993 -0.0512 -0.1033 -0.1741
 9422TIP3    H149681   1.411   3.679  16.920  1.0517  0.3665 -1.1875
 9422TIP3    H249682   1.538   3.754  16.952 -0.2124  1.6201  1.0450
 9423TIP3   OH249683   3.190   0.775   3.959  0.0580  0.1685  0.2415
 9423TIP3    H149684   3.165   0.866   3.970  0.9958  0.4166  0.3553
 9423TIP3    H249685   3.278   0.778   3.922  0.1584 -0.6857  0.3947
 9424TIP3   OH249686   3.359   6.316   5.220 -0.0848  0.1561  0.0767
 9424TIP3    H149687   3.411   6.341   5.144 -0.1983 -1.1527 -0.4418
 9424TIP3    H249688   3.271   6.348   5.200 -0.2295 -0.6436 -0.5750
 9425TIP3   OH249689   5.052   5.817   2.249  0.1278 -0.3522 -0.1622
 9425TIP3    H149690   5.110   5.755   2.204 -0.7298 -0.9185 -0.5050
 9425TIP3    H249691   4.976   5.765   2.274 -0.5542  0.5370 -0.3599
 9426TIP3   OH249692   4.537   6.538  11.005 -0.1445 -0.0496 -0.0089
 9426TIP3    H149693   4.469   6.556  10.941  0.5602  0.9274 -0.4925
 9426TIP3    H249694   4.538   6.615  11.062 -0.6420 -0.8296  1.0780
 9427TIP3   OH249695   4.933   5.000   4.017 -0.3521  0.0646 -1.0658
 9427TIP3    H149696   4.962   4.947   3.943  1.2886 -0.0017 -0.3854
 9427TIP3    H249697   4.899   4.937   4.081  0.2084 -0.0443 -0.8768
 9428TIP3   OH249698   2.163   2.153  14.443  0.0520  0.6916  0.0559
 9428TIP3    H149699   2.244   2.202  14.460  1.2195 -1.6141  1.3250
 9428TIP3    H249700   2.108   2.171  14.519  0.3001  0.3943  0.3059
 9429TIP3   OH249701   1.647   6.719  11.745  0.2278 -0.0623  0.2097
 9429TIP3    H149702   1.615   6.661  11.676 -1.1933  0.1355  0.6829
 9429TIP3    H249703   1.567   6.751  11.787  1.0241  1.8396  0.2735
 9430TIP3   OH249704   6.533   5.380   2.054  0.0446 -0.0692  0.3589
 9430TIP3    H149705   6.548   5.474   2.069 -0.1131 -0.0358  0.3144
 9430TIP3    H249706   6.443   5.365   2.083 -0.1401 -0.0778 -0.2013
 9431TIP3   OH249707   4.826   4.443   0.930 -0.2301 -0.3859 -0.2717
 9431TIP3    H149708   4.752   4.398   0.970 -0.2807  0.5386  0.7018
 9431TIP3    H249709   4.885   4.373   0.902 -0.3006 -1.0576  1.2055
 9432TIP3   OH249710   0.750   5.345   5.045  0.0704  0.4303 -0.1970
 9432TIP3    H149711   0.709   5.376   4.964  0.1209 -0.2620 -0.4842
 9432TIP3    H249712   0.785   5.259   5.023  1.7082  1.0253  0.0350
 9433TIP3   OH249713   4.528   2.974   6.379 -0.0955  0.4322 -0.0008
 9433TIP3    H149714   4.544   2.945   6.469 -1.4457 -0.1815  0.0590
 9433TIP3    H249715   4.603   3.029   6.358  0.1502  0.7227  1.5626
 9434TIP3   OH249716   5.104   2.705   3.184 -0.3820  0.0814 -0.0936
 9434TIP3    H149717   5.061   2.644   3.243 -0.7575 -0.5081 -0.9647
 9434TIP3    H249718   5.166   2.651   3.135 -1.0842  0.2911 -1.2342
 9435TIP3   OH249719   4.398   5.678   5.550 -0.7130  0.0559  0.0259
 9435TIP3    H149720   4.405   5.677   5.646 -2.5323  1.1325  0.1894
 9435TIP3    H249721   4.481   5.715   5.521 -0.0465 -0.4977  1.1709
 9436TIP3   OH249722   2.268   6.674   0.861 -0.3174 -0.0520  0.4764
 9436TIP3    H149723   2.323   6.752   0.853  2.4059 -2.1244 -1.6994
 9436TIP3    H249724   2.324   6.609   0.904 -1.5025 -1.7799 -0.5299
 9437TIP3   OH249725   0.358   0.163   4.271  0.1099  0.0859 -0.5506
 9437TIP3    H149726   0.331   0.247   4.308  1.6795  1.0427 -1.5203
 9437TIP3    H249727   0.422   0.128   4.334 -0.8782 -0.6123  0.0807
 9438TIP3   OH249728   0.767   1.406   5.851 -0.1270 -0.3764 -0.0144
 9438TIP3    H149729   0.704   1.477   5.860 -0.5502 -0.3344 -2.7969
 9438TIP3    H249730   0.738   1.340   5.915 -2.6353 -0.0803 -0.7824
 9439TIP3   OH249731   5.103   3.838   2.422 -1.4185  0.3335  0.1393
 9439TIP3    H149732   5.037   3.849   2.354 -0.0770  0.5550 -1.1664
 9439TIP3    H249733   5.067   3.773   2.481 -2.2445 -0.5134 -1.2769
 9440TIP3   OH249734   3.098   1.725  12.503 -0.4148 -0.0241  0.5482
 9440TIP3    H149735   3.061   1.806  12.467  0.1610 -0.4564 -1.0418
 9440TIP3    H249736   3.148   1.687  12.431 -0.6507 -1.7917  1.2915
 9441TIP3   OH249737   1.696   4.504   3.565 -0.1922  0.0414  0.2747
 9441TIP3    H149738   1.691   4.432   3.628 -3.5599  0.4580  0.5614
 9441TIP3    H249739   1.660   4.467   3.484  0.9406  0.5100 -0.4548
 9442TIP3   OH249740   0.727   1.317   5.286 -0.4812 -0.0577 -0.7608
 9442TIP3    H149741   0.747   1.394   5.339 -4.7541 -0.5557  1.7771
 9442TIP3    H249742   0.717   1.351   5.197 -0.5990  2.0348  0.0251
 9443TIP3   OH249743   4.652   5.143   1.426 -0.5222 -0.0422  0.0106
 9443TIP3    H149744   4.698   5.117   1.506  1.3171  2.1885 -0.2698
 9443TIP3    H249745   4.589   5.209   1.455  0.3757  1.0138 -0.3821
 9444TIP3   OH249746   0.336   0.504  13.383  0.3204 -0.3648 -0.2833
 9444TIP3    H149747   0.331   0.417  13.423  0.8378 -0.9740 -1.5305
 9444TIP3    H249748   0.400   0.495  13.312 -1.6283  0.3154 -2.1974
 9445TIP3   OH249749   1.591   2.763  13.615 -0.2172 -0.0182 -0.0768
 9445TIP3    H149750   1.564   2.739  13.704 -0.6399 -2.6967 -0.8848
 9445TIP3    H249751   1.512   2.798  13.574 -1.3297 -3.3931 -0.9259
 9446TIP3   OH249752   6.260   6.765   4.785 -0.0445 -0.7162 -0.6819
 9446TIP3    H149753   6.259   6.806   4.698  0.7142  2.7184  0.8941
 9446TIP3    H249754   6.183   6.800   4.830 -0.3611 -2.3796  0.1348
 9447TIP3   OH249755   3.923   0.745  12.098 -0.2512 -0.8599  0.0233
 9447TIP3    H149756   3.898   0.688  12.170 -0.7926  0.5659  0.9755
 9447TIP3    H249757   4.010   0.778  12.122 -0.2513 -0.7120 -0.1739
 9448TIP3   OH249758   2.132   6.163   0.233  0.4938 -0.6389  0.1786
 9448TIP3    H149759   2.069   6.185   0.301 -1.2429  2.6550 -2.3762
 9448TIP3    H249760   2.079   6.128   0.161  1.7855  0.3013 -1.2688
 9449TIP3   OH249761   2.627   4.636  14.187 -0.2010 -0.3089  0.5117
 9449TIP3    H149762   2.695   4.659  14.251 -0.8851 -1.7671  1.8030
 9449TIP3    H249763   2.675   4.621  14.106  1.1148 -1.9860  1.5658
 9450TIP3   OH249764   4.829   1.083   1.766  0.0495  0.0670 -0.2356
 9450TIP3    H149765   4.751   1.044   1.728  2.2863 -1.3911 -3.6000
 9450TIP3    H249766   4.852   1.026   1.840 -0.5331 -1.0724 -0.9248
 9451TIP3   OH249767   5.145   6.524   3.108 -0.2215  0.3030 -0.0481
 9451TIP3    H149768   5.071   6.464   3.114 -2.4115  2.9850  0.8527
 9451TIP3    H249769   5.172   6.521   3.016 -0.5254 -1.7190 -0.0962
 9452TIP3   OH249770   2.697   3.491   3.385 -0.3374 -0.0413  0.4346
 9452TIP3    H149771   2.749   3.449   3.453 -1.4692 -0.0324  1.3011
 9452TIP3    H249772   2.702   3.585   3.406  0.5662  0.0987 -0.3718
 9453TIP3   OH249773   3.314   3.345  13.310  0.1150 -0.3120 -0.7707
 9453TIP3    H149774   3.306   3.431  13.269 -0.2564 -0.6990 -1.5072
 9453TIP3    H249775   3.408   3.328  13.311  0.1005 -0.4672 -1.8060
 9454TIP3   OH249776   4.765   2.823   4.637  0.4430  0.4452  0.1638
 9454TIP3    H149777   4.730   2.885   4.700  0.5537  2.4011 -1.6387
 9454TIP3    H249778   4.855   2.852   4.620  0.5579 -0.2932 -0.5816
 9455TIP3   OH249779   3.854   1.774  11.211  0.0101  0.1118  0.2646
 9455TIP3    H149780   3.839   1.728  11.129  0.7077  0.2251  0.0738
 9455TIP3    H249781   3.922   1.723  11.256 -0.4313 -0.0024  0.8147
 9456TIP3   OH249782   1.257   3.781  11.510 -0.1275 -0.4336 -0.6585
 9456TIP3    H149783   1.205   3.847  11.557  0.2329 -1.0735  0.6686
 9456TIP3    H249784   1.241   3.799  11.417  0.7505  2.1502 -0.3363
 9457TIP3   OH249785   5.936   4.406  10.976 -0.2286 -0.3074  0.2177
 9457TIP3    H149786   5.898   4.339  10.919  1.0809 -0.4529 -0.4902
 9457TIP3    H249787   5.877   4.409  11.052 -0.0425 -2.6011  0.4872
 9458TIP3   OH249788   0.578   5.978   5.524 -0.2073 -0.0712 -0.5118
 9458TIP3    H149789   0.664   6.015   5.543 -0.7864  0.6843  0.6597
 9458TIP3    H249790   0.523   6.054   5.502 -1.2523 -0.2623  1.3386
 9459TIP3   OH249791   5.607   1.634   1.750  0.5213  0.3510 -0.0694
 9459TIP3    H149792   5.579   1.549   1.716  1.4218  0.2489 -0.5851
 9459TIP3    H249793   5.699   1.622   1.772  0.3508  0.8685  0.9656
 9460TIP3   OH249794   5.114   1.300  12.671  0.9817  0.1527  0.0715
 9460TIP3    H149795   5.079   1.365  12.731  0.4502 -1.1055  1.1400
 9460TIP3    H249796   5.207   1.319  12.666  0.8011  1.0997  0.2270
 9461TIP3   OH249797   2.769   2.308  16.432  0.2508 -0.0099 -0.0057
 9461TIP3    H149798   2.675   2.293  16.426  0.3142 -0.4200 -0.0208
 9461TIP3    H249799   2.791   2.353  16.351  0.2709 -1.0204 -0.5709
 9462TIP3   OH249800   5.172   0.738   1.181  0.0566  0.0450  0.1004
 9462TIP3    H149801   5.239   0.803   1.161  0.1914 -0.2890 -0.5676
 9462TIP3    H249802   5.103   0.787   1.227 -0.4784  0.9560 -1.6224
 9463TIP3   OH249803   5.873   5.225  12.362 -0.2102  0.1438  0.1686
 9463TIP3    H149804   5.805   5.292  12.371 -0.3324 -0.2442  2.3611
 9463TIP3    H249805   5.833   5.145  12.396  1.1611 -0.1997  0.9864
 9464TIP3   OH249806   3.442   0.473  12.408  0.3460 -0.1903  0.0203
 9464TIP3    H149807   3.351   0.471  12.439  0.0749 -0.0348 -0.7548
 9464TIP3    H249808   3.486   0.536  12.464  0.2434 -1.1086  1.1415
 9465TIP3   OH249809   5.569   1.024   3.094 -0.0471  0.0570  0.2085
 9465TIP3    H149810   5.623   1.098   3.068 -0.2646 -0.2580 -1.2092
 9465TIP3    H249811   5.509   1.011   3.021 -1.3387 -0.2666  1.3031
 9466TIP3   OH249812   3.362   2.866   1.493 -0.1658 -0.0453  0.3970
 9466TIP3    H149813   3.333   2.957   1.492  0.5047  0.1783  0.7394
 9466TIP3    H249814   3.281   2.815   1.504 -0.5488  0.5017  0.1363
 9467TIP3   OH249815   4.523   4.505  15.986 -0.1962  0.6845  0.1490
 9467TIP3    H149816   4.448   4.445  15.979  2.3942 -2.7811  0.6323
 9467TIP3    H249817   4.546   4.525  15.896  0.0717 -0.6351 -0.0916
 9468TIP3   OH249818   4.284   1.201   0.714 -0.0497 -0.5420 -0.1965
 9468TIP3    H149819   4.372   1.171   0.735  1.1086  1.6470 -1.7844
 9468TIP3    H249820   4.291   1.236   0.625 -2.1992  0.9309  0.1865
 9469TIP3   OH249821   0.410   1.178   3.976  0.5310 -0.6026  0.4072
 9469TIP3    H149822   0.455   1.107   3.930  0.8122 -0.3963  0.3636
 9469TIP3    H249823   0.354   1.218   3.910 -0.2492 -1.3016  0.6299
 9470TIP3   OH249824   2.462   3.466  11.827 -0.6031  0.6602  0.1485
 9470TIP3    H149825   2.382   3.490  11.873 -1.2702 -0.4424 -0.3947
 9470TIP3    H249826   2.442   3.482  11.735 -0.1063  0.6457  0.0381
 9471TIP3   OH249827   5.796   0.169   4.919  0.3470 -0.4099  0.3782
 9471TIP3    H149828   5.756   0.096   4.871  1.2257 -1.3893  1.1077
 9471TIP3    H249829   5.888   0.146   4.925  0.8348  1.2675 -0.2497
 9472TIP3   OH249830   1.987   0.453  12.664  0.2612  0.2381  0.0736
 9472TIP3    H149831   1.911   0.510  12.649  1.3743  2.2579  1.9111
 9472TIP3    H249832   1.999   0.454  12.759  0.0348 -3.4716  0.1925
 9473TIP3   OH249833   3.446   1.282   0.683  0.3660 -0.3503 -0.0030
 9473TIP3    H149834   3.541   1.292   0.689  0.2945 -0.5272  1.6992
 9473TIP3    H249835   3.411   1.367   0.708  0.0932  0.3226 -2.5574
 9474TIP3   OH249836   1.175   6.586   4.031  0.3268  0.0378 -0.1477
 9474TIP3    H149837   1.261   6.627   4.042 -0.5615  1.8023  0.4351
 9474TIP3    H249838   1.159   6.588   3.937  0.7192  0.1154 -0.2132
 9475TIP3   OH249839   0.060   0.351   0.793  0.5946 -0.4207 -0.0958
 9475TIP3    H149840  -0.011   0.398   0.748  0.4506  1.5669  2.1110
 9475TIP3    H249841   0.019   0.270   0.823 -0.7771  0.6873  1.1161
 9476TIP3   OH249842   5.086   2.254  12.874  0.1664  0.3327 -0.2631
 9476TIP3    H149843   5.151   2.313  12.835  2.1311 -0.5037  1.6673
 9476TIP3    H249844   5.053   2.302  12.949 -0.4893  0.2123 -0.4747
 9477TIP3   OH249845   4.008   5.487   0.458  0.1552 -0.0816  0.0589
 9477TIP3    H149846   4.009   5.469   0.364 -2.0783 -1.0498  0.1858
 9477TIP3    H249847   4.084   5.543   0.472  1.8400 -1.7605 -1.9484
 9478TIP3   OH249848   2.960   5.644  14.942  0.3360  0.2181 -0.1194
 9478TIP3    H149849   2.869   5.625  14.921  0.4158 -1.2490  0.8072
 9478TIP3    H249850   3.010   5.598  14.874  0.4145  0.4174 -0.1973
 9479TIP3   OH249851   5.049   4.333  15.120  0.1139 -0.5255  0.0838
 9479TIP3    H149852   5.135   4.343  15.161 -0.2718 -1.7817  1.2131
 9479TIP3    H249853   5.009   4.419  15.130  0.3556 -0.5765  1.5939
 9480TIP3   OH249854   6.256   4.073  15.816 -0.0329 -0.2644 -0.3436
 9480TIP3    H149855   6.221   4.082  15.905 -0.4932  2.5593 -0.7760
 9480TIP3    H249856   6.304   4.154  15.801 -2.7302  0.7908 -3.8737
 9481TIP3   OH249857   4.319   2.899   2.218 -0.2925  0.1888 -0.1068
 9481TIP3    H149858   4.323   2.907   2.122 -1.7084 -2.2048 -0.4200
 9481TIP3    H249859   4.365   2.817   2.236 -2.5567 -0.8845  0.9616
 9482TIP3   OH249860   5.555   0.834  12.271 -0.5812 -0.3163 -0.3877
 9482TIP3    H149861   5.534   0.778  12.196 -0.2188 -0.5761 -0.2984
 9482TIP3    H249862   5.649   0.847  12.265 -0.8203  1.1855 -1.0257
 9483TIP3   OH249863   4.490   6.482  16.991  0.1733 -0.1147  0.0910
 9483TIP3    H149864   4.421   6.429  16.950 -0.4332  0.3247  0.5288
 9483TIP3    H249865   4.496   6.448  17.080  1.6826 -1.2553 -0.4202
 9484TIP3   OH249866   5.111   3.972   5.075 -0.1433  0.5148 -0.2446
 9484TIP3    H149867   5.193   3.923   5.070 -1.4311 -1.6204 -0.9054
 9484TIP3    H249868   5.102   4.013   4.989 -0.2629 -0.0709 -0.5131
 9485TIP3   OH249869   5.759   0.793   1.297  0.2990 -0.5746 -0.1313
 9485TIP3    H149870   5.837   0.761   1.343 -0.3829 -2.0065  0.0413
 9485TIP3    H249871   5.772   0.888   1.291  1.5132 -0.6667  0.9160
 9486TIP3   OH249872   5.397   1.278  12.633 -0.1574  0.1105 -0.3821
 9486TIP3    H149873   5.487   1.293  12.661 -0.5407 -1.3160  1.8158
 9486TIP3    H249874   5.392   1.183  12.621 -1.0713  0.3051 -1.5776
 9487TIP3   OH249875   0.132   4.342   0.936 -0.0643 -0.4522  0.3372
 9487TIP3    H149876   0.165   4.252   0.940  1.7830  0.1058 -1.4224
 9487TIP3    H249877   0.210   4.396   0.950 -1.1955  0.8847  1.6389
 9488TIP3   OH249878   2.240   0.510  16.198 -0.5077  0.0964  0.5127
 9488TIP3    H149879   2.239   0.561  16.118  0.2993  0.7977  0.9360
 9488TIP3    H249880   2.272   0.571  16.265 -0.3890 -0.7076  1.1967
 9489TIP3   OH249881   2.636   3.183  15.505  0.1909  0.2430 -0.0347
 9489TIP3    H149882   2.549   3.181  15.545 -0.2541 -0.5386 -1.0466
 9489TIP3    H249883   2.672   3.096  15.521  0.6382  0.4395  0.0431
 9490TIP3   OH249884   0.075   3.433  15.632 -0.2240  0.3292 -0.0112
 9490TIP3    H149885   0.169   3.416  15.631 -0.2444  0.2143 -0.0373
 9490TIP3    H249886   0.067   3.525  15.609  0.0120  0.9706  2.4233
 9491TIP3   OH249887   4.327   3.115   3.670  0.2783 -0.2905 -0.4745
 9491TIP3    H149888   4.261   3.184   3.677  1.4860  0.8144  0.0286
 9491TIP3    H249889   4.384   3.127   3.745  1.7505 -0.5196 -1.5336
 9492TIP3   OH249890   3.759   5.448   1.362  0.1362  0.1964 -0.2872
 9492TIP3    H149891   3.696   5.377   1.370 -0.4888  0.7052 -0.5682
 9492TIP3    H249892   3.815   5.422   1.289 -0.7017  0.4347 -1.0334
 9493TIP3   OH249893   5.559   4.747  12.321  0.2805 -0.3563 -0.0946
 9493TIP3    H149894   5.492   4.723  12.386 -1.1480  0.8057 -1.0896
 9493TIP3    H249895   5.534   4.700  12.242  0.2648  0.5834 -0.6542
 9494TIP3   OH249896   6.284   6.516   1.379 -0.2225 -0.1716 -0.0801
 9494TIP3    H149897   6.275   6.565   1.461 -1.6166 -0.3793 -0.0997
 9494TIP3    H249898   6.331   6.436   1.404 -0.5665 -0.1938  0.4925
 9495TIP3   OH249899   5.521   6.033  11.744  0.2550 -0.1711  0.3835
 9495TIP3    H149900   5.452   5.978  11.781 -1.1612  1.0658 -0.3716
 9495TIP3    H249901   5.512   6.022  11.649 -0.9155  2.3486  0.1644
 9496TIP3   OH249902   3.245   2.187   1.504  0.4949  0.5684  0.3425
 9496TIP3    H149903   3.240   2.093   1.489  0.0184  0.4677  1.1208
 9496TIP3    H249904   3.285   2.222   1.424  3.1551 -0.5958  1.0942
 9497TIP3   OH249905   1.737   2.537  15.593  0.3379  0.1961  0.2199
 9497TIP3    H149906   1.725   2.546  15.688  1.3936  0.5341  0.3274
 9497TIP3    H249907   1.672   2.471  15.567 -1.4382  1.6537  0.8296
 9498TIP3   OH249908   1.830   2.323   6.068 -0.0463  0.1354  0.1195
 9498TIP3    H149909   1.780   2.400   6.092 -2.1489 -1.5045  1.1682
 9498TIP3    H249910   1.820   2.316   5.973  0.9810  1.6725 -0.1232
 9499TIP3   OH249911   4.646   2.313   3.457 -0.2137  0.1960 -0.2450
 9499TIP3    H149912   4.611   2.352   3.377  0.7902  0.3027 -0.6373
 9499TIP3    H249913   4.586   2.343   3.526 -2.3684 -1.6934 -1.2405
 9500TIP3   OH249914   6.357   4.160  16.769  0.0543  0.0606  0.0287
 9500TIP3    H149915   6.412   4.161  16.847  2.2181  0.2558 -1.4425
 9500TIP3    H249916   6.285   4.101  16.791  1.8761 -1.7549  1.3598
 9501TIP3   OH249917   0.244   1.952  14.474 -0.1040  0.2262  0.4376
 9501TIP3    H149918   0.269   2.025  14.417  0.7575 -0.4422 -0.0489
 9501TIP3    H249919   0.309   1.952  14.544  0.1052 -0.2916  0.2461
 9502TIP3   OH249920   3.652   6.377   2.623 -0.2023 -0.2089 -0.1388
 9502TIP3    H149921   3.743   6.370   2.595 -0.3367  1.6220 -1.1427
 9502TIP3    H249922   3.656   6.383   2.718  0.8801  1.5546 -0.2655
 9503TIP3   OH249923   2.494   5.118  13.312  0.1757  0.2805 -0.3930
 9503TIP3    H149924   2.559   5.184  13.287 -0.4021  0.2556 -2.0039
 9503TIP3    H249925   2.412   5.167  13.321 -0.2679 -0.2084 -1.6544
 9504TIP3   OH249926   6.674   1.377   4.495 -0.1702 -0.3013 -0.3624
 9504TIP3    H149927   6.677   1.362   4.400  0.3447 -0.9975 -0.2410
 9504TIP3    H249928   6.748   1.435   4.512 -1.4151  1.4089 -0.6537
 9505TIP3   OH249929   5.053   5.883  16.738 -0.4352  0.3653 -0.3806
 9505TIP3    H149930   5.034   5.789  16.734  0.1965  0.3020 -2.4228
 9505TIP3    H249931   5.082   5.897  16.828 -0.4360 -1.4298 -0.0736
 9506TIP3   OH249932   5.593   3.180  15.336  0.0992  0.1347 -0.7339
 9506TIP3    H149933   5.519   3.148  15.388  2.3085 -2.0624  1.1660
 9506TIP3    H249934   5.620   3.260  15.381  0.7856 -0.7218  0.4116
 9507TIP3   OH249935   2.350   1.941  14.674 -0.2392 -0.0641 -1.1146
 9507TIP3    H149936   2.370   1.956  14.766 -2.9171  0.0056 -0.5019
 9507TIP3    H249937   2.356   2.028  14.634  1.0173 -0.1073 -1.0658
 9508TIP3   OH249938   5.595   5.620   1.329 -0.4533  0.4529 -0.3812
 9508TIP3    H149939   5.582   5.669   1.410  1.0135  1.1268 -0.5405
 9508TIP3    H249940   5.620   5.532   1.357 -0.6273  0.4891 -0.1081
 9509TIP3   OH249941   3.909   3.296   5.270  0.1324  0.1335 -0.7294
 9509TIP3    H149942   3.818   3.324   5.273 -0.4470 -1.6385 -1.1741
 9509TIP3    H249943   3.959   3.377   5.257 -1.3240  1.1686  0.0532
 9510TIP3   OH249944   3.136   5.158   2.916  0.2598  0.4639  0.2715
 9510TIP3    H149945   3.056   5.149   2.865  0.2720  2.4411 -0.1293
 9510TIP3    H249946   3.170   5.244   2.893  1.1378  0.7210  2.3906
 9511TIP3   OH249947   1.232   2.337  13.740  0.2131 -0.6347 -0.1646
 9511TIP3    H149948   1.221   2.250  13.701 -1.2508 -0.1083 -1.0033
 9511TIP3    H249949   1.322   2.361  13.719 -0.4144 -0.5110 -3.0217
 9512TIP3   OH249950   4.171   6.278   2.741 -0.5440 -0.5355  0.2201
 9512TIP3    H149951   4.198   6.256   2.652 -1.1586 -1.0835  0.1673
 9512TIP3    H249952   4.220   6.358   2.762  2.5237 -2.4443  0.7846
 9513TIP3   OH249953   2.230   2.434   0.553  0.1976  0.5882  0.3030
 9513TIP3    H149954   2.263   2.363   0.609 -0.2080  0.4932  0.4172
 9513TIP3    H249955   2.278   2.512   0.583  0.1989  0.4811  0.5820
 9514TIP3   OH249956   2.090   4.907  12.780  0.5511 -0.4010  0.0646
 9514TIP3    H149957   2.107   4.998  12.805  2.7779 -0.5940 -0.6811
 9514TIP3    H249958   2.172   4.876  12.742 -0.9155 -1.9771 -1.9556
 9515TIP3   OH249959   2.366   0.563  16.827  0.2983  0.1052  0.6497
 9515TIP3    H149960   2.406   0.545  16.912  0.7423 -0.1332  0.3941
 9515TIP3    H249961   2.434   0.609  16.778 -0.0655  0.5239  0.5337
 9516TIP3   OH249962   6.131   3.407  16.230 -0.9239 -0.0931  0.0226
 9516TIP3    H149963   6.090   3.446  16.154 -0.7104  1.0882  0.5074
 9516TIP3    H249964   6.216   3.376  16.199 -0.3751  1.3728  0.0216
 9517TIP3   OH249965   4.789   3.450  15.593  0.3941 -0.4155 -0.0257
 9517TIP3    H149966   4.873   3.463  15.637  0.0146 -0.9874  0.8791
 9517TIP3    H249967   4.724   3.486  15.653  0.0698  1.1590 -1.2579
 9518TIP3   OH249968   3.296   1.624   4.296 -0.5251  0.0087 -0.5039
 9518TIP3    H149969   3.381   1.584   4.281  0.5302  1.2637  1.9442
 9518TIP3    H249970   3.312   1.718   4.289 -1.4124  0.3163  1.2805
 9519TIP3   OH249971   2.794   3.809   4.048 -0.3179 -0.2602 -0.4241
 9519TIP3    H149972   2.771   3.856   3.968 -0.6929 -0.5532 -0.4961
 9519TIP3    H249973   2.710   3.773   4.079 -0.3060  0.5183  0.5317
 9520TIP3   OH249974   0.317   2.340   1.472  0.4077 -0.0431  0.0750
 9520TIP3    H149975   0.289   2.420   1.428  0.2646 -0.3835 -0.4678
 9520TIP3    H249976   0.316   2.362   1.565 -2.3242 -0.2300  0.1303
 9521TIP3   OH249977   3.923   6.710   4.480 -0.7159  0.4576 -0.3175
 9521TIP3    H149978   3.875   6.662   4.547 -2.0058 -1.7121 -2.7015
 9521TIP3    H249979   3.888   6.799   4.485 -2.7834 -0.3409  0.0818
 9522TIP3   OH249980   4.548   4.683  14.070  0.2272  0.0068  0.2736
 9522TIP3    H149981   4.542   4.676  14.165 -1.1760 -1.5699  0.1054
 9522TIP3    H249982   4.545   4.777  14.053 -1.8506  0.2373  1.6832
 9523TIP3   OH249983   3.043   0.150  10.597 -0.1386 -0.2020 -0.8114
 9523TIP3    H149984   3.042   0.081  10.663  1.9544 -0.2383 -0.7646
 9523TIP3    H249985   2.954   0.152  10.563 -0.2796 -2.8792 -0.7511
 9524TIP3   OH249986   4.468   6.001   3.835 -0.1727 -0.4072 -0.0284
 9524TIP3    H149987   4.507   6.073   3.785 -1.1757  0.0501 -0.1788
 9524TIP3    H249988   4.524   5.992   3.912 -1.2433  1.9977  1.0895
 9525TIP3   OH249989   3.187   0.235  12.521 -0.0292  0.0546  0.0428
 9525TIP3    H149990   3.118   0.174  12.494  0.7741 -0.7710 -0.1396
 9525TIP3    H249991   3.269   0.190  12.502  0.5904  1.3970 -0.5893
 9526TIP3   OH249992   3.386   5.629   0.134 -0.1863 -0.2293 -0.7118
 9526TIP3    H149993   3.357   5.603   0.047 -0.3928  1.9461 -1.3251
 9526TIP3    H249994   3.475   5.662   0.121 -0.5061  0.8500 -0.2515
 9527TIP3   OH249995   0.764   3.186  13.524 -0.3410  0.0211  0.1183
 9527TIP3    H149996   0.682   3.231  13.506  0.1070  1.0281  0.5416
 9527TIP3    H249997   0.794   3.222  13.608  0.5302 -0.3195 -0.0325
 9528TIP3   OH249998   2.773   2.745   3.763 -0.0606 -0.1813  0.2461
 9528TIP3    H149999   2.854   2.772   3.807  0.1239 -2.3757  1.3558
 9528TIP3    H250000   2.767   2.651   3.781 -1.4400 -0.5752 -2.1452
 9529TIP3   OH250001   2.626   4.416   3.691  0.0077  0.0590 -0.5058
 9529TIP3    H150002   2.603   4.472   3.765  1.2275  0.4906 -0.4448
 9529TIP3    H250003   2.626   4.474   3.615  0.4368 -0.0264 -0.5748
 9530TIP3   OH250004   0.995   5.009  12.413 -0.2043  0.0837 -0.0260
 9530TIP3    H150005   0.929   5.078  12.403  1.7259  1.9373 -0.1746
 9530TIP3    H250006   1.009   4.977  12.324 -0.2786  0.2556 -0.0996
 9531TIP3   OH250007   5.222   4.880   4.021  0.4104 -0.2075  0.3469
 9531TIP3    H150008   5.166   4.878   3.944 -1.3818 -2.4781  1.6635
 9531TIP3    H250009   5.257   4.791   4.027  1.1489  0.1649  1.7262
 9532TIP3   OH250010   6.035   1.737   4.951 -0.5361 -0.0057 -0.1304
 9532TIP3    H150011   5.958   1.687   4.979 -1.5766  0.7122 -1.6725
 9532TIP3    H250012   6.010   1.774   4.867  1.7310 -0.2666 -0.9383
 9533TIP3   OH250013   0.439   5.480   1.926 -0.1744 -0.5096  0.1330
 9533TIP3    H150014   0.390   5.544   1.978 -0.8529 -0.9308  0.0223
 9533TIP3    H250015   0.380   5.459   1.853  0.2302 -0.9253 -0.0737
 9534TIP3   OH250016   0.339   4.553   1.723 -0.2392 -1.0461 -0.1938
 9534TIP3    H150017   0.289   4.625   1.682 -3.2510 -1.8345  1.9083
 9534TIP3    H250018   0.398   4.597   1.784  0.0682 -0.1928 -1.0919
 9535TIP3   OH250019   3.262   4.752  15.492  0.2558  0.0837  0.1961
 9535TIP3    H150020   3.276   4.834  15.539 -0.9240  0.8725 -0.7729
 9535TIP3    H250021   3.326   4.754  15.421  0.7372 -0.1940  0.6224
 9536TIP3   OH250022   6.680   3.023   2.279  0.0723 -0.9676  0.7869
 9536TIP3    H150023   6.587   2.998   2.279 -0.0857 -0.3886 -0.0120
 9536TIP3    H250024   6.709   3.008   2.190  0.6072 -0.6011  0.9006
 9537TIP3   OH250025   6.086   6.058   4.578  0.1406  0.2644 -0.2951
 9537TIP3    H150026   6.087   6.059   4.674  0.6487 -0.7488 -0.2846
 9537TIP3    H250027   6.178   6.068   4.553 -0.0193  0.7916 -0.6860
 9538TIP3   OH250028   6.461   3.625   2.335 -0.2918  0.0846  0.6706
 9538TIP3    H150029   6.438   3.552   2.393 -0.8544  0.8295  1.4017
 9538TIP3    H250030   6.553   3.643   2.355  0.1597 -1.1022 -0.2732
 9539TIP3   OH250031   3.321   4.458  12.844 -0.2154 -0.2584  0.0238
 9539TIP3    H150032   3.373   4.481  12.921 -1.0371  1.5369  0.0906
 9539TIP3    H250033   3.230   4.467  12.874 -0.5442  0.9042 -1.2486
 9540TIP3   OH250034   3.202   3.173   1.589 -0.6917  0.4710 -0.4271
 9540TIP3    H150035   3.140   3.111   1.549  0.9598 -1.6838  0.2518
 9540TIP3    H250036   3.209   3.244   1.525  0.0219 -1.7279 -2.8905
 9541TIP3   OH250037   6.541   6.347   3.760  0.7444  0.2438  0.0919
 9541TIP3    H150038   6.590   6.269   3.786  1.5707  0.4853 -0.7045
 9541TIP3    H250039   6.450   6.318   3.754  0.8603 -0.3437  1.0519
 9542TIP3   OH250040   5.515   1.852   0.486  0.4309  0.1214  0.1110
 9542TIP3    H150041   5.444   1.825   0.545  1.5967  0.3701  1.6508
 9542TIP3    H250042   5.549   1.933   0.524  0.1982  1.1359 -1.7663
 9543TIP3   OH250043   2.229   4.696   2.271 -0.3919  0.2761 -0.0674
 9543TIP3    H150044   2.147   4.656   2.301 -1.1204  1.2924 -0.6616
 9543TIP3    H250045   2.257   4.641   2.198 -0.1214 -0.5360  0.6426
 9544TIP3   OH250046   5.830   5.476   4.156 -0.3563 -0.1734 -0.5609
 9544TIP3    H150047   5.765   5.454   4.089 -0.4653  2.2848 -1.3227
 9544TIP3    H250048   5.886   5.399   4.161 -3.1065 -2.2393 -0.1014
 9545TIP3   OH250049   3.529   4.340  10.988  0.3240 -0.3815  0.2157
 9545TIP3    H150050   3.616   4.303  11.004 -0.6115 -2.1916  1.2515
 9545TIP3    H250051   3.513   4.324  10.895  1.0336 -0.1591  0.0474
 9546TIP3   OH250052   4.374   4.383   4.870 -0.0655  0.1156 -0.4086
 9546TIP3    H150053   4.311   4.407   4.937  0.1586  0.7931 -0.4324
 9546TIP3    H250054   4.450   4.351   4.918  0.0904  0.5899 -0.3399
 9547TIP3   OH250055   2.767   5.001   2.970 -0.0387 -0.8137 -0.2130
 9547TIP3    H150056   2.802   5.029   2.885 -1.8259  0.5392 -0.5201
 9547TIP3    H250057   2.836   5.023   3.033  0.5212 -0.0976 -1.0742
 9548TIP3   OH250058   4.858   6.467  10.226  0.0270  0.2003 -0.1371
 9548TIP3    H150059   4.877   6.502  10.139 -0.5744 -1.7557 -1.0910
 9548TIP3    H250060   4.943   6.435  10.258  0.8894  3.8188  1.3941
 9549TIP3   OH250061   3.184   2.388  14.262 -0.5428  0.1542 -0.2268
 9549TIP3    H150062   3.195   2.465  14.317 -0.9113  0.5410 -0.6874
 9549TIP3    H250063   3.092   2.364  14.271 -0.1787 -0.9101  0.7905
 9550TIP3   OH250064   0.922   1.555  12.690  0.0866  0.6083  0.2419
 9550TIP3    H150065   0.971   1.583  12.768 -0.9698 -0.0763  1.1696
 9550TIP3    H250066   0.833   1.588  12.705 -1.1671 -3.0046  1.2788
 9551TIP3   OH250067   4.159   0.380  15.744 -0.2429 -0.5906 -0.0045
 9551TIP3    H150068   4.196   0.329  15.816  0.6819  1.2100  0.8395
 9551TIP3    H250069   4.143   0.317  15.675  1.5812 -1.8947  0.7308
 9552TIP3   OH250070   5.247   2.630   1.196  0.9651 -0.6281  0.6594
 9552TIP3    H150071   5.181   2.699   1.189 -1.8350 -3.1988  1.0479
 9552TIP3    H250072   5.292   2.648   1.279  2.4254  2.4783 -0.7045
 9553TIP3   OH250073   3.361   2.746   5.308  0.3904 -0.1857  0.6493
 9553TIP3    H150074   3.333   2.690   5.236 -3.5150  0.8832  1.2508
 9553TIP3    H250075   3.405   2.820   5.266 -3.7799  1.5403 -0.9080
 9554TIP3   OH250076   0.045   6.386  16.268 -0.1354 -0.5369  0.3590
 9554TIP3    H150077   0.065   6.406  16.176 -0.3796  0.8629  0.5964
 9554TIP3    H250078  -0.019   6.452  16.293  0.9339 -0.0653  1.9259
 9555TIP3   OH250079   2.768   5.500   0.130 -0.4205 -0.0333 -0.2241
 9555TIP3    H150080   2.824   5.571   0.158 -1.4058 -0.0601  1.9437
 9555TIP3    H250081   2.828   5.429   0.108  0.4630  0.5424  0.3014
 9556TIP3   OH250082   5.716   5.357  11.936 -0.8892  0.5426  0.5277
 9556TIP3    H150083   5.661   5.388  11.863  0.1141 -0.1484 -0.5369
 9556TIP3    H250084   5.654   5.318  11.997 -1.6317 -0.0821 -0.5905
 9557TIP3   OH250085   2.248   1.721   3.358 -0.1224  0.0912 -0.2891
 9557TIP3    H150086   2.185   1.771   3.306 -0.9217 -0.4771  0.1232
 9557TIP3    H250087   2.308   1.787   3.393 -1.8804  0.9208  1.2432
 9558TIP3   OH250088   3.621   0.149  14.040  0.7864 -0.0780  0.6226
 9558TIP3    H150089   3.690   0.117  13.982  1.7437  0.6897  1.3370
 9558TIP3    H250090   3.623   0.244  14.031 -1.5154 -0.1298 -0.8615
 9559TIP3   OH250091   5.593   3.867   5.466 -0.0122 -0.2308 -0.0338
 9559TIP3    H150092   5.620   3.781   5.436 -0.5053  0.1124 -1.4961
 9559TIP3    H250093   5.569   3.914   5.387  0.9285  1.4968  0.6691
 9560TIP3   OH250094   2.482   0.446   4.600  0.1317  0.0948  0.4941
 9560TIP3    H150095   2.410   0.509   4.612 -1.0851 -1.2346  0.3219
 9560TIP3    H250096   2.543   0.466   4.671  0.5961  2.5739 -0.5521
 9561TIP3   OH250097   2.038   5.091   1.228  0.4889  0.0863 -0.3774
 9561TIP3    H150098   1.983   5.083   1.150  0.4048 -1.5214 -0.1508
 9561TIP3    H250099   1.990   5.151   1.285 -1.3393 -1.7513  0.0748
 9562TIP3   OH250100   4.530   1.115  16.113  0.5081  0.3798 -0.5753
 9562TIP3    H150101   4.613   1.116  16.162  1.1596  1.2400 -1.6848
 9562TIP3    H250102   4.529   1.029  16.070  0.8872  0.4187 -0.6658
 9563TIP3   OH250103   3.790   6.211   4.271 -0.2970 -0.9244 -0.1289
 9563TIP3    H150104   3.741   6.282   4.312 -1.2944 -1.0153 -1.1162
 9563TIP3    H250105   3.861   6.192   4.332  0.3864  1.3624 -0.1644
 9564TIP3   OH250106   5.221   0.413   1.667 -0.1143  0.9064  0.6246
 9564TIP3    H150107   5.273   0.350   1.717 -2.4647 -0.2024  1.7541
 9564TIP3    H250108   5.235   0.497   1.711  1.9883  0.9508 -0.0903
 9565TIP3   OH250109   0.665   6.300   5.159 -0.5373  0.3333 -0.0369
 9565TIP3    H150110   0.700   6.216   5.190 -2.1821 -0.4416 -0.2475
 9565TIP3    H250111   0.603   6.276   5.090 -0.6845  1.7558 -0.4126
 9566TIP3   OH250112   2.039   1.973   5.818 -0.1431 -0.7219  0.3534
 9566TIP3    H150113   1.981   2.006   5.750  0.1070  0.6347  0.7697
 9566TIP3    H250114   2.113   2.035   5.818 -1.2951  0.7817  3.5106
 9567TIP3   OH250115   4.740   4.057  10.524  0.1665  0.3535 -0.0872
 9567TIP3    H150116   4.735   3.977  10.576 -0.2547  0.0950 -0.5325
 9567TIP3    H250117   4.662   4.107  10.549 -0.5123 -0.1740 -1.1490
 9568TIP3   OH250118   2.932   4.492   1.578 -0.5782  0.0163 -0.3935
 9568TIP3    H150119   2.913   4.583   1.555  1.2428  0.3935 -0.4750
 9568TIP3    H250120   2.846   4.453   1.595 -1.2864  2.1307  1.0760
 9569TIP3   OH250121   3.528   5.439  11.632  0.4537  0.7822  0.0460
 9569TIP3    H150122   3.574   5.502  11.686  0.7471  0.0623  0.6496
 9569TIP3    H250123   3.506   5.487  11.552  0.1907  1.7884  0.7175
 9570TIP3   OH250124   6.016   1.081  16.436  0.1570 -0.6654  0.2465
 9570TIP3    H150125   6.077   1.106  16.505 -0.5676  0.0193  0.6542
 9570TIP3    H250126   5.952   1.025  16.480  1.0854 -2.2488 -0.4055
 9571TIP3   OH250127   3.522   1.141  13.970  0.2610 -0.4060  0.1743
 9571TIP3    H150128   3.437   1.113  14.005 -0.4144  0.3426 -0.8168
 9571TIP3    H250129   3.586   1.087  14.016 -0.7555 -0.9876  0.9344
 9572TIP3   OH250130   4.452   2.472   2.801 -0.3378 -0.4436  0.8144
 9572TIP3    H150131   4.372   2.422   2.820 -0.6400 -1.3089 -2.4404
 9572TIP3    H250132   4.523   2.417   2.835 -0.8944 -1.5004  0.3115
 9573TIP3   OH250133   2.911   0.395  12.780  0.2181 -0.0427  0.1580
 9573TIP3    H150134   2.919   0.486  12.749  0.5300 -0.6929 -1.7348
 9573TIP3    H250135   3.001   0.368  12.800  0.1455  0.0069  0.5529
 9574TIP3   OH250136   1.078   2.146  12.385 -0.4319 -0.6472  0.2782
 9574TIP3    H150137   1.085   2.056  12.417  3.1154  0.0855  1.8919
 9574TIP3    H250138   1.077   2.138  12.290  3.2584 -2.3292  0.2884
 9575TIP3   OH250139   4.896   0.348   5.779 -0.2911  0.2905 -0.0926
 9575TIP3    H150140   4.829   0.337   5.847  0.6447 -1.7790  0.5282
 9575TIP3    H250141   4.973   0.304   5.814  1.3001  2.2790 -0.9918
 9576TIP3   OH250142   3.899   0.143   1.674  0.1550  0.4839  0.2515
 9576TIP3    H150143   3.944   0.204   1.616 -0.7588  0.9323  0.0044
 9576TIP3    H250144   3.963   0.125   1.744  0.8671  0.7718 -0.3142
 9577TIP3   OH250145   3.124   3.515  11.139 -0.3474 -0.0040 -0.0098
 9577TIP3    H150146   3.038   3.535  11.176  0.0897  1.6902  0.1276
 9577TIP3    H250147   3.119   3.545  11.049 -0.1654 -0.6583 -0.2388
 9578TIP3   OH250148   3.518   1.150  14.594 -0.1885  0.0350  0.4022
 9578TIP3    H150149   3.593   1.208  14.609 -0.6785  0.0645  2.9553
 9578TIP3    H250150   3.444   1.209  14.582  0.0309 -0.0100 -1.2326
 9579TIP3   OH250151   1.262   4.946   1.120  0.4763 -0.5043 -0.7291
 9579TIP3    H150152   1.333   4.922   1.061 -0.9086 -0.4803 -2.4445
 9579TIP3    H250153   1.194   4.880   1.105 -1.1508  1.2818 -1.4817
 9580TIP3   OH250154   0.264   2.314  15.056 -0.2615  0.1576 -0.4625
 9580TIP3    H150155   0.199   2.379  15.082  0.5805  0.6371  0.4533
 9580TIP3    H250156   0.227   2.274  14.977 -1.1050  1.2656 -0.6446
 9581TIP3   OH250157   2.559   0.113  14.749 -0.1505  0.4029  0.0228
 9581TIP3    H150158   2.630   0.049  14.737  0.1240  0.0034  3.4904
 9581TIP3    H250159   2.488   0.081  14.693  0.6683 -1.8927  0.2609
 9582TIP3   OH250160   3.452   5.608   4.873 -0.2288  0.5933  0.0745
 9582TIP3    H150161   3.541   5.599   4.908 -0.6016 -2.2697  0.4081
 9582TIP3    H250162   3.398   5.555   4.932 -1.6134 -0.4154 -2.0617
 9583TIP3   OH250163   3.832   0.531   2.905 -0.3103  0.2943 -0.2363
 9583TIP3    H150164   3.771   0.461   2.927  0.2868  0.5879  2.5969
 9583TIP3    H250165   3.901   0.489   2.855 -0.7747 -0.8232  0.0551
 9584TIP3   OH250166   1.201   4.345   2.477 -0.2855 -0.7167 -0.6893
 9584TIP3    H150167   1.248   4.370   2.556  0.2703  0.2995 -1.3367
 9584TIP3    H250168   1.260   4.368   2.406 -2.0222  1.2825 -1.5531
 9585TIP3   OH250169   4.941   2.491  16.811  0.2706  0.1724  0.0402
 9585TIP3    H150170   4.983   2.441  16.742  1.3862 -0.3919  1.1065
 9585TIP3    H250171   4.864   2.529  16.770  1.4675  0.6974 -1.7962
 9586TIP3   OH250172   0.654   0.765  12.155 -0.2581 -0.2040  0.1046
 9586TIP3    H150173   0.716   0.692  12.147 -0.6607 -0.4696 -0.6063
 9586TIP3    H250174   0.621   0.779  12.066  1.1788  2.0556 -0.1128
 9587TIP3   OH250175   2.676   2.346  13.334 -0.1507  0.1550  0.8356
 9587TIP3    H150176   2.585   2.347  13.366 -0.3780  3.4347  0.2147
 9587TIP3    H250177   2.728   2.376  13.409  0.1016  0.9003  0.3704
 9588TIP3   OH250178   5.379   5.208   2.451  0.4842  0.3548  0.6900
 9588TIP3    H150179   5.311   5.184   2.387  1.1640 -1.0842  0.4930
 9588TIP3    H250180   5.339   5.190   2.536  0.4141  0.0756  0.5973
 9589TIP3   OH250181   1.822   2.206  12.197  0.5695  0.5227  0.7125
 9589TIP3    H150182   1.733   2.237  12.215  1.0561  1.8358  0.9678
 9589TIP3    H250183   1.877   2.259  12.255  1.6423  0.6557 -0.4190
 9590TIP3   OH250184   5.205   6.495  16.371 -0.5003  0.1517  0.1311
 9590TIP3    H150185   5.283   6.477  16.319  0.0327 -0.0195  0.9931
 9590TIP3    H250186   5.217   6.585  16.402 -0.6375  0.1158  0.2885
 9591TIP3   OH250187   5.246   3.495   0.726  0.2129 -0.4705  0.3264
 9591TIP3    H150188   5.186   3.458   0.790  0.7693 -0.3561  0.9260
 9591TIP3    H250189   5.264   3.424   0.665  1.8535 -1.4395  1.8873
 9592TIP3   OH250190   3.078   1.168  14.529  0.2458  0.3711  0.3216
 9592TIP3    H150191   3.130   1.090  14.508  0.3164  0.2144  1.0519
 9592TIP3    H250192   3.129   1.241  14.496  0.7070  0.1865  0.6261
 9593TIP3   OH250193   1.417   2.542  11.844  0.4066  0.0676  0.2624
 9593TIP3    H150194   1.341   2.483  11.846  0.7422 -0.3984 -0.5158
 9593TIP3    H250195   1.483   2.495  11.793  0.7675  1.0127 -0.1654
 9594TIP3   OH250196   5.381   5.160  15.925  0.0765  0.5573  0.2465
 9594TIP3    H150197   5.413   5.104  15.996  1.2339  3.1529  1.8563
 9594TIP3    H250198   5.459   5.207  15.895 -1.3822  3.7251  1.2136
 9595TIP3   OH250199   4.804   3.926  16.221 -0.6183 -0.4782 -0.5625
 9595TIP3    H150200   4.712   3.914  16.199 -0.7639 -0.8503  0.2417
 9595TIP3    H250201   4.833   3.997  16.163 -2.3166  2.0833  1.6287
 9596TIP3   OH250202   5.658   1.370   5.819  0.0569 -0.2042  0.0452
 9596TIP3    H150203   5.714   1.406   5.888  0.4667 -0.9985  0.1267
 9596TIP3    H250204   5.720   1.335   5.754 -0.3372 -0.2929 -0.2863
 9597TIP3   OH250205   5.505   0.732  10.835 -0.2713  0.6247  0.0775
 9597TIP3    H150206   5.532   0.705  10.747  0.0651 -1.1364  0.6927
 9597TIP3    H250207   5.582   0.776  10.871 -0.3554  1.2052 -0.4519
 9598TIP3   OH250208   4.125   4.838   2.031  0.1432 -0.8586 -0.1728
 9598TIP3    H150209   4.115   4.761   2.088  0.8710 -0.2300  0.8370
 9598TIP3    H250210   4.209   4.825   1.988 -0.0155 -0.9300 -0.4558
 9599TIP3   OH250211   2.127   4.659   6.137 -0.4388 -0.0818  0.1407
 9599TIP3    H150212   2.192   4.671   6.206 -1.3188 -0.8710  1.1326
 9599TIP3    H250213   2.046   4.695   6.174 -0.1246  2.8200 -1.8720
 9600TIP3   OH250214   5.632   5.721  15.378 -0.4018  0.1638  0.0945
 9600TIP3    H150215   5.572   5.757  15.443  2.4629  1.0496  2.3854
 9600TIP3    H250216   5.656   5.796  15.323  0.1460  0.2443  0.4431
 9601TIP3   OH250217   1.762   3.350  15.590  0.2140  0.1332  0.3363
 9601TIP3    H150218   1.731   3.261  15.605 -1.6284  0.6983 -0.0678
 9601TIP3    H250219   1.734   3.400  15.667  0.1720  0.6369  0.0022
 9602TIP3   OH250220   6.634   5.154   3.781  0.0473 -0.2907 -0.5589
 9602TIP3    H150221   6.642   5.245   3.807  0.1576 -0.0268 -1.5070
 9602TIP3    H250222   6.551   5.125   3.820  0.5539 -0.1217  0.6847
 9603TIP3   OH250223   5.011   5.293  17.041  0.3286  0.1701 -0.5588
 9603TIP3    H150224   5.044   5.203  17.042 -2.0070 -0.7042  0.9067
 9603TIP3    H250225   5.010   5.317  16.949 -0.7347 -1.9657 -1.1323
 9604TIP3   OH250226   3.277   2.214  16.034  0.1976 -0.1749 -0.1462
 9604TIP3    H150227   3.206   2.245  16.090 -0.1110  0.0646 -0.6638
 9604TIP3    H250228   3.272   2.270  15.956 -1.5005 -2.6790 -1.9031
 9605TIP3   OH250229   1.422   3.267   2.841  0.3577  0.5614  0.3081
 9605TIP3    H150230   1.468   3.183   2.842 -0.1411  0.2897  0.3591
 9605TIP3    H250231   1.356   3.260   2.909  0.2315  0.9516  0.2300
 9606TIP3   OH250232   1.208   0.383  15.120 -0.3513  0.3879  0.7065
 9606TIP3    H150233   1.230   0.416  15.207  0.4234 -0.4777  0.8459
 9606TIP3    H250234   1.241   0.450  15.060  0.2653  0.3659  1.0239
 9607TIP3   OH250235   2.930   1.572  12.646 -0.2173 -0.0650  0.3425
 9607TIP3    H150236   2.980   1.629  12.588  1.1795 -0.4685  1.1241
 9607TIP3    H250237   2.892   1.632  12.711 -0.8851  0.2574 -0.3387
 9608TIP3   OH250238   1.681   2.503  12.727 -0.5267 -0.0532  0.0622
 9608TIP3    H150239   1.738   2.497  12.804  1.8438  2.0119 -1.4658
 9608TIP3    H250240   1.691   2.594  12.697 -2.1581 -0.5655 -2.1557
 9609TIP3   OH250241   6.398   0.770  15.358 -0.2217  0.2869 -0.1013
 9609TIP3    H150242   6.310   0.788  15.325  0.4494 -0.4127 -2.3537
 9609TIP3    H250243   6.448   0.748  15.280  1.0242 -3.0840  1.5936
 9610TIP3   OH250244   0.774   6.181   2.970 -0.7224  0.1085 -0.2047
 9610TIP3    H150245   0.842   6.114   2.975 -2.9574 -2.1633  0.9319
 9610TIP3    H250246   0.765   6.200   2.877 -1.7868 -3.1046 -0.8144
 9611TIP3   OH250247   1.758   6.016   4.992  0.3136  0.2200  0.2399
 9611TIP3    H150248   1.810   5.941   4.967 -0.0274 -0.5419  1.7904
 9611TIP3    H250249   1.780   6.033   5.084 -1.5381  0.3682  0.6925
 9612TIP3   OH250250   2.521   4.604  13.442  0.1039 -0.4344  0.5150
 9612TIP3    H150251   2.600   4.653  13.465 -0.8047  1.7150 -0.7327
 9612TIP3    H250252   2.511   4.618  13.348 -0.3905 -2.7812  0.1885
 9613TIP3   OH250253   4.168   6.398   1.973  0.3507 -0.2267 -0.2745
 9613TIP3    H150254   4.163   6.342   2.050 -1.8918 -0.9024 -0.8718
 9613TIP3    H250255   4.173   6.487   2.009 -0.4902 -0.5417  0.6563
 9614TIP3   OH250256   0.451   1.511  12.403  0.0185 -0.4256  0.5110
 9614TIP3    H150257   0.394   1.505  12.326 -1.2387 -0.4453  1.4196
 9614TIP3    H250258   0.534   1.545  12.370 -0.4328 -0.6808 -0.8898
 9615TIP3   OH250259   5.743   5.408  14.323 -0.1781 -0.0569  0.2487
 9615TIP3    H150260   5.777   5.475  14.381 -0.6731 -0.4957  1.0473
 9615TIP3    H250261   5.717   5.456  14.244 -1.3189  0.8200  1.1388
 9616TIP3   OH250262   2.153   4.052  12.231  0.7809  0.2288 -0.3508
 9616TIP3    H150263   2.217   4.060  12.303  1.2313  1.9460 -0.9080
 9616TIP3    H250264   2.126   4.142  12.214 -1.6076 -0.4690 -0.3095
 9617TIP3   OH250265   4.431   5.534  16.369 -0.4699  0.8750  0.0483
 9617TIP3    H150266   4.513   5.512  16.415 -0.3393  1.9081  0.3324
 9617TIP3    H250267   4.422   5.466  16.302 -0.2037 -0.1512  1.0322
 9618TIP3   OH250268   3.242   3.467  17.070  0.0488  0.4219  0.0823
 9618TIP3    H150269   3.190   3.400  17.113 -0.2885  0.3377 -0.4456
 9618TIP3    H250270   3.265   3.428  16.985  0.9268  0.4769  0.2842
 9619TIP3   OH250271   2.156   0.272   5.614  0.3094  0.0707  0.1374
 9619TIP3    H150272   2.201   0.320   5.545  0.8228 -1.0608 -0.3151
 9619TIP3    H250273   2.153   0.181   5.583 -1.3969 -0.0584  0.6002
 9620TIP3   OH250274   6.652   4.810   3.973  0.9401  0.1023 -0.1364
 9620TIP3    H150275   6.628   4.737   4.031 -1.5759  0.5231 -0.5982
 9620TIP3    H250276   6.684   4.878   4.033  1.8384 -0.7887  0.4217
 9621TIP3   OH250277   6.115   0.250   5.178  0.3021 -0.6751 -0.0271
 9621TIP3    H150278   6.056   0.198   5.232  1.0273 -0.9127  0.5551
 9621TIP3    H250279   6.074   0.336   5.172 -0.5050 -1.0778 -0.3198
 9622TIP3   OH250280   1.126   3.080   3.280 -0.8217  0.5740  0.1602
 9622TIP3    H150281   1.169   3.020   3.340  1.7649  2.9363  0.7477
 9622TIP3    H250282   1.038   3.091   3.316 -0.1458 -0.0486  2.0646
 9623TIP3   OH250283   5.576   0.410  15.256  0.0298 -0.1942  0.0157
 9623TIP3    H150284   5.551   0.485  15.310  1.0761  0.1357  0.0394
 9623TIP3    H250285   5.511   0.409  15.185  0.0158  0.7204  0.0183
 9624TIP3   OH250286   1.190   3.616  15.097  0.5679  0.6561  0.4462
 9624TIP3    H150287   1.232   3.558  15.161 -0.3496 -0.2471  0.2416
 9624TIP3    H250288   1.153   3.557  15.032 -0.4568  1.4769  0.2795
 9625TIP3   OH250289   6.688   3.157   0.821 -0.1467  0.2888 -0.2497
 9625TIP3    H150290   6.707   3.114   0.737 -2.6814 -0.4748 -0.4636
 9625TIP3    H250291   6.715   3.093   0.887  0.1712  0.1566 -0.5067
 9626TIP3   OH250292   3.518   5.105   2.926  0.2062 -0.3102  0.4297
 9626TIP3    H150293   3.588   5.040   2.922 -0.7215 -1.3299  0.4959
 9626TIP3    H250294   3.453   5.067   2.984 -0.6207  0.4245  0.0080
 9627TIP3   OH250295   4.250   0.956  10.621  0.4713 -0.1896  0.3041
 9627TIP3    H150296   4.163   0.958  10.582 -0.8054  1.5209  3.1092
 9627TIP3    H250297   4.285   1.044  10.606  1.3970 -0.6208 -0.0871
 9628TIP3   OH250298   4.094   3.077   4.909 -0.2916 -0.2548  0.2244
 9628TIP3    H150299   4.139   3.158   4.932 -0.6323  0.2460 -0.8143
 9628TIP3    H250300   4.057   3.046   4.991  2.0458 -0.7489  1.1185
 9629TIP3   OH250301   0.385   1.188   5.875  0.4027  0.3878  0.0595
 9629TIP3    H150302   0.359   1.103   5.839  0.0789  0.7040 -0.4648
 9629TIP3    H250303   0.464   1.169   5.925  0.2767 -0.2432  0.0311
 9630TIP3   OH250304   5.439   6.526   2.948  0.8277  0.3652 -0.0338
 9630TIP3    H150305   5.403   6.448   2.907 -1.2701  0.0212  2.3235
 9630TIP3    H250306   5.466   6.498   3.035 -0.1709  2.2582  0.9409
 9631TIP3   OH250307   6.108   4.832   1.306 -0.3052  0.7160  0.2207
 9631TIP3    H150308   6.111   4.906   1.366 -0.3153  1.3255 -0.5212
 9631TIP3    H250309   6.029   4.784   1.330  1.8896 -1.4776  3.5289
 9632TIP3   OH250310   5.092   2.210   1.208  0.2330  1.0619 -0.1085
 9632TIP3    H150311   5.156   2.248   1.267  0.6409  1.4510 -0.7989
 9632TIP3    H250312   5.108   2.253   1.124 -1.8677  2.2091  0.0431
 9633TIP3   OH250313   3.022   2.265   3.529  0.0541  0.5382 -0.1621
 9633TIP3    H150314   3.104   2.224   3.501 -0.4985  0.7631 -2.2538
 9633TIP3    H250315   3.042   2.359   3.531  0.9285  0.3356  3.2492
 9634TIP3   OH250316   5.813   5.770  12.918 -0.7197 -0.3019  0.0215
 9634TIP3    H150317   5.804   5.809  13.004  2.6506  1.2591 -0.2635
 9634TIP3    H250318   5.834   5.843  12.860  0.1407 -1.7599 -1.5573
 9635TIP3   OH250319   0.004   0.548  13.870 -0.0338  0.5749 -0.1599
 9635TIP3    H150320  -0.068   0.584  13.921  0.4081  1.7768 -0.3897
 9635TIP3    H250321   0.073   0.613  13.875  0.0787  0.6509 -2.1339
 9636TIP3   OH250322   2.973   4.272   0.527  0.6295  0.0879  0.1715
 9636TIP3    H150323   2.880   4.293   0.536  0.7642  0.2511  1.2916
 9636TIP3    H250324   2.976   4.200   0.463 -0.0740  1.5054 -1.4944
 9637TIP3   OH250325   0.564   1.288   6.276 -0.0909  0.6450  0.5869
 9637TIP3    H150326   0.514   1.257   6.351  0.3839  2.2602  1.5842
 9637TIP3    H250327   0.499   1.315   6.212 -0.5068 -1.4304  0.0973
 9638TIP3   OH250328   1.004   3.821  11.328  0.2509  0.1076  0.4122
 9638TIP3    H150329   0.996   3.728  11.307  0.9801 -0.6458  3.3091
 9638TIP3    H250330   1.097   3.840  11.320  0.1941  0.4227  0.4823
 9639TIP3   OH250331   3.916   3.268   5.585  1.1232 -0.3600  0.4700
 9639TIP3    H150332   3.962   3.349   5.560 -0.1871 -0.0728 -1.0765
 9639TIP3    H250333   3.855   3.296   5.653 -0.3739  0.2469 -1.1105
 9640TIP3   OH250334   6.493   6.711   2.928 -0.0985 -0.4010 -0.3991
 9640TIP3    H150335   6.429   6.718   2.999 -0.1740 -0.7506 -0.4338
 9640TIP3    H250336   6.496   6.618   2.907 -0.2728 -0.2619 -1.0365
 9641TIP3   OH250337   1.338   4.056   0.883 -0.3779  0.0712 -0.6713
 9641TIP3    H150338   1.272   4.109   0.929 -0.2603 -1.4545  1.3527
 9641TIP3    H250339   1.408   4.045   0.947  1.0798  0.2134 -2.2122
 9642TIP3   OH250340   2.686   4.017  13.707  0.5868  0.9787  0.2359
 9642TIP3    H150341   2.597   4.032  13.742  0.7965  0.6612  0.9231
 9642TIP3    H250342   2.700   3.923  13.718  1.2108  1.1154  0.6144
 9643TIP3   OH250343   1.846   5.194  14.472  0.4861 -0.0433  0.1561
 9643TIP3    H150344   1.882   5.187  14.560  0.8713  1.6728  0.1399
 9643TIP3    H250345   1.757   5.227  14.484  0.3309 -0.3646 -0.0709
 9644TIP3   OH250346   6.485   5.484   1.473  0.4345 -0.4884  0.2657
 9644TIP3    H150347   6.489   5.497   1.567 -2.3010  0.9236  0.2161
 9644TIP3    H250348   6.563   5.431   1.453  0.8810 -1.0706  3.3231
 9645TIP3   OH250349   1.688   3.185   4.738  0.2596 -0.2745 -0.2859
 9645TIP3    H150350   1.721   3.201   4.649 -1.7119  1.3797 -0.7672
 9645TIP3    H250351   1.683   3.089   4.745  1.1092 -0.4326 -1.7028
 9646TIP3   OH250352   0.356   1.025  10.854 -0.3677  0.3842 -0.4148
 9646TIP3    H150353   0.407   0.956  10.810  0.2655  0.5906 -0.0132
 9646TIP3    H250354   0.409   1.048  10.930 -1.3384  0.2040  0.3185
 9647TIP3   OH250355   2.303   1.923   3.902 -0.2043  0.0969 -0.1149
 9647TIP3    H150356   2.386   1.906   3.857 -0.7928 -0.0777 -1.1614
 9647TIP3    H250357   2.263   1.994   3.852 -0.8302 -0.0350  0.1951
 9648TIP3   OH250358   0.185   5.333   3.043  0.5814  0.2187 -0.4100
 9648TIP3    H150359   0.096   5.369   3.036  0.9879  0.9704 -2.0513
 9648TIP3    H250360   0.172   5.238   3.041 -0.3882  0.2653  2.3460
 9649TIP3   OH250361   5.224   4.669   4.412 -0.3666 -0.4875  0.6048
 9649TIP3    H150362   5.147   4.620   4.442 -0.2991 -0.9686 -0.0016
 9649TIP3    H250363   5.275   4.606   4.361 -1.1339  0.6566 -1.6376
 9650TIP3   OH250364   0.245   2.147  13.280  0.1930 -0.5319 -0.2098
 9650TIP3    H150365   0.255   2.052  13.290  1.1656 -0.4205 -0.1519
 9650TIP3    H250366   0.206   2.157  13.193  1.4618 -0.8991 -0.8284
 9651TIP3   OH250367   2.353   6.090  11.908  0.2709  0.0021  0.5266
 9651TIP3    H150368   2.397   6.172  11.887 -0.1324  0.1768  0.3492
 9651TIP3    H250369   2.363   6.036  11.830 -0.7893  0.4599  0.0723
 9652TIP3   OH250370   4.307   6.405  13.331  0.2097  0.4120  0.0921
 9652TIP3    H150371   4.308   6.394  13.236  0.7701  0.8409  0.0467
 9652TIP3    H250372   4.369   6.339  13.364  1.0509  1.1798  0.0568
 9653TIP3   OH250373   2.667   3.651   1.833  0.2606  0.2551 -0.6783
 9653TIP3    H150374   2.730   3.665   1.904  0.3992 -0.2135 -0.7058
 9653TIP3    H250375   2.597   3.714   1.850 -2.2426 -3.1232  2.8067
 9654TIP3   OH250376   0.819   3.995   3.219  0.0036 -0.6553 -0.1291
 9654TIP3    H150377   0.884   4.059   3.249 -0.2339 -0.2164 -0.5488
 9654TIP3    H250378   0.871   3.923   3.184  0.2707 -0.6168  0.1783
 9655TIP3   OH250379   3.824   1.561   1.340  0.2249 -0.4464  0.6014
 9655TIP3    H150380   3.764   1.623   1.381  0.5412  0.0200  0.3575
 9655TIP3    H250381   3.774   1.524   1.267 -0.2047 -0.9962  1.1671
 9656TIP3   OH250382   1.892   1.191   4.065 -0.5817  0.4623  0.5771
 9656TIP3    H150383   1.801   1.181   4.092 -0.6980  0.2649  0.1133
 9656TIP3    H250384   1.887   1.218   3.973 -0.1544 -0.5376  0.2535
 9657TIP3   OH250385   0.622   3.170   6.096  0.5001 -0.7848 -0.5129
 9657TIP3    H150386   0.565   3.161   6.173 -0.5790 -1.5025 -1.3765
 9657TIP3    H250387   0.644   3.080   6.072  3.2058 -0.4918  0.6609
 9658TIP3   OH250388   5.400   5.954  13.317  0.4596 -0.3709  0.4863
 9658TIP3    H150389   5.408   5.933  13.224  2.9770  1.3093  0.2637
 9658TIP3    H250390   5.385   5.870  13.360 -0.5178 -1.1959 -1.3977
 9659TIP3   OH250391   5.222   2.566  14.404 -0.1495 -0.2752  0.5750
 9659TIP3    H150392   5.240   2.519  14.322  0.4687 -0.4659  0.8163
 9659TIP3    H250393   5.192   2.652  14.376  0.8023 -0.0724  0.1447
 9660TIP3   OH250394   3.124   3.192   3.384  0.2173  0.0328 -0.2957
 9660TIP3    H150395   3.117   3.104   3.346 -0.0735  0.0123 -0.1990
 9660TIP3    H250396   3.089   3.182   3.472  2.6869 -0.3593  0.6757
 9661TIP3   OH250397   0.530   0.734  14.796  0.5063 -0.3494  0.1059
 9661TIP3    H150398   0.528   0.659  14.855  1.2592  2.3352  3.6695
 9661TIP3    H250399   0.613   0.724  14.749  0.6010 -1.7511  0.5445
 9662TIP3   OH250400   6.717   2.030  14.637 -0.1827 -0.0195 -0.4712
 9662TIP3    H150401   6.795   1.984  14.607 -0.0980  0.0702 -0.3930
 9662TIP3    H250402   6.706   2.002  14.728  2.0542  2.9784  0.7862
 9663TIP3   OH250403   5.097   1.704  16.181 -0.1876 -0.2993 -0.2308
 9663TIP3    H150404   5.062   1.717  16.269  1.9843 -0.9105  0.7689
 9663TIP3    H250405   5.184   1.744  16.184 -0.1098 -0.2768 -2.1203
 9664TIP3   OH250406   3.092   4.952  13.471 -0.8214  0.0329  0.5052
 9664TIP3    H150407   3.146   4.912  13.540 -2.6182 -3.0276  0.2149
 9664TIP3    H250408   3.003   4.948  13.505 -1.2087  2.5584 -0.1574
 9665TIP3   OH250409   3.170   2.568   6.272  0.6127  0.4930 -0.4616
 9665TIP3    H150410   3.175   2.656   6.308 -2.0147  1.4102 -2.1511
 9665TIP3    H250411   3.094   2.529   6.315 -0.2766  0.2837 -2.1834
 9666TIP3   OH250412   3.201   4.045   5.964 -0.0814 -0.5809 -0.5293
 9666TIP3    H150413   3.238   4.075   6.047 -1.7627 -0.8353  0.3300
 9666TIP3    H250414   3.110   4.026   5.984 -0.2380 -1.6770 -2.1903
 9667TIP3   OH250415   1.580   0.915   3.953  0.2385  0.2154 -0.1326
 9667TIP3    H150416   1.593   0.989   4.011  0.4983 -0.8398  1.1887
 9667TIP3    H250417   1.668   0.892   3.923  0.2346 -0.0030  0.0230
 9668TIP3   OH250418   0.109   5.808  11.113  0.6033 -0.1963  0.4097
 9668TIP3    H150419   0.129   5.744  11.045  0.8601  1.6814 -1.3418
 9668TIP3    H250420   0.190   5.818  11.161  0.6605 -0.9328  0.4675
 9669TIP3   OH250421   4.863   4.888  15.802  0.3294  0.0818 -0.2307
 9669TIP3    H150422   4.834   4.921  15.887  0.6969 -0.5325  0.1308
 9669TIP3    H250423   4.793   4.831  15.772  1.2809 -1.6450  0.7831
 9670TIP3   OH250424   6.369   1.501  13.632 -0.1502 -0.4767  0.6486
 9670TIP3    H150425   6.416   1.569  13.680 -0.7104 -0.9853  1.9481
 9670TIP3    H250426   6.339   1.440  13.700 -1.1009 -1.1232 -0.3297
 9671TIP3   OH250427   3.171   4.614  15.891 -0.1207 -0.0278 -0.2164
 9671TIP3    H150428   3.122   4.587  15.970  1.6812 -1.7667  0.3445
 9671TIP3    H250429   3.108   4.665  15.841 -3.0948 -3.5004 -0.2690
 9672TIP3   OH250430   5.255   5.796  14.468  0.6324 -0.1227  0.4602
 9672TIP3    H150431   5.263   5.829  14.558 -0.5687 -1.2388  0.9949
 9672TIP3    H250432   5.162   5.778  14.458  0.7259  0.1874 -1.0984
 9673TIP3   OH250433   1.838   3.344  12.397  0.1010 -0.0385  0.5034
 9673TIP3    H150434   1.896   3.280  12.439 -0.4942  0.0882  1.5322
 9673TIP3    H250435   1.768   3.358  12.460 -0.1462  1.1157 -0.0153
 9674TIP3   OH250436   1.683   4.573  12.164  0.0558  0.6101  0.1311
 9674TIP3    H150437   1.648   4.642  12.220  1.7496  1.7750 -0.1951
 9674TIP3    H250438   1.740   4.619  12.103  0.6222 -1.0043 -0.5852
 9675TIP3   OH250439   1.578   4.212   3.532 -0.0560  0.2264 -0.1157
 9675TIP3    H150440   1.545   4.123   3.542  0.2469  0.0215 -0.8852
 9675TIP3    H250441   1.674   4.202   3.533  0.0019  0.8739  2.6058
 9676TIP3   OH250442   3.981   0.097   2.146  0.2966 -0.3765 -0.4105
 9676TIP3    H150443   3.915   0.126   2.083 -0.2203 -1.3290 -0.3164
 9676TIP3    H250444   3.931   0.070   2.223  0.7059 -2.0151 -0.6856
 9677TIP3   OH250445   4.115   2.767  12.280  0.0144  0.1061 -0.5228
 9677TIP3    H150446   4.169   2.845  12.272  1.6396 -0.5032  3.3777
 9677TIP3    H250447   4.174   2.694  12.261 -1.2116 -0.3088 -3.0141
 9678TIP3   OH250448   3.018   0.030  13.779 -1.0764  0.5304  0.0357
 9678TIP3    H150449   3.054  -0.017  13.854 -0.9602  1.6042  0.6623
 9678TIP3    H250450   3.023  -0.033  13.707 -2.4482 -0.9927  1.2216
 9679TIP3   OH250451   6.490   6.521   5.808  0.1744 -0.1974  0.4618
 9679TIP3    H150452   6.475   6.614   5.827 -0.0888 -0.3933  1.2096
 9679TIP3    H250453   6.444   6.506   5.725  1.4795  0.6971 -0.4436
 9680TIP3   OH250454   5.491   5.754  14.991 -0.7949 -0.0430 -0.1931
 9680TIP3    H150455   5.472   5.781  14.901  1.6729  0.3239 -0.6304
 9680TIP3    H250456   5.536   5.670  14.982  0.7144  0.6705  0.6234
 9681TIP3   OH250457   0.234   4.490   5.234  0.1848 -0.7247  0.0253
 9681TIP3    H150458   0.188   4.574   5.225  1.5277  0.0440  0.2102
 9681TIP3    H250459   0.205   4.456   5.319  1.2702  0.5911  0.9428
 9682TIP3   OH250460   5.592   1.324   2.548 -0.5038  0.6102  0.1163
 9682TIP3    H150461   5.624   1.395   2.493 -0.0156  0.6983  0.5138
 9682TIP3    H250462   5.645   1.329   2.627 -2.7311  1.9582  1.5879
 9683TIP3   OH250463   3.781   4.055   2.606  0.3365 -0.7004  0.3910
 9683TIP3    H150464   3.699   4.103   2.609 -1.5062 -3.7658  1.0322
 9683TIP3    H250465   3.804   4.050   2.513  0.1615  0.7408  0.2728
 9684TIP3   OH250466   0.076   2.107   2.755  0.0756  0.2422 -0.0157
 9684TIP3    H150467   0.016   2.036   2.732  0.6434  0.2189 -1.4527
 9684TIP3    H250468   0.161   2.077   2.724  0.7613  0.5035  1.5435
 9685TIP3   OH250469   6.654   4.836   2.733  0.1582 -0.3073  0.3834
 9685TIP3    H150470   6.591   4.794   2.675  0.9681  0.2413 -0.9002
 9685TIP3    H250471   6.739   4.816   2.695  0.5860  2.0463  0.0245
 9686TIP3   OH250472   4.864   1.152  14.892 -0.4214  0.5281  0.3301
 9686TIP3    H150473   4.854   1.179  14.801  0.4256 -0.8344 -0.1910
 9686TIP3    H250474   4.958   1.162  14.910  0.0679 -2.5921 -0.1068
 9687TIP3   OH250475   2.743   4.591  15.356  0.0680 -0.1688  0.6474
 9687TIP3    H150476   2.686   4.517  15.339 -1.3246  0.6548  1.6268
 9687TIP3    H250477   2.816   4.554  15.406 -0.9951 -0.7756  1.7862
 9688TIP3   OH250478   1.705   5.224   1.626 -0.0584  0.0119 -0.8079
 9688TIP3    H150479   1.726   5.282   1.553  1.3278  0.0140 -0.4124
 9688TIP3    H250480   1.637   5.271   1.675 -0.7779  0.1420 -1.9252
 9689TIP3   OH250481   1.914   2.726   4.448 -0.2227 -0.1642 -0.5179
 9689TIP3    H150482   1.945   2.665   4.381  2.0586  1.6841 -1.2357
 9689TIP3    H250483   1.820   2.732   4.434 -0.5528 -3.6205 -0.2897
 9690TIP3   OH250484   2.960   1.328   6.054  0.1134  0.2531 -0.0470
 9690TIP3    H150485   2.891   1.289   6.107  2.4420 -0.3240  2.6418
 9690TIP3    H250486   2.983   1.408   6.100  2.1796 -0.2461 -0.1779
 9691TIP3   OH250487   3.325   6.056   5.722 -0.0598 -0.1282 -0.2785
 9691TIP3    H150488   3.366   6.126   5.773  3.0664 -0.8538 -1.6759
 9691TIP3    H250489   3.294   6.098   5.642 -2.1726  0.4216  0.7798
 9692TIP3   OH250490   0.469   3.977  12.397 -0.1021  0.1191  0.3994
 9692TIP3    H150491   0.455   3.882  12.394  3.3148 -0.4028 -1.2785
 9692TIP3    H250492   0.506   3.993  12.484 -1.1517  0.0238  0.8757
 9693TIP3   OH250493   3.847   5.924  13.726  0.6158  0.0748 -0.3616
 9693TIP3    H150494   3.792   5.952  13.799 -0.1706 -1.6891 -0.2661
 9693TIP3    H250495   3.846   5.998  13.665 -0.3472  0.7776  0.4953
 9694TIP3   OH250496   4.476   1.088   5.399 -0.1123 -0.1121  0.0772
 9694TIP3    H150497   4.503   1.072   5.308  2.6889  0.3153  0.7871
 9694TIP3    H250498   4.381   1.096   5.394  0.0390  0.6053 -2.9268
 9695TIP3   OH250499   3.923   1.409   4.818  0.4759  0.7815  0.3184
 9695TIP3    H150500   3.951   1.473   4.884  0.6388  0.7710  0.2594
 9695TIP3    H250501   3.992   1.342   4.820 -0.2833  0.0208  1.2031
 9696TIP3   OH250502   5.068   3.203   0.757  0.5738  0.3068 -0.5608
 9696TIP3    H150503   5.030   3.156   0.682  0.1120 -1.6545  0.8729
 9696TIP3    H250504   5.070   3.138   0.827  1.2652  2.0503  1.0566
 9697TIP3   OH250505   5.154   3.893   0.123 -0.3576 -0.1667 -0.4323
 9697TIP3    H150506   5.086   3.829   0.146  0.5149 -0.6014  1.0551
 9697TIP3    H250507   5.132   3.971   0.173 -0.9437  0.4046 -1.5865
 9698TIP3   OH250508   6.732   1.363  17.134  0.5744 -0.1523 -0.2764
 9698TIP3    H150509   6.791   1.382  17.207  1.1241  0.5199 -0.8959
 9698TIP3    H250510   6.645   1.386  17.167  0.7656 -0.2359  0.3013
 9699TIP3   OH250511   1.044   3.284   4.705  0.5396  0.1931 -0.0935
 9699TIP3    H150512   1.046   3.268   4.799  3.8713  1.3929  0.0856
 9699TIP3    H250513   1.067   3.200   4.665 -2.6667 -0.8186  0.0120
 9700TIP3   OH250514   0.742   4.991  11.091 -0.3693  0.2088  0.0079
 9700TIP3    H150515   0.671   5.028  11.038 -0.6180 -0.6266 -0.2570
 9700TIP3    H250516   0.766   5.061  11.151 -1.5502  0.4427  0.2281
 9701TIP3   OH250517   1.064   5.973  11.507 -0.2060 -0.3289 -0.4746
 9701TIP3    H150518   1.092   5.889  11.470 -0.2223 -0.3850 -0.3594
 9701TIP3    H250519   1.139   6.031  11.495  0.2879 -0.7285  0.6503
 9702TIP3   OH250520   3.103   3.378   1.975  0.1857 -0.2351  0.5341
 9702TIP3    H150521   3.059   3.331   1.904 -1.0731 -0.1512  1.2260
 9702TIP3    H250522   3.091   3.322   2.052  1.1024 -0.0922  0.7872
 9703TIP3   OH250523   5.577   1.459  13.494 -0.1722 -0.1631  0.0948
 9703TIP3    H150524   5.550   1.375  13.531  0.4405 -0.5240 -0.2609
 9703TIP3    H250525   5.638   1.436  13.424  0.2944  0.5900  0.2397
 9704TIP3   OH250526   5.456   5.524   2.040  0.0967  0.4196  0.0179
 9704TIP3    H150527   5.534   5.535   2.096  0.9588 -0.0237 -1.0762
 9704TIP3    H250528   5.471   5.583   1.966 -0.5471  0.2328 -0.2662
 9705TIP3   OH250529   0.890   4.535  11.136 -0.1910 -0.6310 -0.0386
 9705TIP3    H150530   0.890   4.506  11.045  2.5361  2.4286 -1.1117
 9705TIP3    H250531   0.943   4.471  11.182  1.0858 -0.4890 -1.2703
 9706TIP3   OH250532   5.831   3.981  15.903  1.0985 -0.3679 -0.5304
 9706TIP3    H150533   5.825   4.039  15.827 -0.3950 -0.0190 -0.1657
 9706TIP3    H250534   5.900   3.919  15.881  1.1511  0.1620 -1.8859
 9707TIP3   OH250535   6.333   1.102   4.414 -0.0214 -0.1758  0.3954
 9707TIP3    H150536   6.247   1.124   4.378  0.3312  1.4932  0.5409
 9707TIP3    H250537   6.323   1.013   4.447 -0.9691 -0.9336 -1.8462
 9708TIP3   OH250538   3.139   5.673   5.228 -0.0548 -0.0770  0.3949
 9708TIP3    H150539   3.121   5.757   5.270  0.4275  0.6173 -0.7598
 9708TIP3    H250540   3.057   5.625   5.235 -0.1727  0.2814  1.5342
 9709TIP3   OH250541   6.200   0.448   4.292  0.1666 -0.1577  0.0172
 9709TIP3    H150542   6.130   0.383   4.284  0.2071 -0.1444 -0.4898
 9709TIP3    H250543   6.281   0.397   4.279  0.2243 -0.0978  0.1426
 9710TIP3   OH250544   0.133   3.584  16.371 -0.4465 -0.7971 -0.0705
 9710TIP3    H150545   0.054   3.567  16.321 -0.4804 -0.6403 -0.0717
 9710TIP3    H250546   0.118   3.543  16.456 -0.3923 -1.0564 -0.1840
 9711TIP3   OH250547   2.170   0.977   3.346  0.3616 -0.2477 -0.1298
 9711TIP3    H150548   2.106   1.016   3.287  0.6793 -0.7192 -0.7880
 9711TIP3    H250549   2.118   0.919   3.402 -0.0409  0.7219  0.5291
 9712TIP3   OH250550   0.296   6.594   1.107 -0.5290 -0.6963  0.4432
 9712TIP3    H150551   0.203   6.612   1.119 -0.2475  1.7613 -0.8188
 9712TIP3    H250552   0.298   6.507   1.067 -2.4057  0.0856 -1.4544
 9713TIP3   OH250553   1.101   3.331   5.943 -0.7072 -0.3536  0.2899
 9713TIP3    H150554   1.129   3.422   5.944 -0.7556 -0.3301 -0.1826
 9713TIP3    H250555   1.016   3.332   5.900 -0.0144 -0.7921 -1.1530
 9714TIP3   OH250556   2.756   1.133   1.288  0.2296  0.2407  0.1579
 9714TIP3    H150557   2.730   1.049   1.326  0.1979  0.1216 -0.1257
 9714TIP3    H250558   2.836   1.113   1.239 -0.7013  0.0330 -1.2969
 9715TIP3   OH250559   5.441   0.918   1.196  0.3514  0.1327  0.5221
 9715TIP3    H150560   5.498   0.954   1.128  0.0523  0.2616  0.3387
 9715TIP3    H250561   5.501   0.887   1.264  0.7582 -1.5990 -0.5725
 9716TIP3   OH250562   1.930   4.978  12.005  0.1112  0.0621  0.4670
 9716TIP3    H150563   1.978   4.937  12.077 -1.2268  0.3144  1.5423
 9716TIP3    H250564   1.856   5.022  12.048 -0.1636  1.0406 -0.9713
 9717TIP3   OH250565   4.091   3.503   5.321 -0.3754 -0.4599 -0.8062
 9717TIP3    H150566   4.103   3.589   5.281 -0.2751 -0.5604 -0.9900
 9717TIP3    H250567   4.049   3.522   5.405  0.1092 -0.1894 -0.6211
 9718TIP3   OH250568   5.699   0.075  16.452  0.3939  0.1926 -0.0241
 9718TIP3    H150569   5.788   0.042  16.443  0.4165 -0.3755  2.0087
 9718TIP3    H250570   5.672   0.097  16.363  1.2892 -2.9796 -1.1669
 9719TIP3   OH250571   1.207   4.336   1.939  0.2512  0.9928 -0.3220
 9719TIP3    H150572   1.230   4.357   1.848  1.1665  0.3281 -0.2508
 9719TIP3    H250573   1.115   4.310   1.934  0.8259 -0.9809 -1.4150
 9720TIP3   OH250574   3.142   0.941   3.568 -0.1290  0.1896 -0.0757
 9720TIP3    H150575   3.087   0.905   3.637  2.6979 -1.2693  1.5024
 9720TIP3    H250576   3.127   1.036   3.573 -1.9364 -0.1263  0.7731
 9721TIP3   OH250577   1.641   3.233  15.152 -0.1989 -0.8694 -0.2208
 9721TIP3    H150578   1.587   3.218  15.074 -1.7787 -0.8742  0.8608
 9721TIP3    H250579   1.639   3.328  15.164  0.5426 -0.8111 -0.5236
 9722TIP3   OH250580   0.132   0.348  12.792 -0.2231 -0.0476 -0.8943
 9722TIP3    H150581   0.134   0.255  12.768  0.5644 -0.5345  1.0070
 9722TIP3    H250582   0.217   0.364  12.832 -0.2024  1.6154 -1.5718
 9723TIP3   OH250583   6.662   3.939  15.973  0.1819 -0.2412  0.0925
 9723TIP3    H150584   6.614   4.014  16.010 -1.0036 -1.6530  1.4609
 9723TIP3    H250585   6.751   3.973  15.960 -0.2981  1.3795  0.8218
 9724TIP3   OH250586   2.209   0.810  14.592  0.5987  0.5737 -0.1333
 9724TIP3    H150587   2.189   0.869  14.665 -0.7483 -0.6303  0.5163
 9724TIP3    H250588   2.219   0.724  14.634 -0.3889 -0.1606 -1.3651
 9725TIP3   OH250589   3.315   5.115   0.586  0.3808  0.5427  0.5681
 9725TIP3    H150590   3.229   5.153   0.565 -0.6231 -1.6757  0.6020
 9725TIP3    H250591   3.376   5.161   0.527 -1.0689  0.8872 -0.7052
 9726TIP3   OH250592   5.049   3.226   1.455 -0.1922  0.1588 -0.4160
 9726TIP3    H150593   5.044   3.318   1.479  0.2010  0.0214  0.2248
 9726TIP3    H250594   4.966   3.188   1.485 -0.3670  0.3114 -0.7089
 9727TIP3   OH250595   4.862   4.577  13.139 -0.5921 -0.3702 -0.0020
 9727TIP3    H150596   4.770   4.606  13.140 -0.5992 -0.2483  3.8829
 9727TIP3    H250597   4.868   4.514  13.211  2.2404 -0.8417 -0.5935
 9728TIP3   OH250598   3.725   6.608  14.334  1.0804  0.2256  0.1332
 9728TIP3    H150599   3.791   6.660  14.289  1.4332 -0.3867 -0.0616
 9728TIP3    H250600   3.775   6.551  14.392  0.5625  2.5278  2.9719
 9729TIP3   OH250601   0.505   0.898  13.543  0.1326 -0.1048 -0.2874
 9729TIP3    H150602   0.455   0.852  13.611  0.4798 -1.9090 -1.2027
 9729TIP3    H250603   0.484   0.990  13.555 -1.9592 -0.6642  0.5267
 9730TIP3   OH250604   3.021   2.435   5.522 -0.4012 -0.4826 -0.5105
 9730TIP3    H150605   2.939   2.437   5.573 -0.1339 -0.4882 -0.0788
 9730TIP3    H250606   3.058   2.522   5.534  0.1660 -0.8066  0.1326
 9731TIP3   OH250607   1.291   0.545   5.484 -0.5073 -0.1498 -0.0785
 9731TIP3    H150608   1.360   0.491   5.445 -0.4228  0.1174 -0.2991
 9731TIP3    H250609   1.209   0.504   5.455 -0.4619  0.6024 -1.3492
 9732TIP3   OH250610   2.582   5.282  12.843  0.5816  0.0898 -0.4309
 9732TIP3    H150611   2.519   5.256  12.776 -1.5402 -0.5640  1.7427
 9732TIP3    H250612   2.596   5.203  12.896  2.7277  0.4094 -0.4580
 9733TIP3   OH250613   0.557   3.770   3.174 -0.3187 -0.2631 -0.8214
 9733TIP3    H150614   0.483   3.752   3.233  0.3348 -1.6215 -0.3877
 9733TIP3    H250615   0.519   3.822   3.103 -1.6501 -0.7403 -0.4812
 9734TIP3   OH250616   3.897   4.369  15.989 -0.3305  0.4020 -0.1348
 9734TIP3    H150617   3.811   4.386  16.028  0.1402 -3.0699  2.6266
 9734TIP3    H250618   3.954   4.437  16.024 -0.6695 -0.7350  2.7831
 9735TIP3   OH250619   1.572   0.613  16.468 -0.4795 -0.0962 -0.1040
 9735TIP3    H150620   1.553   0.703  16.443  0.0731 -0.5615 -2.2998
 9735TIP3    H250621   1.487   0.575  16.488 -1.2314 -0.3451 -3.5619
 9736TIP3   OH250622   3.579   1.603  11.119  0.1763 -0.2775 -0.3289
 9736TIP3    H150623   3.594   1.659  11.195 -1.3078 -0.1829 -0.0801
 9736TIP3    H250624   3.655   1.617  11.063 -0.4497  2.4848 -0.5697
 9737TIP3   OH250625   4.495   1.824  14.678 -0.5841  0.5649 -0.1655
 9737TIP3    H150626   4.526   1.821  14.587 -0.4448  2.4707 -0.1857
 9737TIP3    H250627   4.575   1.834  14.730 -0.6746 -0.4208  0.1838
 9738TIP3   OH250628   3.839   3.457  15.503 -0.5148 -0.3360 -0.0103
 9738TIP3    H150629   3.851   3.494  15.415 -1.2709 -1.0805 -0.4375
 9738TIP3    H250630   3.748   3.426  15.503 -1.0743  1.2115  1.6286
 9739TIP3   OH250631   0.136   0.882   3.842  0.4776  0.2925  0.0447
 9739TIP3    H150632   0.218   0.835   3.860  0.7204  0.6945 -0.0182
 9739TIP3    H250633   0.071   0.839   3.898  0.5109 -0.6987 -0.6481
 9740TIP3   OH250634   1.301   5.356   1.819 -0.1539  0.2008  0.1285
 9740TIP3    H150635   1.247   5.387   1.746  1.4592  0.0348 -1.1956
 9740TIP3    H250636   1.388   5.395   1.802  0.9348 -2.0120  0.4723
 9741TIP3   OH250637   2.667   0.391  12.537  0.4811  0.1239  0.4281
 9741TIP3    H150638   2.707   0.330  12.600  0.9489  2.0553  2.0471
 9741TIP3    H250639   2.623   0.334  12.474 -0.8027 -1.8962  3.0302
 9742TIP3   OH250640   4.646   0.583  14.248 -0.0703  0.0863 -0.2105
 9742TIP3    H150641   4.633   0.576  14.154 -1.3966 -0.4737  0.0029
 9742TIP3    H250642   4.625   0.496  14.282  0.7170  0.1931  0.5684
 9743TIP3   OH250643   4.697   3.944   3.606 -0.7144 -0.0712 -0.8883
 9743TIP3    H150644   4.750   3.962   3.685 -0.2542 -3.7039 -0.2591
 9743TIP3    H250645   4.607   3.961   3.633 -0.3445  1.0145 -0.3108
 9744TIP3   OH250646   4.413   2.508  11.720 -0.2164  0.6791 -0.1031
 9744TIP3    H150647   4.378   2.543  11.638 -1.5282 -0.0891  0.1199
 9744TIP3    H250648   4.398   2.413  11.714  1.6283  0.3474  0.1025
 9745TIP3   OH250649   6.431   0.057   0.296  0.2581 -0.1275  0.1791
 9745TIP3    H150650   6.439   0.098   0.382 -0.2635  0.8641 -0.2412
 9745TIP3    H250651   6.498   0.101   0.242 -1.1916  1.1465 -0.6338
 9746TIP3   OH250652   4.297   0.328   6.540  0.0490  0.5640 -0.0816
 9746TIP3    H150653   4.257   0.259   6.591 -1.5123  1.6865  0.2549
 9746TIP3    H250654   4.343   0.282   6.469 -0.0584 -0.8478  0.7491
 9747TIP3   OH250655   6.349   3.874   3.737 -0.2695  0.0334 -0.1573
 9747TIP3    H150656   6.312   3.895   3.823 -0.4468  2.0163 -0.6767
 9747TIP3    H250657   6.400   3.795   3.752 -0.0792  0.4921  1.8496
 9748TIP3   OH250658   3.644   0.988   1.816  0.8354 -0.1728 -0.2565
 9748TIP3    H150659   3.652   0.899   1.852 -1.4937 -0.7346 -1.0332
 9748TIP3    H250660   3.665   0.978   1.723 -1.5745 -0.3344 -0.7988
 9749TIP3   OH250661   6.195   4.760   4.308 -0.8427  0.4548  0.3685
 9749TIP3    H150662   6.282   4.760   4.348 -0.9397 -0.2587  0.5891
 9749TIP3    H250663   6.204   4.817   4.231  0.0146 -0.1718 -0.0063
 9750TIP3   OH250664   0.119   2.268  11.593  0.3456 -0.4113 -0.0245
 9750TIP3    H150665   0.203   2.312  11.582  0.5318 -0.4920  1.0607
 9750TIP3    H250666   0.062   2.333  11.633  0.6500 -1.1525  1.6706
 9751TIP3   OH250667   3.921   1.705  12.694  0.0921 -0.0730 -0.8005
 9751TIP3    H150668   3.984   1.712  12.622 -1.6265  1.3379 -2.2395
 9751TIP3    H250669   3.853   1.648  12.660 -0.9981  1.0337 -0.5110
 9752TIP3   OH250670   2.035   3.178  10.867  0.2086 -0.3182 -0.2737
 9752TIP3    H150671   2.020   3.243  10.798 -0.5336  0.4480  0.6001
 9752TIP3    H250672   1.986   3.101  10.838 -0.3540  0.1021 -0.4511
 9753TIP3   OH250673   3.078   2.273  13.259 -0.8544  0.2908 -0.1249
 9753TIP3    H150674   3.144   2.343  13.261 -0.7620  0.1815  3.3008
 9753TIP3    H250675   3.128   2.192  13.268 -1.2252  0.0188 -0.5070
 9754TIP3   OH250676   2.232   0.549   6.416  0.0404 -0.4087 -0.9767
 9754TIP3    H150677   2.269   0.597   6.342 -0.7713  0.2139 -0.9905
 9754TIP3    H250678   2.194   0.470   6.377  2.1158 -1.5166 -0.8493
 9755TIP3   OH250679   1.093   1.218   2.826 -0.0198  0.1576 -0.0974
 9755TIP3    H150680   1.096   1.173   2.741  0.1341  1.0806 -0.5805
 9755TIP3    H250681   1.148   1.163   2.883 -1.1337 -1.1476 -0.2519
 9756TIP3   OH250682   5.169   3.753  13.454  0.1922  0.5290 -0.2399
 9756TIP3    H150683   5.085   3.765  13.499  0.0270 -0.7478 -0.1853
 9756TIP3    H250684   5.194   3.663  13.474 -0.4510 -0.4683 -3.5626
 9757TIP3   OH250685   4.533   5.057   3.319  0.2034 -0.8184 -0.1379
 9757TIP3    H150686   4.460   5.114   3.295 -0.2600 -1.4214 -0.1707
 9757TIP3    H250687   4.560   5.017   3.236  1.6530  0.6480 -0.4096
 9758TIP3   OH250688   4.629   5.384   0.941  0.2361 -0.3627 -0.1738
 9758TIP3    H150689   4.561   5.363   1.005 -1.0919 -0.4429 -1.5778
 9758TIP3    H250690   4.639   5.303   0.890 -1.8569  0.9664 -2.8573
 9759TIP3   OH250691   2.929   3.236   5.106 -0.7436  0.0739  0.0957
 9759TIP3    H150692   2.948   3.257   5.198 -0.8000 -1.1006  0.3871
 9759TIP3    H250693   2.945   3.142   5.100 -0.2805  0.2344 -1.2246
 9760TIP3   OH250694   1.821   4.620   5.731  0.1755 -0.7223  0.0429
 9760TIP3    H150695   1.904   4.610   5.685 -0.5033  0.0554 -1.3606
 9760TIP3    H250696   1.846   4.619   5.824  1.6539 -1.3054 -0.3349
 9761TIP3   OH250697   2.034   5.943   4.098 -0.0566  0.2835 -0.4531
 9761TIP3    H150698   2.041   5.992   4.016  1.3783 -0.5092 -0.8112
 9761TIP3    H250699   2.077   5.999   4.163 -1.7271  1.1902 -0.0975
 9762TIP3   OH250700   0.585   3.483   3.318  0.5709 -0.0922 -0.2826
 9762TIP3    H150701   0.633   3.557   3.282  1.0664 -0.4543 -0.3692
 9762TIP3    H250702   0.580   3.420   3.246  0.9627 -0.5322  0.0740
 9763TIP3   OH250703   6.196   2.151  11.834  0.5739  0.2657  0.6502
 9763TIP3    H150704   6.229   2.091  11.901  1.9229  0.6592  0.3644
 9763TIP3    H250705   6.123   2.196  11.876  0.5187 -0.4967  1.3836
 9764TIP3   OH250706   6.397   0.955   6.096  0.0728 -0.4588  0.1714
 9764TIP3    H150707   6.339   0.908   6.036  0.9089 -0.6665 -0.4980
 9764TIP3    H250708   6.478   0.967   6.046  0.6111 -0.1945  1.0893
 9765TIP3   OH250709   2.990   3.369   1.312 -0.5712 -0.2844 -0.3815
 9765TIP3    H150710   3.078   3.352   1.281  0.0932 -0.7674  1.6569
 9765TIP3    H250711   2.951   3.282   1.321 -1.0407 -0.1078 -0.7088
 9766TIP3   OH250712   1.605   4.780  12.421  0.1157 -0.1570  0.1824
 9766TIP3    H150713   1.635   4.694  12.451  0.9339  0.5363  1.3676
 9766TIP3    H250714   1.673   4.841  12.450 -0.4432  0.8875 -0.6855
 9767TIP3   OH250715   0.135   4.323   4.830  0.1412 -0.0890 -0.0875
 9767TIP3    H150716   0.164   4.365   4.749 -0.4267  1.1327  0.3294
 9767TIP3    H250717   0.202   4.344   4.894 -1.2871  2.2528  0.7290
 9768TIP3   OH250718   2.062   2.704  13.001  0.2596  0.3325 -0.2792
 9768TIP3    H150719   2.036   2.796  13.005 -0.1999  0.1603  1.2821
 9768TIP3    H250720   2.019   2.669  12.923 -1.2177  0.9658  0.2276
 9769TIP3   OH250721   0.088   5.861  13.132  0.5071  0.3180 -0.0706
 9769TIP3    H150722   0.030   5.936  13.116 -1.5537 -1.4510 -1.1039
 9769TIP3    H250723   0.075   5.840  13.224 -0.6232 -0.1916 -0.3508
 9770TIP3   OH250724   2.574   6.422   3.440 -0.0773 -0.6333  0.4885
 9770TIP3    H150725   2.584   6.489   3.371 -2.4274 -1.9401 -1.2117
 9770TIP3    H250726   2.649   6.436   3.498  0.5356  2.2238 -0.8859
 9771TIP3   OH250727   5.472   0.590   4.098 -1.1574 -0.2468  0.4121
 9771TIP3    H150728   5.486   0.685   4.099 -1.3775 -0.2150  0.6083
 9771TIP3    H250729   5.550   0.554   4.056 -1.6130  0.1242 -0.8051
 9772TIP3   OH250730   6.432   4.385   2.264  0.3494  0.5128 -0.0372
 9772TIP3    H150731   6.487   4.354   2.335 -0.4921  1.9829  1.3014
 9772TIP3    H250732   6.486   4.449   2.217  0.9022 -0.4536 -0.7291
 9773TIP3   OH250733   2.002   5.677  13.132 -0.6634  0.7701 -1.2591
 9773TIP3    H150734   1.933   5.743  13.131 -1.1368  0.2803 -1.1896
 9773TIP3    H250735   2.019   5.659  13.039 -1.5433 -0.0545 -1.2613
 9774TIP3   OH250736   1.563   0.330  14.860 -0.1711 -0.0765 -0.3007
 9774TIP3    H150737   1.568   0.246  14.814 -1.9786  0.0500 -0.7762
 9774TIP3    H250738   1.569   0.307  14.952  0.9491 -0.5680 -0.4871
 9775TIP3   OH250739   0.298   5.427   0.543  0.4848 -0.2341 -0.7563
 9775TIP3    H150740   0.266   5.456   0.629  3.4914 -0.1589  0.4259
 9775TIP3    H250741   0.262   5.490   0.481  0.5401  1.3853  0.8243
 9776TIP3   OH250742   6.674   6.178   1.752  0.4199 -0.3593  0.4738
 9776TIP3    H150743   6.589   6.211   1.781  0.2101 -0.9237  0.4979
 9776TIP3    H250744   6.710   6.249   1.699  0.3117  0.2238  1.1708
 9777TIP3   OH250745   1.670   6.598   0.732 -0.4006  0.6323  0.5281
 9777TIP3    H150746   1.713   6.676   0.769  2.8219 -1.9915  2.6236
 9777TIP3    H250747   1.600   6.579   0.794 -0.4504  1.1879  0.6496
 9778TIP3   OH250748   1.346   0.798  17.232  0.3635  0.7738 -0.1729
 9778TIP3    H150749   1.342   0.889  17.201  0.3465  1.4056  1.6471
 9778TIP3    H250750   1.273   0.791  17.294 -1.0804 -1.1551 -1.9848
 9779TIP3   OH250751   1.679   4.548   3.961  0.0305  0.1390  0.1806
 9779TIP3    H150752   1.727   4.501   3.893  0.3156 -0.2692  0.6581
 9779TIP3    H250753   1.636   4.480   4.013 -1.2403  0.5161 -0.3655
 9780TIP3   OH250754   5.127   4.150   6.498 -0.2262  0.1802  0.1800
 9780TIP3    H150755   5.129   4.180   6.589 -1.8426 -0.6205  0.4861
 9780TIP3    H250756   5.070   4.212   6.453  0.2182  0.3136 -0.2151
 9781TIP3   OH250757   1.583   0.626   0.168  0.5316  0.1600  0.3695
 9781TIP3    H150758   1.651   0.587   0.223 -0.1185  0.4275  1.3816
 9781TIP3    H250759   1.512   0.561   0.168  0.4164  0.2863  0.0839
 9782TIP3   OH250760   3.570   1.941  13.713 -0.3913  0.1308 -0.2808
 9782TIP3    H150761   3.606   1.852  13.710 -0.0711  0.2249  0.6317
 9782TIP3    H250762   3.504   1.938  13.782  1.3235  1.2139  1.4385
 9783TIP3   OH250763   3.849   0.367   1.230 -0.1787  0.4144  0.2856
 9783TIP3    H150764   3.836   0.403   1.142 -0.3213 -0.1398  0.0764
 9783TIP3    H250765   3.939   0.391   1.253  0.2565 -0.4554 -0.4898
 9784TIP3   OH250766   1.089   6.530  12.026  0.2614 -0.1547  0.1286
 9784TIP3    H150767   1.046   6.614  12.038  0.2846 -0.2772  1.0550
 9784TIP3    H250768   1.124   6.508  12.112 -0.6414 -1.5981  0.1486
 9785TIP3   OH250769   2.805   0.763   4.236 -0.0353 -0.3911  0.5956
 9785TIP3    H150770   2.867   0.784   4.167 -0.0571 -0.8830  0.4244
 9785TIP3    H250771   2.749   0.840   4.243  1.1325  0.4012  1.3398
 9786TIP3   OH250772   6.328   6.149  12.747 -0.1766 -0.1411 -0.2000
 9786TIP3    H150773   6.310   6.184  12.834  2.0459 -0.0359  0.2343
 9786TIP3    H250774   6.261   6.188  12.691 -2.1921 -0.8815  1.5818
 9787TIP3   OH250775   1.414   6.533   3.076 -0.0080 -0.1090  0.5049
 9787TIP3    H150776   1.468   6.455   3.089  3.1930  1.5031 -2.1487
 9787TIP3    H250777   1.347   6.505   3.014 -0.2337 -1.2990  1.2626
 9788TIP3   OH250778   6.471   2.117   4.412  0.5105 -0.2550  0.2358
 9788TIP3    H150779   6.438   2.204   4.390  0.7396 -0.3963 -0.6981
 9788TIP3    H250780   6.404   2.056   4.380  1.0711 -0.4841 -0.5158
 9789TIP3   OH250781   6.755   6.459   6.018 -0.6791  0.4680  1.0723
 9789TIP3    H150782   6.755   6.367   6.043 -0.9680  0.1300 -0.1557
 9789TIP3    H250783   6.662   6.481   6.008 -0.5577  0.4338 -0.2519
 9790TIP3   OH250784   6.758   5.781  12.292  0.0375 -0.5953 -0.0878
 9790TIP3    H150785   6.782   5.704  12.241 -0.2269 -1.0067  0.4151
 9790TIP3    H250786   6.828   5.844  12.274 -0.4779 -0.4307 -1.6258
 9791TIP3   OH250787   6.603   5.553   3.068 -0.0261  0.6504  0.0962
 9791TIP3    H150788   6.640   5.525   2.985  0.7063  0.2857  0.5335
 9791TIP3    H250789   6.531   5.612   3.045  0.8634  1.4022 -0.7759
 9792TIP3   OH250790   4.318   5.189  12.195 -0.3444  0.9062 -0.1111
 9792TIP3    H150791   4.314   5.263  12.134 -0.8491  0.9797  0.0093
 9792TIP3    H250792   4.377   5.126  12.152  2.1900  2.4477  0.9591
 9793TIP3   OH250793   5.393   5.089  13.718 -0.2359  0.1893 -0.1168
 9793TIP3    H150794   5.303   5.120  13.726  0.2423  1.7341 -0.4278
 9793TIP3    H250795   5.386   5.000  13.685 -1.6158  0.6488 -1.0988
 9794TIP3   OH250796   5.635   6.049  15.801  0.4853  0.8876  0.1342
 9794TIP3    H150797   5.568   6.103  15.758  0.2254  0.6024  0.1801
 9794TIP3    H250798   5.585   5.990  15.857  0.5735 -1.2908 -2.0025
 9795TIP3   OH250799   1.558   2.498  14.319 -0.7964 -0.2636 -0.2927
 9795TIP3    H150800   1.653   2.493  14.318 -0.6111  2.5295  0.8169
 9795TIP3    H250801   1.533   2.500  14.226  0.2705 -0.0402 -0.5746
 9796TIP3   OH250802   3.490   3.625  13.335 -0.0048 -0.7177 -0.0227
 9796TIP3    H150803   3.508   3.703  13.387 -1.5556 -0.9983  1.0090
 9796TIP3    H250804   3.521   3.552  13.390  0.9103 -0.8605 -0.7257
 9797TIP3   OH250805   1.509   2.837  17.054 -0.1589  0.3845  0.1285
 9797TIP3    H150806   1.489   2.869  17.142 -0.3104 -1.4833  0.7807
 9797TIP3    H250807   1.572   2.901  17.020 -0.8013  1.6320  1.2367
 9798TIP3   OH250808   4.925   6.351  11.334 -0.2448 -0.3225  0.4390
 9798TIP3    H150809   4.887   6.377  11.251  3.7160  0.6640 -1.1371
 9798TIP3    H250810   4.904   6.422  11.394 -0.7763  0.2405 -0.4132
 9799TIP3   OH250811   6.466   2.669   4.295 -0.2145 -0.3719 -0.5483
 9799TIP3    H150812   6.372   2.675   4.312 -0.1698  1.2153 -0.7673
 9799TIP3    H250813   6.490   2.581   4.324 -1.8515 -0.9739 -0.9323
 9800TIP3   OH250814   6.044   3.790   0.523  0.2293 -0.1420  0.2113
 9800TIP3    H150815   6.082   3.786   0.436  0.9606  0.5652  0.4888
 9800TIP3    H250816   6.000   3.706   0.535 -0.6314  0.1021 -1.1737
 9801TIP3   OH250817   4.631   0.968  15.349 -0.4351 -0.2226  0.6518
 9801TIP3    H150818   4.540   0.980  15.374 -0.0748  0.6149  1.5759
 9801TIP3    H250819   4.681   1.010  15.418  0.6889 -1.4394  0.5977
 9802TIP3   OH250820   4.078   5.518  16.806 -0.5537  0.7456  0.3048
 9802TIP3    H150821   4.010   5.458  16.774 -0.2191  0.5160  0.0227
 9802TIP3    H250822   4.032   5.574  16.869 -1.0214  0.6357  0.0663
 9803TIP3   OH250823   6.599   1.174  14.454 -0.2459 -0.2303 -0.2671
 9803TIP3    H150824   6.587   1.086  14.490  0.9152 -0.5231 -0.5674
 9803TIP3    H250825   6.578   1.232  14.527 -0.8731 -0.7546 -0.0222
 9804TIP3   OH250826   4.092   4.342   4.183  0.7062  0.3996 -0.0072
 9804TIP3    H150827   4.169   4.391   4.154  1.0681 -0.3595 -0.3604
 9804TIP3    H250828   4.041   4.404   4.235  2.8676  0.2211  2.4549
 9805TIP3   OH250829   1.735   5.895  14.975  0.5974  0.7899 -0.3886
 9805TIP3    H150830   1.679   5.819  14.986  1.2266  0.3317 -0.3021
 9805TIP3    H250831   1.733   5.940  15.059  1.3021  0.1212 -0.0113
 9806TIP3   OH250832   0.880   3.384  11.092 -0.2743  0.1980  0.1487
 9806TIP3    H150833   0.872   3.388  10.997  0.3501 -0.0628  0.0819
 9806TIP3    H250834   0.860   3.292  11.113 -1.0539  0.4095  0.3331
 9807TIP3   OH250835   5.964   5.237  11.938 -0.0358  0.0081 -0.2509
 9807TIP3    H150836   5.876   5.273  11.930  0.7198  1.7688 -0.9022
 9807TIP3    H250837   6.006   5.258  11.854  0.8163 -1.3224 -0.1608
 9808TIP3   OH250838   2.446   1.685   1.302 -0.5900  0.0838 -0.2978
 9808TIP3    H150839   2.525   1.693   1.249 -0.2527 -0.4577  0.1127
 9808TIP3    H250840   2.440   1.591   1.321 -1.0136  0.2006  0.1513
 9809TIP3   OH250841   3.327   0.418  11.707  0.4221  0.2217 -0.4854
 9809TIP3    H150842   3.347   0.474  11.632 -0.4442  1.1287 -0.0452
 9809TIP3    H250843   3.329   0.329  11.671  0.8704  0.5867 -1.3890
 9810TIP3   OH250844   0.122   2.637  10.523 -0.6655 -0.5519 -0.0842
 9810TIP3    H150845   0.215   2.622  10.505 -0.5385  0.1958 -0.0615
 9810TIP3    H250846   0.119   2.721  10.569 -1.3610 -0.5198 -0.1756
 9811TIP3   OH250847   2.610   5.641  13.165  0.1523 -0.1044 -0.5509
 9811TIP3    H150848   2.672   5.673  13.231 -1.4948 -1.1332  1.5586
 9811TIP3    H250849   2.552   5.582  13.213 -2.1179  0.3777 -2.5717
 9812TIP3   OH250850   2.433   4.546  14.777  0.0301 -0.2864 -0.1563
 9812TIP3    H150851   2.477   4.519  14.858 -0.4966  1.0947  0.6129
 9812TIP3    H250852   2.345   4.510  14.785 -1.0175  2.4665  1.3743
 9813TIP3   OH250853   0.123   0.232  10.852  0.2137 -0.6530 -0.5109
 9813TIP3    H150854   0.126   0.283  10.771 -1.0807 -1.1601 -0.8909
 9813TIP3    H250855   0.036   0.194  10.853  0.0011 -0.1821  1.4196
 9814TIP3   OH250856   1.621   3.065   2.335  0.8639 -0.3829 -0.1503
 9814TIP3    H150857   1.582   2.987   2.296  0.7793  0.2586 -1.3721
 9814TIP3    H250858   1.710   3.037   2.360  1.3563 -0.4809 -1.9250
 9815TIP3   OH250859   4.255   0.121   1.535 -0.5496 -0.3848 -0.0807
 9815TIP3    H150860   4.243   0.054   1.468  5.2077  0.0944 -1.8901
 9815TIP3    H250861   4.206   0.197   1.504 -1.1574 -1.4390 -1.7296
 9816TIP3   OH250862   4.890   4.415  11.222 -0.0216 -0.1127  0.8365
 9816TIP3    H150863   4.967   4.387  11.173  1.6829 -0.2408  3.5111
 9816TIP3    H250864   4.923   4.440  11.308 -3.1152 -1.3589  2.4814
 9817TIP3   OH250865   6.414   6.647  14.171 -0.0764 -0.3617 -0.7591
 9817TIP3    H150866   6.350   6.717  14.187 -1.3725 -1.8849  0.9143
 9817TIP3    H250867   6.493   6.676  14.215 -0.7760 -0.1779  0.3935
 9818TIP3   OH250868   3.805   4.666  11.889  0.1886  0.1198  0.4380
 9818TIP3    H150869   3.758   4.696  11.811  0.0699 -0.0417  0.4455
 9818TIP3    H250870   3.882   4.722  11.894 -0.8397  1.4790  1.3598
 9819TIP3   OH250871   2.319   5.666  13.004  0.1930 -0.7665 -0.3020
 9819TIP3    H150872   2.323   5.577  13.038  0.8158 -1.2858 -1.6994
 9819TIP3    H250873   2.402   5.706  13.029  0.6834 -1.1736 -1.2866
 9820TIP3   OH250874   3.950   6.045   3.620  0.3707 -0.3919  0.0657
 9820TIP3    H150875   4.018   6.061   3.555  0.8055  1.0314  0.8394
 9820TIP3    H250876   3.927   6.133   3.652  0.4201 -1.0803  2.0636
 9821TIP3   OH250877   3.325   2.016  10.542 -1.0032 -0.7875 -0.5592
 9821TIP3    H150878   3.252   2.059  10.497 -0.2753  0.8273 -0.2204
 9821TIP3    H250879   3.354   2.080  10.607  2.4181 -0.3374 -2.4100
 9822TIP3   OH250880   2.650   1.826  14.168  0.4381 -0.2936 -0.0890
 9822TIP3    H150881   2.694   1.837  14.084  2.7233 -1.1703  0.9647
 9822TIP3    H250882   2.633   1.732  14.174  1.5485 -0.4325  1.0346
 9823TIP3   OH250883   3.447   4.245  16.389  0.0845 -0.1564  0.1842
 9823TIP3    H150884   3.495   4.312  16.437 -0.6256 -0.5361  1.4564
 9823TIP3    H250885   3.364   4.237  16.436 -2.5400  2.5739 -3.5818
 9824TIP3   OH250886   2.396   3.899  11.065 -0.6189 -0.4019  0.2962
 9824TIP3    H150887   2.481   3.941  11.078 -1.0047  0.6952 -0.6632
 9824TIP3    H250888   2.363   3.881  11.153 -0.6631  1.7357  0.7244
 9825TIP3   OH250889   3.782   4.902  12.288 -0.0590  0.1883  0.3394
 9825TIP3    H150890   3.687   4.914  12.287  0.0193  0.8101 -0.3519
 9825TIP3    H250891   3.810   4.940  12.371 -0.5705 -1.3292  1.2350
 9826TIP3   OH250892   0.914   1.534   4.597  0.4878 -0.1547 -0.6701
 9826TIP3    H150893   0.974   1.501   4.664  0.5905  0.9837 -0.1914
 9826TIP3    H250894   0.860   1.598   4.643 -0.5398 -0.5497 -1.2982
 9827TIP3   OH250895   2.366   1.934   5.615 -0.2333 -0.2261 -0.1576
 9827TIP3    H150896   2.281   1.889   5.619  0.8435 -2.2780  0.2599
 9827TIP3    H250897   2.390   1.949   5.706 -0.1296  0.3141 -0.2736
 9828TIP3   OH250898   5.167   5.227   2.260  0.4304 -0.3416 -0.0112
 9828TIP3    H150899   5.129   5.160   2.203  0.3448  0.1503 -0.5379
 9828TIP3    H250900   5.100   5.294   2.267  1.4088  0.8405 -1.4771
 9829TIP3   OH250901   5.854   1.832   1.498  0.2401  1.1820 -0.0067
 9829TIP3    H150902   5.847   1.739   1.477 -0.8124  0.8987  1.5111
 9829TIP3    H250903   5.763   1.861   1.508  0.5647  2.3474 -0.3437
 9830TIP3   OH250904   6.013   3.156   5.225 -0.8604 -0.0742  0.3427
 9830TIP3    H150905   5.987   3.093   5.292 -2.5777  1.2074  0.9042
 9830TIP3    H250906   6.079   3.110   5.174 -0.3793 -1.4975  2.1788
 9831TIP3   OH250907   3.481   2.134  12.616 -0.0850 -0.5391  0.4515
 9831TIP3    H150908   3.394   2.120  12.577 -0.2096 -1.2446  0.9805
 9831TIP3    H250909   3.507   2.048  12.648 -0.2011  0.1157  2.3722
 9832TIP3   OH250910   2.909   0.339  12.333 -0.1505  0.3071 -0.0810
 9832TIP3    H150911   2.874   0.279  12.399 -0.2639 -0.4113 -0.7840
 9832TIP3    H250912   2.983   0.292  12.295  0.0038  0.7805 -0.3662
 9833TIP3   OH250913   5.416   4.727  11.064 -0.2290 -0.5165 -0.2601
 9833TIP3    H150914   5.459   4.684  10.989  0.3278  2.1051 -1.4947
 9833TIP3    H250915   5.400   4.656  11.126  2.1378 -2.2441 -1.5387
 9834TIP3   OH250916   2.416   6.109  15.774 -0.6009 -0.2753  0.1800
 9834TIP3    H150917   2.419   6.079  15.683 -1.5559  1.4690 -0.4460
 9834TIP3    H250918   2.323   6.124  15.791 -0.5309 -1.5056  1.7638
 9835TIP3   OH250919   0.313   2.512  17.215  0.0468  0.0248 -0.2910
 9835TIP3    H150920   0.307   2.416  17.214  1.8074 -0.1002 -0.7071
 9835TIP3    H250921   0.358   2.534  17.134 -0.0085  1.1785 -0.0152
 9836TIP3   OH250922   5.098   1.758   3.139 -0.0105  0.2237  0.2396
 9836TIP3    H150923   5.148   1.809   3.203 -0.3547  0.0880  0.6195
 9836TIP3    H250924   5.154   1.755   3.062  0.2155  0.7780  0.3788
 9837TIP3   OH250925   4.721   1.706  15.123 -0.3270  0.6807  0.5571
 9837TIP3    H150926   4.691   1.649  15.194 -0.8040  1.5086  1.0285
 9837TIP3    H250927   4.745   1.788  15.166  1.4201  0.4681  0.0187
 9838TIP3   OH250928   5.481   2.130  12.013 -0.2878  0.1530 -0.0460
 9838TIP3    H150929   5.412   2.069  12.040 -1.5902  1.7444  0.2606
 9838TIP3    H250930   5.485   2.195  12.082  2.2623 -0.4605  0.4477
 9839TIP3   OH250931   3.325   6.470  15.788  0.3032  0.4382 -0.5265
 9839TIP3    H150932   3.317   6.472  15.692  1.2394 -2.7485 -0.7488
 9839TIP3    H250933   3.239   6.497  15.819 -0.4184  0.2905 -2.3087
 9840TIP3   OH250934   2.328   5.565   3.900 -0.1558 -0.0442 -0.1129
 9840TIP3    H150935   2.335   5.574   3.805 -0.5794  1.5491  0.0025
 9840TIP3    H250936   2.412   5.529   3.927  0.7298  1.4463 -0.8631
 9841TIP3   OH250937   0.243   2.456   3.447 -0.1944 -0.0249  0.0369
 9841TIP3    H150938   0.188   2.385   3.480  2.7293 -1.7355  1.4771
 9841TIP3    H250939   0.233   2.527   3.510 -1.3233 -0.0231 -0.1377
 9842TIP3   OH250940   2.578   0.488  15.509 -0.4809 -0.6827  0.2357
 9842TIP3    H150941   2.642   0.431  15.552  0.2999 -1.2163 -1.5628
 9842TIP3    H250942   2.629   0.537  15.444 -1.4963  0.6114  0.3925
 9843TIP3   OH250943   1.888   2.034  15.787  0.6478  0.0050  0.1578
 9843TIP3    H150944   1.950   2.075  15.847  0.3001  1.8897 -0.7422
 9843TIP3    H250945   1.802   2.058  15.821  0.4355  0.0230 -0.3926
 9844TIP3   OH250946   5.215   1.190  15.998 -0.4534 -0.2765  0.1075
 9844TIP3    H150947   5.208   1.110  16.050  0.1331 -0.3754  0.0378
 9844TIP3    H250948   5.258   1.162  15.917  0.5931  0.2700  0.4521
 9845TIP3   OH250949   6.183   3.540  14.332 -0.2841  0.1696 -0.2329
 9845TIP3    H150950   6.170   3.567  14.423 -0.0483  0.9097 -0.4126
 9845TIP3    H250951   6.268   3.496  14.332  1.1369  2.7802 -0.6312
 9846TIP3   OH250952   1.649   1.337  15.237 -0.7502 -0.6121 -0.0261
 9846TIP3    H150953   1.613   1.282  15.307 -1.0891 -1.1757 -0.6352
 9846TIP3    H250954   1.720   1.285  15.199 -2.1269 -1.3407 -1.6774
 9847TIP3   OH250955   1.725   1.000   0.933 -0.1691 -0.0876  0.2075
 9847TIP3    H150956   1.680   0.932   0.983 -1.8757 -1.5734 -3.1598
 9847TIP3    H250957   1.787   0.952   0.878  2.3148  1.5674  1.4797
 9848TIP3   OH250958   5.018   0.276   3.704 -0.1894  0.2162  0.1787
 9848TIP3    H150959   4.975   0.258   3.788 -0.6455  1.7821  0.2987
 9848TIP3    H250960   5.033   0.189   3.666 -1.4820 -0.4528  1.1343
 9849TIP3   OH250961   2.299   4.713   4.091  0.1070  0.3480  0.0727
 9849TIP3    H150962   2.296   4.781   4.024 -2.4144 -0.7169 -0.9774
 9849TIP3    H250963   2.265   4.755   4.170 -0.2097  0.6656 -0.2345
 9850TIP3   OH250964   2.636   1.236   2.323  0.0987  0.3393 -0.0593
 9850TIP3    H150965   2.577   1.245   2.248 -1.1863 -0.2376  0.8629
 9850TIP3    H250966   2.707   1.180   2.291  0.2929  1.2567 -1.2599
 9851TIP3   OH250967   1.684   5.871   3.183  0.3502 -0.3646  0.1997
 9851TIP3    H150968   1.651   5.784   3.206  1.5660 -0.9421 -0.2260
 9851TIP3    H250969   1.634   5.895   3.105  0.1844 -0.7844  0.1745
 9852TIP3   OH250970   6.430   3.417  14.369 -0.0778  0.1691  0.0994
 9852TIP3    H150971   6.500   3.384  14.425 -0.3971  0.4394  0.6562
 9852TIP3    H250972   6.475   3.475  14.307  0.3577 -0.6014 -0.3171
 9853TIP3   OH250973   0.974   6.069  15.401 -0.2004 -0.0993  0.1424
 9853TIP3    H150974   0.924   6.010  15.458 -1.6596  1.2777  0.3063
 9853TIP3    H250975   1.026   6.122  15.460  0.4837 -0.6401  0.0348
 9854TIP3   OH250976   5.082   2.943  12.516 -0.5047  0.3574  0.2043
 9854TIP3    H150977   5.139   2.950  12.439  0.4767  0.3316  0.9149
 9854TIP3    H250978   5.077   3.033  12.550  0.2406  0.1316  0.9328
 9855TIP3   OH250979   4.775   0.558   0.666 -0.3577 -0.4369  0.1839
 9855TIP3    H150980   4.702   0.498   0.653  0.6573 -1.5205 -0.6408
 9855TIP3    H250981   4.841   0.505   0.712  0.0404  0.4243  0.6132
 9856TIP3   OH250982   3.471   3.209  12.147  0.1285  0.0154  0.1746
 9856TIP3    H150983   3.479   3.153  12.071  1.9317 -0.3307  0.6036
 9856TIP3    H250984   3.521   3.165  12.216 -0.6047  0.8356  1.2695
 9857TIP3   OH250985   0.345   5.938  14.611 -0.0844 -0.6644  0.5241
 9857TIP3    H150986   0.433   5.924  14.574 -0.6790  0.9092 -1.5819
 9857TIP3    H250987   0.286   5.930  14.536 -1.5418  0.3590  1.5352
 9858TIP3   OH250988   3.376   0.874   2.893 -0.5044  0.0469  0.2719
 9858TIP3    H150989   3.349   0.947   2.947  0.0853 -0.2236  0.9447
 9858TIP3    H250990   3.467   0.858   2.918 -0.2048 -0.0203 -0.8658
 9859TIP3   OH250991   3.053   1.743  14.257 -0.6804  0.0554 -0.2578
 9859TIP3    H150992   3.120   1.762  14.323 -0.3919  0.7295 -0.7496
 9859TIP3    H250993   3.042   1.648  14.262 -1.6389  0.2351  1.7115
 9860TIP3   OH250994   5.147   5.610  16.864  0.2879  0.0205  0.1301
 9860TIP3    H150995   5.224   5.666  16.855  0.2538  0.3169  1.6153
 9860TIP3    H250996   5.118   5.623  16.954  0.0736 -2.1287  0.4108
 9861TIP3   OH250997   0.205   2.790  12.716 -0.0411  0.2341  0.2367
 9861TIP3    H150998   0.120   2.788  12.758  0.0293  2.0228  0.4940
 9861TIP3    H250999   0.187   2.775  12.623 -0.5263 -0.3647  0.4285
 9862TIP3   OH251000   2.548   2.558  12.562  0.1494 -0.4479 -0.5941
 9862TIP3    H151001   2.522   2.631  12.505 -0.8532 -1.4138 -1.4124
 9862TIP3    H251002   2.606   2.597  12.627 -0.6820  1.1523 -0.7863
 9863TIP3   OH251003   3.933   5.475   6.253 -0.3502 -0.3426 -0.0246
 9863TIP3    H151004   3.900   5.429   6.330 -0.5905 -2.4062 -1.3161
 9863TIP3    H251005   4.019   5.508   6.280 -0.9881  0.0834  1.5250
 9864TIP3   OH251006   0.370   5.416   4.034  0.7329 -0.0609 -0.3703
 9864TIP3    H151007   0.374   5.330   4.075  0.1082  0.5326  0.9719
 9864TIP3    H251008   0.285   5.418   3.991  0.9902 -0.3258 -0.8966
 9865TIP3   OH251009   5.988   0.067   2.479  0.0211 -0.4721 -0.2948
 9865TIP3    H151010   5.964   0.115   2.400  1.7262 -1.3157 -1.3382
 9865TIP3    H251011   6.071   0.107   2.507 -0.4597 -0.3267  0.9560
 9866TIP3   OH251012   3.167   3.534  10.883  0.2819 -0.3211  0.2814
 9866TIP3    H151013   3.133   3.589  10.813 -0.4372 -0.2502  0.6811
 9866TIP3    H251014   3.257   3.513  10.856 -0.0803 -0.5285 -0.7931
 9867TIP3   OH251015   5.495   0.822  15.078  0.1684 -0.0362 -0.4802
 9867TIP3    H151016   5.563   0.865  15.131 -1.7722  3.0205 -0.3494
 9867TIP3    H251017   5.525   0.832  14.988 -0.0919  1.3140 -0.4269
 9868TIP3   OH251018   2.706   4.906  14.829  0.1586 -0.0330  0.3044
 9868TIP3    H151019   2.750   4.989  14.846 -1.8923  1.3805 -1.2014
 9868TIP3    H251020   2.617   4.929  14.804 -0.3941 -2.6659 -0.3742
 9869TIP3   OH251021   3.061   1.775  13.982 -0.5302 -0.1042  0.1991
 9869TIP3    H151022   3.073   1.774  14.077  0.9819  0.8510  0.0193
 9869TIP3    H251023   3.119   1.707  13.949 -1.7880 -1.1265  0.0069
 9870TIP3   OH251024   4.217   5.394  16.043  0.2210 -0.8996  0.1225
 9870TIP3    H151025   4.204   5.486  16.069 -0.2398 -1.0269  0.3520
 9870TIP3    H251026   4.143   5.348  16.082  1.5704 -1.7091  1.7837
 9871TIP3   OH251027   5.670   1.196  16.942 -0.3936  0.0853  0.3739
 9871TIP3    H151028   5.722   1.208  16.862 -1.4390 -2.0934 -0.6718
 9871TIP3    H251029   5.721   1.134  16.995 -1.4960 -1.4153 -0.2931
 9872TIP3   OH251030   2.897   3.365  15.533  0.4924  0.5156 -0.3408
 9872TIP3    H151031   2.863   3.341  15.619  0.6013 -0.2215 -0.4979
 9872TIP3    H251032   2.962   3.297  15.513  0.8262  0.9556 -0.7886
 9873TIP3   OH251033   1.816   5.927   3.474  0.1427 -0.1063  0.1818
 9873TIP3    H151034   1.905   5.957   3.494  0.9142 -1.5811 -0.9710
 9873TIP3    H251035   1.786   5.986   3.405  1.2909 -1.3044 -1.3929
 9874TIP3   OH251036   4.407   2.459   2.448  0.1193  0.2629 -0.0854
 9874TIP3    H151037   4.313   2.450   2.463  0.0302  0.4893 -0.5034
 9874TIP3    H251038   4.447   2.426   2.529 -0.3422  0.9643  0.4431
 9875TIP3   OH251039   2.161   5.502   5.451  0.1650  0.8532 -0.5511
 9875TIP3    H151040   2.103   5.470   5.520  0.1961  2.7183  0.3721
 9875TIP3    H251041   2.215   5.426   5.427  1.2324  0.5730  2.5778
 9876TIP3   OH251042   5.270   0.424  11.419 -0.0030  0.4644 -0.6323
 9876TIP3    H151043   5.210   0.467  11.358  0.0168  0.9673 -0.3022
 9876TIP3    H251044   5.336   0.491  11.438 -0.7734  0.7943  1.0308
 9877TIP3   OH251045   4.568   3.438   0.762  1.1649  0.0730 -0.8474
 9877TIP3    H151046   4.595   3.428   0.671 -2.5808 -0.1623 -2.0232
 9877TIP3    H251047   4.536   3.352   0.787  1.7034  0.2713  0.5230
 9878TIP3   OH251048   0.195   0.356  14.082 -0.0742 -0.0640  0.1822
 9878TIP3    H151049   0.181   0.335  14.174  1.6659  0.6206  0.6213
 9878TIP3    H251050   0.182   0.451  14.076  0.4912 -0.0040 -0.1437
 9879TIP3   OH251051   4.137   0.551  12.861  0.5260  0.8082 -0.3429
 9879TIP3    H151052   4.115   0.468  12.820  0.6145  0.9905 -0.7598
 9879TIP3    H251053   4.233   0.552  12.864  0.4950  0.1834  1.1195
 9880TIP3   OH251054   5.036   1.116  12.121 -0.9804 -0.1675 -0.1700
 9880TIP3    H151055   5.063   1.106  12.212  0.8633  1.7908 -0.4712
 9880TIP3    H251056   4.940   1.108  12.124 -0.8261 -1.7433  1.6841
 9881TIP3   OH251057   5.313   0.273   4.948 -0.1297 -0.2217  0.2067
 9881TIP3    H151058   5.370   0.218   5.002  0.7843 -0.3283 -0.8561
 9881TIP3    H251059   5.370   0.343   4.917 -0.6988 -0.0369 -0.4272
 9882TIP3   OH251060   2.924   3.850   4.513  0.2013 -0.4823 -0.2835
 9882TIP3    H151061   2.841   3.803   4.518  0.0436 -0.1294  0.4939
 9882TIP3    H251062   2.913   3.911   4.439 -0.4833  0.0441  0.2431
 9883TIP3   OH251063   0.742   2.610  12.037 -0.1061  0.2221 -0.0511
 9883TIP3    H151064   0.805   2.585  12.106  0.3431 -0.0266 -0.5462
 9883TIP3    H251065   0.711   2.527  12.002 -1.6372  0.3379  1.0210
 9884TIP3   OH251066   6.048   1.988   5.591  0.1591  0.0170 -0.5908
 9884TIP3    H151067   5.963   1.949   5.567  0.4170 -1.1850  0.3642
 9884TIP3    H251068   6.047   2.074   5.550 -0.6080 -0.8359 -2.4542
 9885TIP3   OH251069   3.605   2.731   5.423  0.0122  0.0919  0.0614
 9885TIP3    H151070   3.619   2.699   5.512  2.5030 -0.0365 -0.3685
 9885TIP3    H251071   3.511   2.718   5.408 -0.6354  0.9892  2.9975
 9886TIP3   OH251072   1.621   3.356  14.429 -0.2766  0.7964  0.2241
 9886TIP3    H151073   1.661   3.395  14.507  1.4754  0.8422 -0.6692
 9886TIP3    H251074   1.682   3.288  14.402 -0.5641  1.1501 -1.4252
 9887TIP3   OH251075   5.368   3.296   6.118  0.2992 -0.3975 -0.2723
 9887TIP3    H151076   5.389   3.215   6.163  1.2708 -0.6540 -1.1840
 9887TIP3    H251077   5.295   3.274   6.060 -0.4296 -0.2555  0.5843
 9888TIP3   OH251078   4.698   1.526   5.632 -0.0353 -0.5952 -0.3079
 9888TIP3    H151079   4.670   1.536   5.723  0.2193 -0.0257 -0.2955
 9888TIP3    H251080   4.753   1.448   5.632 -0.7493 -1.1100 -0.1371
 9889TIP3   OH251081   3.759   3.655  16.596 -0.3270  0.2602  0.0134
 9889TIP3    H151082   3.711   3.725  16.553  1.5895  1.3061 -0.4984
 9889TIP3    H251083   3.701   3.624  16.665 -1.9220  1.1180 -0.9272
 9890TIP3   OH251084   6.568   2.358  16.034  0.0752  0.0970  0.7202
 9890TIP3    H151085   6.496   2.315  16.081 -1.0158 -0.4099 -1.3664
 9890TIP3    H251086   6.594   2.295  15.967  1.1753  1.0717  0.2129
 9891TIP3   OH251087   1.313   3.176   3.796 -0.0212  0.0934  0.4496
 9891TIP3    H151088   1.258   3.233   3.849 -1.6048 -1.8466  0.9833
 9891TIP3    H251089   1.262   3.162   3.716  1.2916  1.0959 -0.5676
 9892TIP3   OH251090   5.996   0.959  13.301  0.3104 -0.9158  0.1022
 9892TIP3    H151091   5.959   0.978  13.387 -1.1284  1.0507 -0.8991
 9892TIP3    H251092   5.993   0.864  13.293  0.9872 -1.1632  2.4319
 9893TIP3   OH251093   4.218   1.639  10.476  0.4227 -0.4271  0.0189
 9893TIP3    H151094   4.160   1.563  10.466  0.0318  0.1971 -2.8979
 9893TIP3    H251095   4.158   1.712  10.496  0.6629 -0.6061  1.4347
 9894TIP3   OH251096   1.030   2.523   4.827 -0.1004 -0.6225  0.3113
 9894TIP3    H151097   0.985   2.448   4.865  0.1434 -0.6450  0.5623
 9894TIP3    H251098   1.035   2.586   4.899 -2.9397  0.8427 -0.6831
 9895TIP3   OH251099   5.563   3.669   2.873  0.8590 -0.6458 -0.5403
 9895TIP3    H151100   5.507   3.738   2.908  1.6195  0.0579 -0.6936
 9895TIP3    H251101   5.547   3.671   2.778  1.5975 -0.0384 -0.6514
 9896TIP3   OH251102   6.112   2.083   1.743 -0.0461  0.3128  0.3245
 9896TIP3    H151103   6.196   2.090   1.788  0.4968 -0.2617 -0.5763
 9896TIP3    H251104   6.121   2.005   1.688 -0.6246  1.1107 -0.9178
 9897TIP3   OH251105   4.342   1.005   2.216  0.5926  0.1321 -0.2787
 9897TIP3    H151106   4.376   0.961   2.138 -2.4498 -0.9486 -1.0628
 9897TIP3    H251107   4.287   1.076   2.181  1.0485  1.0872  0.9214
 9898TIP3   OH251108   5.969   0.874   0.111  0.1725 -0.3273  0.8209
 9898TIP3    H151109   5.887   0.828   0.128 -0.8454  1.6041  1.3668
 9898TIP3    H251110   6.001   0.838   0.029 -2.3491  0.3716 -0.5195
 9899TIP3   OH251111   1.846   5.281  15.037 -0.4604 -0.5574  0.6994
 9899TIP3    H151112   1.941   5.294  15.032 -0.4830 -1.1359 -1.5756
 9899TIP3    H251113   1.836   5.210  15.100  0.6449 -0.8365  0.5739
 9900TIP3   OH251114   2.634   3.009   0.256 -0.1534 -0.2867  0.5034
 9900TIP3    H151115   2.708   3.045   0.305  0.5677 -2.1123  0.7955
 9900TIP3    H251116   2.674   2.957   0.187 -1.1758  0.3128 -0.5510
 9901TIP3   OH251117   3.064   6.296  16.238 -1.0899 -0.3815 -0.2557
 9901TIP3    H151118   3.090   6.205  16.252 -0.2771  0.0718  1.2851
 9901TIP3    H251119   2.986   6.291  16.182 -0.2031 -1.9493 -1.3507
 9902TIP3   OH251120   2.873   2.521  17.163  0.0391 -0.2948  0.4544
 9902TIP3    H151121   2.850   2.431  17.141 -1.6940  0.7946 -2.5662
 9902TIP3    H251122   2.964   2.530  17.135  0.3562 -1.2525  1.1914
 9903TIP3   OH251123   5.081   3.476   0.299 -0.1616  0.5984 -0.1888
 9903TIP3    H151124   5.123   3.425   0.369 -0.7446 -1.1466 -1.0764
 9903TIP3    H251125   5.002   3.512   0.339 -1.1042 -1.3593 -0.2486
 9904TIP3   OH251126   5.036   2.576   5.139 -0.1493 -0.3021  0.4230
 9904TIP3    H151127   4.994   2.563   5.054  1.0750  0.3681 -0.3055
 9904TIP3    H251128   4.976   2.634   5.186 -0.2194  0.3647 -0.4672
 9905TIP3   OH251129   1.800   6.607   4.593 -0.1183 -0.1869  0.0541
 9905TIP3    H151130   1.727   6.655   4.632  0.0830  1.4701 -1.5518
 9905TIP3    H251131   1.860   6.592   4.666 -0.9160  0.6145  0.8914
 9906TIP3   OH251132   4.539   1.382  15.462  0.4601  0.3866 -0.1616
 9906TIP3    H151133   4.599   1.367  15.535  0.8241 -0.0244 -0.5405
 9906TIP3    H251134   4.489   1.301  15.455  0.2631  0.5134 -0.2099
 9907TIP3   OH251135   1.789   3.537  15.249  0.0478  0.4589 -0.1013
 9907TIP3    H151136   1.856   3.472  15.270 -1.8964 -1.6154 -0.0843
 9907TIP3    H251137   1.838   3.614  15.219  2.4198 -0.8417  0.3395
 9908TIP3   OH251138   3.089   4.296   1.458 -0.4172  0.2119 -0.6580
 9908TIP3    H151139   3.041   4.215   1.474 -0.0182  0.0606 -0.1737
 9908TIP3    H251140   3.038   4.364   1.501 -0.2110  0.0525 -0.1491
 9909TIP3   OH251141   3.120   0.814  16.775 -0.0956 -0.7624 -0.0617
 9909TIP3    H151142   3.206   0.772  16.766  0.8380  1.0626  0.2393
 9909TIP3    H251143   3.125   0.863  16.857 -0.4784  1.4839 -1.3388
 9910TIP3   OH251144   1.647   6.232  11.530  0.1953 -0.1365 -0.3002
 9910TIP3    H151145   1.602   6.250  11.447 -2.4707 -0.0235  1.1142
 9910TIP3    H251146   1.598   6.160  11.569  1.5084 -0.2862  1.1252
 9911TIP3   OH251147   5.451   2.594  13.497  0.1647  0.0715 -0.5456
 9911TIP3    H151148   5.428   2.658  13.429  0.5196  1.7913  0.9039
 9911TIP3    H251149   5.374   2.593  13.554 -0.2693 -1.6207 -1.1262
 9912TIP3   OH251150   1.371   4.422   4.527 -0.2023  0.0582  0.2923
 9912TIP3    H151151   1.306   4.443   4.459 -0.7343  0.4688  0.9252
 9912TIP3    H251152   1.374   4.326   4.528  1.3677  0.0588 -1.7954
 9913TIP3   OH251153   5.744   6.395  10.265 -0.0411 -0.0979 -0.0717
 9913TIP3    H151154   5.667   6.341  10.279  0.7763 -1.6967 -1.4395
 9913TIP3    H251155   5.762   6.387  10.171  2.6655 -1.0696  0.4552
 9914TIP3   OH251156   1.704   0.297  12.887  0.6374  0.2212 -0.3940
 9914TIP3    H151157   1.682   0.390  12.890  1.2118  0.3107  1.4185
 9914TIP3    H251158   1.730   0.282  12.796 -4.3608  0.6424 -2.0168
 9915TIP3   OH251159   1.978   2.230  15.086  0.1160 -0.3854 -0.3882
 9915TIP3    H151160   1.944   2.141  15.099 -0.6048  0.0608  0.8649
 9915TIP3    H251161   1.951   2.277  15.164  2.2531  0.4186 -0.1079
 9916TIP3   OH251162   2.627   0.574   2.994  0.2327  0.2801 -0.2360
 9916TIP3    H151163   2.676   0.495   3.016 -0.5484 -0.5008 -1.2665
 9916TIP3    H251164   2.616   0.619   3.078  2.7125  0.5053  0.0181
 9917TIP3   OH251165   5.737   2.992   5.859  0.0923  0.2416 -0.2584
 9917TIP3    H151166   5.660   3.049   5.860  0.6950  1.1098 -2.1350
 9917TIP3    H251167   5.803   3.041   5.908  0.1477  0.4842 -0.5775
 9918TIP3   OH251168   0.164   4.342   1.632 -0.0546 -0.3152 -0.5565
 9918TIP3    H151169   0.165   4.253   1.666 -0.9178 -0.0154  0.2970
 9918TIP3    H251170   0.207   4.394   1.701 -0.0040  0.0023 -0.8270
 9919TIP3   OH251171   0.536   2.389  14.140 -0.2598  0.0089 -0.2016
 9919TIP3    H151172   0.513   2.480  14.157  2.0437  0.3862  1.1551
 9919TIP3    H251173   0.457   2.339  14.161 -0.5721  1.4002  2.1291
 9920TIP3   OH251174   5.003   6.765   3.615  0.8406  0.2926  0.8470
 9920TIP3    H151175   4.999   6.741   3.523  0.1676  1.0615  0.6613
 9920TIP3    H251176   4.913   6.755   3.646  1.2773 -1.0348  1.7065
 9921TIP3   OH251177   5.521   3.762   4.790 -0.8316  0.0411 -0.0028
 9921TIP3    H151178   5.570   3.687   4.822 -0.8983 -0.8470 -1.9421
 9921TIP3    H251179   5.586   3.832   4.781 -0.9134  0.5085  2.5898
 9922TIP3   OH251180   2.906   5.186   1.786  0.6954  0.1984  0.2081
 9922TIP3    H151181   2.881   5.147   1.870 -1.6824 -1.0779 -1.0424
 9922TIP3    H251182   2.913   5.111   1.726  1.3137  1.1951 -0.9861
 9923TIP3   OH251183   0.325   5.379   5.625  0.2865 -0.1557 -0.1139
 9923TIP3    H151184   0.358   5.454   5.675  0.8212 -1.2449  1.2203
 9923TIP3    H251185   0.242   5.357   5.666  0.0952 -0.2486 -0.5493
 9924TIP3   OH251186   0.040   2.945  16.855  0.1522  0.7382  0.5439
 9924TIP3    H151187  -0.041   2.895  16.848  0.3439  0.4350  0.4841
 9924TIP3    H251188   0.012   3.035  16.872 -0.1984  0.6583  0.3798
 9925TIP3   OH251189   1.837   1.586   3.511 -0.2506  0.3596  0.1075
 9925TIP3    H151190   1.842   1.681   3.507  2.4247  0.2335 -0.4656
 9925TIP3    H251191   1.924   1.558   3.539 -0.4958 -2.0108 -1.3025
 9926TIP3   OH251192   4.708   1.804  14.829 -0.4385  0.6165 -0.2209
 9926TIP3    H151193   4.768   1.879  14.827  0.6549 -0.1482  1.7035
 9926TIP3    H251194   4.699   1.784  14.923 -2.1952 -0.4853 -0.6057
 9927TIP3   OH251195   2.946   0.716   2.946 -0.5366 -0.3586 -0.1144
 9927TIP3    H151196   2.936   0.810   2.962 -0.0729  0.0008 -1.7630
 9927TIP3    H251197   2.859   0.680   2.962 -0.3567  0.0898  2.0481
 9928TIP3   OH251198   2.532   5.182   4.983  0.1837  0.1207 -0.0962
 9928TIP3    H151199   2.437   5.181   4.998  0.3436  0.1503  0.9406
 9928TIP3    H251200   2.570   5.178   5.070  1.1486 -0.6110 -0.5408
 9929TIP3   OH251201   2.808   4.708   2.336 -0.7704 -0.6990  0.1917
 9929TIP3    H151202   2.778   4.798   2.341  0.6624 -0.1431 -1.0305
 9929TIP3    H251203   2.898   4.711   2.369 -1.0297 -1.8434  1.0465
 9930TIP3   OH251204   3.701   5.335  10.958  0.3270 -0.3244 -0.5865
 9930TIP3    H151205   3.629   5.279  10.931 -0.6947  1.6954 -2.1880
 9930TIP3    H251206   3.707   5.322  11.052 -1.9104 -0.8004 -0.4742
 9931TIP3   OH251207   4.750   5.597   4.334  0.3822 -0.0645  0.5913
 9931TIP3    H151208   4.804   5.546   4.274 -1.5450 -0.6220 -0.7468
 9931TIP3    H251209   4.802   5.606   4.414  2.0826 -1.2495 -0.3731
 9932TIP3   OH251210   5.236   2.189  16.655 -0.7434  0.2177  0.6650
 9932TIP3    H151211   5.286   2.258  16.612 -0.8361  0.1203  0.3946
 9932TIP3    H251212   5.146   2.203  16.625 -1.0380  0.9444  1.8759
 9933TIP3   OH251213   1.723   2.121  13.154 -0.3694 -0.0941  0.0810
 9933TIP3    H151214   1.716   2.216  13.148 -1.4364 -0.2077 -0.4208
 9933TIP3    H251215   1.641   2.093  13.193 -0.8082 -0.9742 -1.4414
 9934TIP3   OH251216   4.956   0.810  13.507 -0.1694 -0.7492 -0.1220
 9934TIP3    H151217   4.897   0.885  13.496  0.5844 -0.4446 -2.2010
 9934TIP3    H251218   4.915   0.740  13.457  0.9069 -0.7204 -1.0507
 9935TIP3   OH251219   1.946   6.375   2.836 -0.0157 -0.5666 -0.5314
 9935TIP3    H151220   1.999   6.446   2.872 -1.9954  0.8641 -0.3750
 9935TIP3    H251221   1.931   6.400   2.745  0.3388 -1.4344 -0.8406
 9936TIP3   OH251222   6.002   0.198  12.797  0.7739  0.4581  0.2069
 9936TIP3    H151223   6.072   0.202  12.862  0.3862 -2.7409  0.8648
 9936TIP3    H251224   6.047   0.187  12.714  1.0623 -2.2879  0.7038
 9937TIP3   OH251225   1.357   5.219  16.490 -0.0306 -0.4506  0.2279
 9937TIP3    H151226   1.358   5.314  16.478  1.0418 -0.4091  0.6520
 9937TIP3    H251227   1.336   5.207  16.583  0.9861 -0.6001  0.4464
 9938TIP3   OH251228   1.021   5.486  14.556  0.4520  0.0546 -0.1168
 9938TIP3    H151229   1.027   5.476  14.651 -1.3257  0.1642  0.0111
 9938TIP3    H251230   0.939   5.443  14.532 -0.2596  2.0379 -1.3072
 9939TIP3   OH251231   2.046   5.528   3.912 -0.3694 -0.3714 -0.6102
 9939TIP3    H151232   2.141   5.513   3.912 -0.2347  0.4227 -0.6237
 9939TIP3    H251233   2.033   5.598   3.847 -0.7477  0.7526  0.6490
 9940TIP3   OH251234   1.943   4.179   3.755 -1.0794 -0.1856 -0.0104
 9940TIP3    H151235   1.952   4.142   3.843 -0.6296  0.1902  0.1022
 9940TIP3    H251236   2.025   4.225   3.739 -1.0130 -0.5487 -0.7716
 9941TIP3   OH251237   2.524   1.230   3.635 -0.5005  0.5254 -0.1723
 9941TIP3    H151238   2.505   1.324   3.638 -0.3008  0.5964 -0.9891
 9941TIP3    H251239   2.471   1.197   3.562  0.1958  0.1809 -0.5217
 9942TIP3   OH251240   1.395   5.711  16.157 -0.7409 -0.4093 -0.0578
 9942TIP3    H151241   1.370   5.775  16.224 -0.1672  0.5512 -0.7444
 9942TIP3    H251242   1.486   5.733  16.136 -0.8512 -0.8330 -0.9998
 9943TIP3   OH251243   3.518   3.275  11.180 -0.2207 -0.1211  0.0465
 9943TIP3    H151244   3.592   3.220  11.206 -0.3541  0.1026  0.9164
 9943TIP3    H251245   3.441   3.225  11.206 -0.4024 -0.5829 -1.3195
 9944TIP3   OH251246   6.651   1.031   5.473 -0.0081  0.4083  0.7275
 9944TIP3    H151247   6.621   1.122   5.470  2.5040  1.2070 -1.3793
 9944TIP3    H251248   6.743   1.037   5.495  0.7170 -1.4560 -1.5907
 9945TIP3   OH251249   3.392   6.662  13.990  0.2295 -0.0080 -0.5046
 9945TIP3    H151250   3.461   6.694  13.933  1.0149  0.7267  0.8233
 9945TIP3    H251251   3.425   6.678  14.079 -1.3192 -0.3325  0.1520
 9946TIP3   OH251252   5.793   1.198   0.455 -0.0559  0.2664 -0.1157
 9946TIP3    H151253   5.817   1.164   0.369 -0.1171 -0.3772  0.1240
 9946TIP3    H251254   5.848   1.151   0.517 -2.1780 -1.5431  0.4730
 9947TIP3   OH251255   1.006   4.522  12.075  0.2016  0.4129 -0.0909
 9947TIP3    H151256   1.012   4.503  12.168  1.8478 -0.7697 -0.4114
 9947TIP3    H251257   0.917   4.498  12.050  0.3919 -1.2003  0.7598
 9948TIP3   OH251258   2.661   4.370  14.197  0.5467  0.5120  0.0436
 9948TIP3    H151259   2.580   4.375  14.147  0.6249  1.0478 -0.0266
 9948TIP3    H251260   2.680   4.460  14.223  0.4205  0.2331  1.1663
 9949TIP3   OH251261   4.668   2.454   4.518  0.4700 -0.8975  0.1281
 9949TIP3    H151262   4.634   2.536   4.482 -0.1539 -1.1179  0.2024
 9949TIP3    H251263   4.734   2.426   4.456  0.0712 -0.7839 -0.3503
 9950TIP3   OH251264   6.159   5.347   0.350  0.6611 -0.7383 -0.2694
 9950TIP3    H151265   6.220   5.415   0.322  1.1571 -0.6727  0.9320
 9950TIP3    H251266   6.169   5.277   0.285  0.0036  0.4079 -1.6214
 9951TIP3   OH251267   0.465   4.832   1.543 -0.3628 -0.3039  0.0629
 9951TIP3    H151268   0.406   4.766   1.507  0.5783 -0.6280 -0.9204
 9951TIP3    H251269   0.442   4.912   1.496 -1.6107  0.1166  1.3674
 9952TIP3   OH251270   4.922   4.268  11.855 -0.3639 -0.3978 -0.2113
 9952TIP3    H151271   4.896   4.185  11.816 -0.1578 -0.6509  0.1875
 9952TIP3    H251272   4.839   4.309  11.882 -0.4294 -0.7184  0.0848
 9953TIP3   OH251273   1.129   0.349  12.094  0.2430 -0.7486 -0.2607
 9953TIP3    H151274   1.137   0.348  11.999 -1.0087 -0.9950 -0.3817
 9953TIP3    H251275   1.208   0.392  12.125 -1.2184  3.1100 -1.6379
 9954TIP3   OH251276   1.596   0.688  14.386  0.1269  0.0118  0.2323
 9954TIP3    H151277   1.547   0.701  14.305  1.2461  3.0336 -0.0535
 9954TIP3    H251278   1.675   0.641  14.359 -0.8768 -1.6442  0.1045
 9955TIP3   OH251279   2.926   5.333   3.627  0.3038  0.0131 -0.2242
 9955TIP3    H151280   2.916   5.290   3.712  2.5844 -1.8025 -0.8288
 9955TIP3    H251281   2.877   5.415   3.636 -2.0872 -1.5783  1.7675
 9956TIP3   OH251282   0.036   0.274  11.958  0.2985  0.2364 -0.1508
 9956TIP3    H151283   0.108   0.234  11.910  1.6990  2.4253  0.0330
 9956TIP3    H251284   0.077   0.345  12.008 -1.9976  1.6704 -0.2141
 9957TIP3   OH251285   1.607   6.066  12.952  0.3702  0.3872  0.2223
 9957TIP3    H151286   1.651   6.150  12.940  0.0084  0.1734 -2.9954
 9957TIP3    H251287   1.573   6.044  12.865  0.1976 -2.9473  1.0644
 9958TIP3   OH251288   3.402   1.355  12.375  0.5256  0.0160 -0.3849
 9958TIP3    H151289   3.383   1.338  12.283 -0.6182  0.9206 -0.3303
 9958TIP3    H251290   3.379   1.274  12.420 -0.2598  0.0479 -0.7280
 9959TIP3   OH251291   4.490   3.318  11.430  0.0478 -0.0030  0.0421
 9959TIP3    H151292   4.448   3.272  11.357  0.3743 -0.4807  0.1562
 9959TIP3    H251293   4.557   3.372  11.389 -2.2000  2.5839 -0.4007
 9960TIP3   OH251294   4.057   5.435   1.559 -0.0539  0.3827  0.0133
 9960TIP3    H151295   4.139   5.421   1.605 -0.4611  0.5879  0.8162
 9960TIP3    H251296   4.006   5.492   1.617 -0.2320  1.3667 -1.0869
 9961TIP3   OH251297   2.376   2.354  16.732  0.0851 -0.1645  0.1646
 9961TIP3    H151298   2.360   2.363  16.826 -0.2908  0.9932 -0.0062
 9961TIP3    H251299   2.458   2.306  16.726 -0.7611 -1.7567  1.0706
 9962TIP3   OH251300   6.060   0.777  11.859  0.0534  0.0191 -0.1162
 9962TIP3    H151301   6.040   0.750  11.948  0.9994 -0.4639 -0.0407
 9962TIP3    H251302   6.018   0.862  11.849  0.2658  0.2449  0.9176
 9963TIP3   OH251303   1.281   3.732   0.658 -0.0225 -0.0774 -0.0052
 9963TIP3    H151304   1.252   3.752   0.569 -2.3415 -0.6330  0.6071
 9963TIP3    H251305   1.373   3.761   0.660 -1.0283  3.4828 -1.3962
 9964TIP3   OH251306   2.763   0.381   2.161  0.4409 -0.2292  0.0483
 9964TIP3    H151307   2.676   0.343   2.149  0.3594 -0.2275  0.6060
 9964TIP3    H251308   2.746   0.468   2.198  0.7221 -0.8726  1.7319
 9965TIP3   OH251309   1.362   4.086   4.809 -0.3307  0.2135 -0.3765
 9965TIP3    H151310   1.448   4.129   4.808 -0.6358  0.8250 -0.4935
 9965TIP3    H251311   1.349   4.060   4.900  1.3986 -2.7763 -0.9003
 9966TIP3   OH251312   6.601   5.059   2.903  0.1238  0.0009 -0.3597
 9966TIP3    H151313   6.592   4.986   2.842 -1.0153 -0.6157  0.5249
 9966TIP3    H251314   6.580   5.021   2.989  0.1571  1.2152  0.1952
 9967TIP3   OH251315   2.259   6.468   0.489  0.4729  0.2510 -0.0822
 9967TIP3    H151316   2.209   6.399   0.533  1.3701  0.7425  1.7693
 9967TIP3    H251317   2.350   6.445   0.505  0.7792  1.9247  0.6727
 9968TIP3   OH251318   4.633   5.456   4.710 -0.3961  0.6037  0.4843
 9968TIP3    H151319   4.695   5.515   4.753  0.5544  1.8470 -2.4456
 9968TIP3    H251320   4.678   5.372   4.707  1.2138  1.4928 -1.5927
 9969TIP3   OH251321   4.466   1.764  14.146 -0.2985 -0.2128  0.0223
 9969TIP3    H151322   4.478   1.669  14.147 -0.9849 -0.2878  0.8113
 9969TIP3    H251323   4.463   1.786  14.053 -1.4585 -1.1269 -0.1638
 9970TIP3   OH251324   6.195   5.864   3.519  0.3831 -0.0496  0.2468
 9970TIP3    H151325   6.228   5.810   3.447 -0.0529  0.0535 -0.0309
 9970TIP3    H251326   6.233   5.824   3.597 -0.7631 -1.3872  0.1420
 9971TIP3   OH251327   4.193   2.565   3.066 -0.1930 -0.1614 -0.3490
 9971TIP3    H151328   4.220   2.618   3.141 -0.6962  0.7465 -0.7984
 9971TIP3    H251329   4.171   2.480   3.103  1.6497 -0.4015  0.2445
 9972TIP3   OH251330   5.986   2.858   2.142 -0.1510  0.2710 -0.7730
 9972TIP3    H151331   6.060   2.816   2.186  0.0681 -0.0199 -1.4225
 9972TIP3    H251332   5.987   2.948   2.175 -0.6081 -0.2056  0.5988
 9973TIP3   OH251333   4.789   5.966  13.396 -0.5578 -0.1692 -0.0614
 9973TIP3    H151334   4.828   5.880  13.413 -0.9591 -0.2408  0.4911
 9973TIP3    H251335   4.826   6.023  13.462 -0.6244 -0.0141 -0.1590
 9974TIP3   OH251336   0.361   6.672   2.090 -0.9032  0.4585  0.2552
 9974TIP3    H151337   0.405   6.756   2.107  0.6695  0.0424 -1.6016
 9974TIP3    H251338   0.300   6.690   2.018 -1.4824  0.2857  0.6948
 9975TIP3   OH251339   0.356   2.583  16.249 -0.0639  0.0891  0.1094
 9975TIP3    H151340   0.433   2.542  16.209  0.2930  0.4412  0.4233
 9975TIP3    H251341   0.339   2.660  16.194  0.9126  1.0182  1.0885
 9976TIP3   OH251342   4.332   3.327  16.157 -0.1712 -0.2145 -0.4048
 9976TIP3    H151343   4.420   3.364  16.165  0.6205 -2.0376 -0.4192
 9976TIP3    H251344   4.293   3.338  16.243  1.0078 -1.6399  0.3448
 9977TIP3   OH251345   3.897   4.229   6.032  0.6303 -0.0722  0.1768
 9977TIP3    H151346   3.923   4.173   6.105 -0.3476  0.5125  0.9963
 9977TIP3    H251347   3.979   4.261   5.995  1.1728 -1.5351  0.1068
 9978TIP3   OH251348   1.517   2.289  14.686 -0.2829  0.0912  0.7154
 9978TIP3    H151349   1.541   2.356  14.750  0.9663 -0.0409  0.3939
 9978TIP3    H251350   1.590   2.287  14.625 -0.2756 -1.6315  0.7641
 9979TIP3   OH251351   5.946   1.481  14.554 -0.4642 -0.3730 -0.3694
 9979TIP3    H151352   5.919   1.412  14.493 -1.1720 -0.6630  0.2649
 9979TIP3    H251353   5.882   1.477  14.625  1.2116 -1.0378  1.1446
 9980TIP3   OH251354   0.931   5.819  10.922  0.4740  0.5904 -0.2976
 9980TIP3    H151355   0.980   5.740  10.897 -1.7158 -1.1702  0.7974
 9980TIP3    H251356   0.899   5.854  10.839 -0.0879 -0.7227 -0.6419
 9981TIP3   OH251357   2.709   4.719  16.783  0.8734  0.3645  0.2008
 9981TIP3    H151358   2.623   4.744  16.747  0.7334  0.5919  0.6902
 9981TIP3    H251359   2.701   4.736  16.877  0.4418 -2.4142  0.6988
 9982TIP3   OH251360   4.566   4.252  16.785  0.1083 -0.2370 -0.0016
 9982TIP3    H151361   4.545   4.329  16.732 -0.9971 -0.4940  0.0630
 9982TIP3    H251362   4.657   4.232  16.762  0.2730  0.8377 -0.3246
 9983TIP3   OH251363   5.548   0.028   3.011 -0.2139  0.0380 -0.1049
 9983TIP3    H151364   5.475  -0.028   3.036 -0.1061 -0.5315 -1.0436
 9983TIP3    H251365   5.605   0.030   3.088  0.9410 -2.9878 -0.8404
 9984TIP3   OH251366   3.726   6.416   0.291 -0.1517 -0.0702  0.0687
 9984TIP3    H151367   3.760   6.354   0.356  1.4495 -0.2959 -0.9425
 9984TIP3    H251368   3.796   6.421   0.225 -2.6280 -1.5233 -2.7947
 9985TIP3   OH251369   1.546   6.084  16.032 -0.4711  0.1046 -0.5124
 9985TIP3    H151370   1.510   6.171  16.051 -1.9390 -0.8929  1.5323
 9985TIP3    H251371   1.472   6.025  16.046  1.2736 -1.7493  1.1621
 9986TIP3   OH251372   2.176   3.059   3.245  0.1893  0.1028 -0.3379
 9986TIP3    H151373   2.209   3.143   3.213 -0.9617  0.7560  0.1732
 9986TIP3    H251374   2.113   3.031   3.179 -0.8661  0.5863  0.4615
 9987TIP3   OH251375   2.371   1.042  10.918 -0.1757 -0.1559 -0.0305
 9987TIP3    H151376   2.339   1.089  10.841  2.1049  1.2723 -0.1425
 9987TIP3    H251377   2.418   0.967  10.882 -0.3642 -0.3015  0.0251
 9988TIP3   OH251378   6.105   5.006  13.191  0.4820  0.1468  0.9559
 9988TIP3    H151379   6.013   5.023  13.170  0.6351 -0.1317  0.0454
 9988TIP3    H251380   6.154   5.062  13.130  0.9281 -0.7056  0.5232
 9989TIP3   OH251381   1.301   3.943  17.113  0.2414 -1.0530 -0.2914
 9989TIP3    H151382   1.326   3.859  17.075  1.7064 -1.4837  1.5484
 9989TIP3    H251383   1.382   3.993  17.117 -0.4118  0.0319 -0.3014
 9990TIP3   OH251384   6.276   3.066  15.735  0.2066  0.0061  0.3032
 9990TIP3    H151385   6.348   3.095  15.790  2.2273 -1.2216 -1.5840
 9990TIP3    H251386   6.283   3.119  15.656 -0.5511 -0.5705 -0.1633
 9991TIP3   OH251387   5.044   5.147  11.326  0.2806 -0.1654  0.4848
 9991TIP3    H151388   5.109   5.077  11.326 -0.0003 -0.4717 -1.3379
 9991TIP3    H251389   5.088   5.222  11.365  1.2224 -0.8129  0.6741
 9992TIP3   OH251390   2.632   6.201  12.387  0.2550  0.4340 -0.0755
 9992TIP3    H151391   2.727   6.187  12.382  0.4097 -0.2573  3.4054
 9992TIP3    H251392   2.595   6.113  12.380  0.0294  0.4397  0.9327
 9993TIP3   OH251393   0.029   0.010  12.972  0.1705  0.6849 -0.2135
 9993TIP3    H151394   0.003  -0.082  12.968  1.0065  0.4733 -0.9988
 9993TIP3    H251395   0.124   0.008  12.973  0.1941  1.4840  1.6846
 9994TIP3   OH251396   6.626   5.789  16.496 -0.1004 -0.1649  0.5999
 9994TIP3    H151397   6.668   5.758  16.576 -1.6455 -0.4182  1.3269
 9994TIP3    H251398   6.628   5.885  16.504 -0.5052 -0.1904  1.0965
 9995TIP3   OH251399   3.080   1.684   3.129 -0.2832  0.0426  0.3229
 9995TIP3    H151400   3.035   1.654   3.050 -0.9669 -0.7119  0.9864
 9995TIP3    H251401   3.160   1.725   3.097 -1.0733  0.7211 -0.8301
 9996TIP3   OH251402   6.433   0.460   1.536  0.1839 -0.7509 -0.0289
 9996TIP3    H151403   6.350   0.418   1.561 -0.1768 -0.3726 -0.5671
 9996TIP3    H251404   6.423   0.551   1.563  0.6944 -0.8609  0.5162
 9997TIP3   OH251405   2.994   3.662   1.602 -0.1815  0.0708  0.3870
 9997TIP3    H151406   2.990   3.679   1.507  0.5746 -1.3143  0.1024
 9997TIP3    H251407   2.907   3.628   1.623  1.0607 -4.0396 -0.7082
 9998TIP3   OH251408   4.685   2.687  11.659  0.5532 -0.0610  0.0633
 9998TIP3    H151409   4.706   2.600  11.626  0.5126  0.4657 -1.3491
 9998TIP3    H251410   4.650   2.671  11.747 -0.7406 -1.5671 -0.7051
 9999TIP3   OH251411   2.021   0.565   1.236 -0.5717  0.7099 -0.0221
 9999TIP3    H151412   2.016   0.596   1.326 -1.9859  1.6180 -0.3974
 9999TIP3    H251413   2.110   0.531   1.228 -0.2458  1.1280  1.5513
10000TIP3   OH251414   4.333   1.356  16.663  0.4668 -0.1983  0.5018
10000TIP3    H151415   4.293   1.299  16.597  0.8142 -0.1370  0.2386
10000TIP3    H251416   4.402   1.302  16.702 -0.7055 -0.7531  1.8517
10001TIP3   OH251417   5.017   4.175   3.588  0.4474 -0.4203 -0.4056
10001TIP3    H151418   5.076   4.103   3.567 -0.1317 -0.9197 -0.3406
10001TIP3    H251419   5.015   4.228   3.509  1.1632 -0.2752 -0.3278
10002TIP3   OH251420   6.083   3.423  16.669  0.0550  0.1739  0.0862
10002TIP3    H151421   6.130   3.437  16.752  1.7500  2.0103 -1.1250
10002TIP3    H251422   6.050   3.334  16.675  0.2298  0.2413  2.7060
10003TIP3   OH251423   4.363   6.761  11.736  0.0404 -0.5738  0.0516
10003TIP3    H151424   4.349   6.850  11.703  0.2293  0.4754  2.6620
10003TIP3    H251425   4.329   6.704  11.667 -0.7106  1.5362 -1.3710
10004TIP3   OH251426   2.964   2.397  14.436  0.1615 -0.3283  0.1793
10004TIP3    H151427   2.937   2.306  14.440  1.2699 -0.6745 -0.2651
10004TIP3    H251428   2.954   2.429  14.526 -2.7161 -0.1510 -0.1485
10005TIP3   OH251429   2.961   5.212   0.113 -0.3065  0.3689 -0.0957
10005TIP3    H151430   2.948   5.258   0.196 -0.2684  0.6649 -0.2527
10005TIP3    H251431   2.889   5.149   0.109  0.4931 -0.6158  0.8141
10006TIP3   OH251432   1.035   1.489  13.347  0.1052 -0.8149 -0.0693
10006TIP3    H151433   1.000   1.401  13.363 -0.7405 -0.3328  0.8178
10006TIP3    H251434   0.991   1.544  13.413  0.3902  0.3209 -0.8248
10007TIP3   OH251435   5.973   0.917   4.465  0.2531  0.0248 -0.3316
10007TIP3    H151436   6.016   0.905   4.549  1.0541 -0.6450 -0.8332
10007TIP3    H251437   6.008   0.848   4.409 -2.0523 -1.0082 -0.5352
10008TIP3   OH251438   6.621   5.150   2.384  0.5806 -0.4609 -0.0761
10008TIP3    H151439   6.617   5.136   2.289 -0.4447  0.4229 -0.1680
10008TIP3    H251440   6.532   5.175   2.409  0.6309 -1.5582  1.2654
10009TIP3   OH251441   3.992   4.119  16.003  0.1560  0.2572  0.5391
10009TIP3    H151442   4.063   4.112  15.939  0.3700 -0.2915  0.8326
10009TIP3    H251443   3.959   4.208  15.993 -1.2324 -0.4650 -1.8451
10010TIP3   OH251444   6.631   0.206  11.161 -0.7277  0.1368  0.0014
10010TIP3    H151445   6.578   0.284  11.174 -1.3257  0.3710 -3.3980
10010TIP3    H251446   6.570   0.140  11.127  0.3296 -0.9219  0.1154
10011TIP3   OH251447   0.994   2.453   1.199  0.2612  0.0480 -0.1482
10011TIP3    H151448   0.994   2.537   1.244 -0.6716 -0.3435  0.6022
10011TIP3    H251449   1.082   2.418   1.213  0.3741  0.5091  0.2955
10012TIP3   OH251450   0.267   3.580   1.899  0.5924 -0.1893 -0.3609
10012TIP3    H151451   0.313   3.558   1.980  1.2953 -0.4524 -0.8300
10012TIP3    H251452   0.333   3.625   1.846  0.2367 -0.3523 -0.9414
10013TIP3   OH251453   6.279   6.281  11.997  0.1067  0.4697 -0.2426
10013TIP3    H151454   6.185   6.275  12.016 -0.0124  1.3371 -0.4887
10013TIP3    H251455   6.282   6.314  11.907  0.6421  1.0160 -0.0266
10014TIP3   OH251456   0.004   1.331   5.261 -0.3594 -0.1317 -0.1659
10014TIP3    H151457   0.037   1.263   5.202 -0.0186 -1.8963  1.9860
10014TIP3    H251458  -0.007   1.286   5.344 -1.7351  2.0903  0.8801
10015TIP3   OH251459   1.634   3.071  13.258  0.2550  0.2305 -0.2057
10015TIP3    H151460   1.636   2.975  13.267  1.6385  0.2767  0.0562
10015TIP3    H251461   1.685   3.088  13.179 -0.8227  0.6945 -0.8034
10016TIP3   OH251462   5.908   2.062   1.404 -0.0821  0.3083 -0.3700
10016TIP3    H151463   5.928   1.969   1.418 -0.0576  0.1866 -1.1908
10016TIP3    H251464   5.848   2.084   1.475 -0.0023 -0.3130 -0.1078
10017TIP3   OH251465   0.209   3.267  13.040  0.4071  0.2231 -0.1824
10017TIP3    H151466   0.225   3.211  12.964 -2.4943 -2.3344  0.9685
10017TIP3    H251467   0.154   3.338  13.006  0.0239 -0.3088 -0.6803
10018TIP3   OH251468   6.038   0.754   3.256 -0.0355  0.3881  0.1834
10018TIP3    H151469   6.063   0.662   3.253 -1.2804  0.0958 -2.5814
10018TIP3    H251470   6.117   0.802   3.232  0.5454  0.0468  1.3793
10019TIP3   OH251471   6.635   1.014  14.872  0.0438 -0.0845  0.1121
10019TIP3    H151472   6.710   1.073  14.868 -0.2511  0.2194 -1.1641
10019TIP3    H251473   6.653   0.947  14.806  0.3508 -1.4236  1.5103
10020TIP3   OH251474   1.884   5.977  15.662 -0.6088 -0.1533  0.2496
10020TIP3    H151475   1.884   5.984  15.566  0.9595 -0.4446  0.2065
10020TIP3    H251476   1.892   5.883  15.679  1.9637  0.0910  0.6196
10021TIP3   OH251477   4.346   1.287   3.937 -0.1129  0.4633 -0.6108
10021TIP3    H151478   4.251   1.293   3.938 -0.3016 -1.7735 -1.0668
10021TIP3    H251479   4.371   1.292   4.030 -0.7010  0.7699 -0.4647
10022TIP3   OH251480   2.120   5.237   3.961 -0.5749 -0.1789  0.5900
10022TIP3    H151481   2.073   5.305   3.913 -2.0951 -1.2557  0.5193
10022TIP3    H251482   2.052   5.178   3.991  0.8146 -2.1949 -0.1587
10023TIP3   OH251483   6.393   4.821   2.216  0.1522 -0.8420  1.2444
10023TIP3    H151484   6.388   4.917   2.210  1.2475 -0.5602  3.9210
10023TIP3    H251485   6.427   4.793   2.132 -1.7205  0.9782 -0.1737
10024TIP3   OH251486   3.956   4.770  12.645  0.2082 -0.7307  0.1075
10024TIP3    H151487   3.954   4.847  12.701  0.8457 -1.7054  1.4964
10024TIP3    H251488   3.881   4.717  12.675 -0.2572 -0.6228 -0.8664
10025TIP3   OH251489   1.620   5.314  14.137 -0.0092 -0.2281  0.4365
10025TIP3    H151490   1.689   5.350  14.192 -0.8035 -0.7042  1.7674
10025TIP3    H251491   1.545   5.372  14.151 -0.7686 -1.3838  1.2615
10026TIP3   OH251492   3.540   2.502   1.741 -0.7154 -0.1806  0.0087
10026TIP3    H151493   3.486   2.439   1.788  0.9969 -0.1201  2.1431
10026TIP3    H251494   3.558   2.572   1.804 -0.3002  1.0961 -1.4591
10027TIP3   OH251495   2.190   2.199   0.798 -0.0256 -0.4481 -0.0890
10027TIP3    H151496   2.133   2.159   0.863 -3.8393  2.1080 -1.7056
10027TIP3    H251497   2.196   2.291   0.825  2.3660 -0.4104 -0.6592
10028TIP3   OH251498   0.251   0.605  15.096  0.3445 -0.1243 -0.1167
10028TIP3    H151499   0.319   0.544  15.126 -1.4872 -3.3958 -2.2578
10028TIP3    H251500   0.175   0.584  15.150 -0.4964 -0.2605 -1.3294
10029TIP3   OH251501   2.955   3.714   3.802  0.1227  0.1115 -0.5279
10029TIP3    H151502   2.967   3.676   3.889 -1.1855 -0.7547 -0.6983
10029TIP3    H251503   2.987   3.647   3.741  0.7596  0.5917 -0.7284
10030TIP3   OH251504   3.708   6.206  11.658  0.3939  0.0124  0.2564
10030TIP3    H151505   3.763   6.235  11.585  0.0688 -0.5764 -0.2381
10030TIP3    H251506   3.756   6.231  11.737 -0.5155  3.1148 -0.1252
10031TIP3   OH251507   1.042   3.187  15.656 -0.2133 -0.4501  0.2108
10031TIP3    H151508   1.095   3.123  15.702 -2.2800 -2.3061  0.1025
10031TIP3    H251509   1.067   3.177  15.564  2.2086  1.6156  0.5823
10032TIP3   OH251510   5.176   2.560   4.375 -0.2788  0.2528  0.1013
10032TIP3    H151511   5.169   2.496   4.305 -0.5858  0.2647  0.1182
10032TIP3    H251512   5.100   2.617   4.362 -0.4897  0.0870  0.6109
10033TIP3   OH251513   3.250   2.344   4.576  0.2692 -0.0064  0.1942
10033TIP3    H151514   3.168   2.390   4.595  0.1535  0.1751 -0.7158
10033TIP3    H251515   3.306   2.364   4.650 -0.1072  0.8414  0.2606
10034TIP3   OH251516   6.782   5.853   5.289 -0.4873 -0.4276  0.1521
10034TIP3    H151517   6.731   5.832   5.367  1.2289 -2.5372  0.7503
10034TIP3    H251518   6.807   5.945   5.301 -2.2185 -0.0342  0.9137
10035TIP3   OH251519   3.765   3.514   3.935  0.1303 -0.9512 -0.0066
10035TIP3    H151520   3.673   3.492   3.953 -0.2812  0.2066 -0.6538
10035TIP3    H251521   3.765   3.546   3.845  1.2431 -1.3114 -0.1431
10036TIP3   OH251522   2.386   4.012   5.057  0.1361  0.5101  0.1985
10036TIP3    H151523   2.295   3.993   5.080 -0.1435  2.5308  0.8480
10036TIP3    H251524   2.437   3.975   5.130  0.2765 -4.8296 -2.3814
10037TIP3   OH251525   0.268   1.501  11.841  0.6054 -0.2507 -0.0303
10037TIP3    H151526   0.204   1.430  11.844  1.0249 -0.6643 -0.6570
10037TIP3    H251527   0.240   1.562  11.910  0.5510 -1.2888  0.8878
10038TIP3   OH251528   3.954   4.531  11.419 -0.2554  0.3198 -0.6653
10038TIP3    H151529   3.941   4.618  11.456 -1.3513 -0.0250 -0.2061
10038TIP3    H251530   4.030   4.540  11.362 -0.7039  1.7039 -1.0634
10039TIP3   OH251531   1.267   6.374   4.733 -0.2957 -0.4982 -0.2709
10039TIP3    H151532   1.311   6.290   4.734  0.6192 -0.0658 -1.9949
10039TIP3    H251533   1.278   6.406   4.643  0.5820  2.0813  0.7009
10040TIP3   OH251534   6.524   6.562  12.807 -0.1434 -0.1003  0.3537
10040TIP3    H151535   6.583   6.596  12.740 -2.5794  0.0594 -1.8285
10040TIP3    H251536   6.554   6.472  12.822 -0.9844 -1.0037 -2.8414
10041TIP3   OH251537   0.723   6.687  13.602  0.0190 -0.6448  0.1182
10041TIP3    H151538   0.756   6.746  13.669 -0.3997  0.3854 -0.5703
10041TIP3    H251539   0.767   6.714  13.522  0.1277 -1.5290 -0.1271
10042TIP3   OH251540   6.425   2.474  17.152  0.0499 -0.2227  0.1137
10042TIP3    H151541   6.509   2.459  17.196  0.2367  2.1002  0.5874
10042TIP3    H251542   6.360   2.436  17.210  0.3825  1.9787  1.9736
10043TIP3   OH251543   3.488   0.020   0.192 -0.2635  0.1382 -0.1120
10043TIP3    H151544   3.428   0.030   0.119 -0.6881  1.6222  0.4198
10043TIP3    H251545   3.562   0.077   0.171  0.1286 -0.2841  0.0964
10044TIP3   OH251546   0.531   4.576   1.361  0.1891 -0.4765 -0.7973
10044TIP3    H151547   0.452   4.630   1.368  0.7702  0.5743 -2.0643
10044TIP3    H251548   0.506   4.492   1.398 -1.0521  0.3407  0.2646
10045TIP3   OH251549   6.166   0.572   5.383 -0.3774  0.1494 -0.1281
10045TIP3    H151550   6.241   0.561   5.325 -1.2090 -0.6340 -1.0563
10045TIP3    H251551   6.196   0.536   5.467  0.2340 -0.3199 -0.5425
10046TIP3   OH251552   0.744   1.865   3.715  0.5719  0.6139  0.1516
10046TIP3    H151553   0.746   1.771   3.697  1.2293  0.9302 -1.4050
10046TIP3    H251554   0.814   1.902   3.662 -1.4242  2.3443 -1.3320
10047TIP3   OH251555   0.150   0.353  15.423  0.2915  0.9766  0.3205
10047TIP3    H151556   0.072   0.303  15.400  0.0339  1.5628 -0.0955
10047TIP3    H251557   0.220   0.288  15.429 -0.2988  0.3954  1.0520
10048TIP3   OH251558   0.617   2.350  11.932 -0.4339 -0.0644 -0.1328
10048TIP3    H151559   0.621   2.350  12.027 -0.4816 -0.2923 -0.1295
10048TIP3    H251560   0.683   2.286  11.905  0.7671  1.2161 -0.3059
10049TIP3   OH251561   0.019   3.413   0.511 -0.2400 -0.1535  0.1900
10049TIP3    H151562   0.073   3.490   0.493 -1.1717  0.5045  0.1912
10049TIP3    H251563  -0.029   3.436   0.591 -0.3839 -0.8088  0.2934
10050TIP3   OH251564   3.515   4.981  12.262 -0.2603 -0.1550 -0.7589
10050TIP3    H151565   3.500   4.952  12.351  0.5302  2.4337  0.2765
10050TIP3    H251566   3.431   4.969  12.218 -1.7842  2.1466  1.4117
10051TIP3   OH251567   0.758   2.535  16.475  0.1824  0.0816 -0.5414
10051TIP3    H151568   0.687   2.600  16.477  0.1001 -0.0445  0.9651
10051TIP3    H251569   0.723   2.460  16.524  1.0582 -0.3043 -0.5077
10052TIP3   OH251570   3.695   5.887   1.628 -0.3117 -0.1520  0.4007
10052TIP3    H151571   3.635   5.812   1.632  0.4990 -0.7386  1.9720
10052TIP3    H251572   3.757   5.872   1.699  0.3245  1.6303  0.2533
10053TIP3   OH251573   2.087   5.875  11.857  0.3139 -0.0389 -0.0558
10053TIP3    H151574   2.153   5.900  11.922  1.0562  0.4886 -1.0042
10053TIP3    H251575   2.112   5.787  11.830 -0.3013 -0.4687  0.7489
10054TIP3   OH251576   6.665   6.142   2.727 -0.7532 -0.0193  0.1189
10054TIP3    H151577   6.594   6.096   2.771  0.7470 -1.4354  1.1069
10054TIP3    H251578   6.735   6.078   2.720  0.3614  1.2838 -1.0437
10055TIP3   OH251579   2.529   4.108   0.687 -0.0332 -0.4103  0.2055
10055TIP3    H151580   2.466   4.129   0.756  0.2139 -1.7391  0.8478
10055TIP3    H251581   2.613   4.100   0.733  0.6630  1.5652 -0.6735
10056TIP3   OH251582   3.919   6.165   5.178 -0.4757  0.1842  0.4275
10056TIP3    H151583   3.929   6.124   5.092  0.9308  0.6851  0.3409
10056TIP3    H251584   4.001   6.144   5.224 -0.6376  1.0964  1.1364
10057TIP3   OH251585   4.741   0.799  16.935 -0.2439 -0.2704  0.2845
10057TIP3    H151586   4.717   0.869  16.875 -1.2484  1.3685  2.5417
10057TIP3    H251587   4.776   0.844  17.012 -0.8550 -2.2410  1.7549
10058TIP3   OH251588   1.583   5.937   4.481 -0.0000 -0.4207 -0.2891
10058TIP3    H151589   1.633   6.018   4.467 -0.3442 -0.0014  0.8311
10058TIP3    H251590   1.604   5.883   4.406  3.6058 -0.9907  1.0209
10059TIP3   OH251591   5.735   3.184  13.065 -0.2959 -0.0838  0.0662
10059TIP3    H151592   5.681   3.108  13.087 -0.7098  0.0311 -0.5441
10059TIP3    H251593   5.683   3.233  13.002  0.5162  0.0287 -0.5269
10060TIP3   OH251594   6.762   4.385  12.491 -0.6663 -0.5155  0.0991
10060TIP3    H151595   6.731   4.457  12.547  0.4951 -1.1243  1.5628
10060TIP3    H251596   6.817   4.332  12.549  0.8453 -0.9825 -1.7067
10061TIP3   OH251597   4.518   3.102  11.605 -0.3595  0.7212  0.5909
10061TIP3    H151598   4.461   3.125  11.678  1.9818  0.2958  2.6243
10061TIP3    H251599   4.500   3.169  11.539 -3.8606  0.0368  0.7549
10062TIP3   OH251600   5.452   0.553  14.211  0.3239  0.0120  0.3589
10062TIP3    H151601   5.499   0.523  14.288 -0.9626 -1.2081  0.6844
10062TIP3    H251602   5.431   0.473  14.162  0.5943  0.7143 -0.9418
10063TIP3   OH251603   1.129   0.426  11.588 -0.2149 -0.6125  0.0460
10063TIP3    H151604   1.102   0.335  11.595  1.6409 -1.1671  0.4280
10063TIP3    H251605   1.214   0.422  11.543 -0.6177  1.0118 -0.8971
10064TIP3   OH251606   5.986   4.690  12.684  0.2071  0.3134  0.1556
10064TIP3    H151607   6.067   4.664  12.641 -0.2847  0.1301 -0.6753
10064TIP3    H251608   5.917   4.661  12.624 -0.5534 -1.1811  1.6945
10065TIP3   OH251609   3.522   5.564  16.906  0.0861  0.0655 -0.1099
10065TIP3    H151610   3.478   5.614  16.837  0.6249  1.3178  0.4358
10065TIP3    H251611   3.603   5.532  16.865  0.0116  0.1072 -0.2921
10066TIP3   OH251612   5.601   5.348  14.585 -0.7963 -0.8246  0.2303
10066TIP3    H151613   5.532   5.414  14.597 -1.0688 -1.1460  0.4289
10066TIP3    H251614   5.641   5.370  14.500  0.3964  0.7757  1.1879
10067TIP3   OH251615   6.061   4.326   4.331 -0.6123 -0.0522 -0.2816
10067TIP3    H151616   6.067   4.419   4.350  0.4888 -0.5567  1.9195
10067TIP3    H251617   5.970   4.303   4.350 -0.2517  0.0645  1.6604
10068TIP3   OH251618   4.174   2.944   3.287 -0.4784 -0.2530  0.2938
10068TIP3    H151619   4.106   2.964   3.223 -1.1634 -1.1245  0.7360
10068TIP3    H251620   4.137   2.972   3.371  0.5459  1.1885  0.2726
10069TIP3   OH251621   5.733   0.322  12.520  0.3193 -0.0328  0.2067
10069TIP3    H151622   5.826   0.344  12.524  0.2094  0.1976  2.0420
10069TIP3    H251623   5.695   0.391  12.466  1.0217  0.5613  0.4616
10070TIP3   OH251624   6.189   3.343   0.737 -0.2387 -0.0602 -0.3759
10070TIP3    H151625   6.191   3.349   0.833 -0.1828  0.9695 -0.4381
10070TIP3    H251626   6.262   3.285   0.716  2.0416  2.5831 -0.0015
10071TIP3   OH251627   2.718   5.338   5.740 -0.1580 -0.3480 -0.0228
10071TIP3    H151628   2.695   5.362   5.650  0.8694  1.0918  0.0714
10071TIP3    H251629   2.636   5.343   5.788  0.0521  3.7746  0.1197
10072TIP3   OH251630   6.530   0.857   1.255 -0.5954  0.5908 -0.3211
10072TIP3    H151631   6.525   0.927   1.320  2.0977  1.3172 -0.8144
10072TIP3    H251632   6.619   0.864   1.219 -0.8001 -2.1080 -1.4902
10073TIP3   OH251633   1.934   4.026   0.025  0.3567 -0.0606  0.3234
10073TIP3    H151634   1.863   4.087   0.004  0.7971  1.6118  3.4180
10073TIP3    H251635   2.012   4.064  -0.015  0.4715  1.0144  1.5289
10074TIP3   OH251636   6.614   3.328   6.002 -0.4210 -0.1642  0.2222
10074TIP3    H151637   6.633   3.410   6.047  0.9859 -1.1242  1.3918
10074TIP3    H251638   6.614   3.351   5.909  2.2986  0.6998  0.4105
10075TIP3   OH251639   1.656   3.725  15.731 -0.1177 -0.1655 -0.0660
10075TIP3    H151640   1.647   3.792  15.663 -0.2632 -0.0136  0.1020
10075TIP3    H251641   1.748   3.698  15.725 -0.4638 -1.0989 -1.2003
10076TIP3   OH251642   1.351   0.239   0.095  0.2741  0.0474 -0.5269
10076TIP3    H151643   1.348   0.214   0.002 -3.1839  1.2720 -0.8015
10076TIP3    H251644   1.345   0.334   0.095 -0.8635 -0.0068  0.9884
10077TIP3   OH251645   5.198   0.752   2.895  0.1389  0.3885 -0.3797
10077TIP3    H151646   5.146   0.745   2.816 -1.7820  0.4366  0.8536
10077TIP3    H251647   5.218   0.662   2.919 -1.8432  0.2180  0.7222
10078TIP3   OH251648   0.374   1.990   3.292 -0.6044  0.4831  0.3491
10078TIP3    H151649   0.333   2.013   3.376 -1.5944 -0.6502  0.1947
10078TIP3    H251650   0.300   1.979   3.232  0.1476  2.1415 -0.9042
10079TIP3   OH251651   2.588   3.459  16.720  0.6084 -0.2949  0.1122
10079TIP3    H151652   2.605   3.502  16.637  1.0605  0.0978  0.4038
10079TIP3    H251653   2.675   3.446  16.759  0.4353 -0.9298  0.2920
10080TIP3   OH251654   3.681   3.621   1.141  0.3803 -0.0195 -0.2296
10080TIP3    H151655   3.646   3.614   1.230  2.0662 -1.5575  0.3378
10080TIP3    H251656   3.773   3.644   1.153  1.2179 -2.5063 -1.4641
10081TIP3   OH251657   2.546   6.667  12.809  0.6382 -0.7918  0.5204
10081TIP3    H151658   2.640   6.657  12.823  0.5672 -0.1111  1.5537
10081TIP3    H251659   2.506   6.598  12.862  0.5290 -0.6914  0.5697
10082TIP3   OH251660   3.308   3.020   4.327 -1.1428  0.3203 -0.2745
10082TIP3    H151661   3.264   3.016   4.411  0.5980  0.7133  0.6717
10082TIP3    H251662   3.311   2.929   4.297  0.5425 -0.1587  1.3046
10083TIP3   OH251663   4.799   4.309   1.566 -0.2164 -0.2176 -0.2777
10083TIP3    H151664   4.870   4.313   1.630 -0.9601 -1.7155  0.6774
10083TIP3    H251665   4.732   4.254   1.608 -2.0566  1.3996 -1.0472
10084TIP3   OH251666   3.285   2.897   1.124  0.0259 -0.5824 -0.2768
10084TIP3    H151667   3.369   2.876   1.166  0.0186 -0.1210 -0.0279
10084TIP3    H251668   3.299   2.877   1.031  0.6307  0.1523 -0.3445
10085TIP3   OH251669   6.010   2.772   5.026  0.2483 -0.6407 -0.4991
10085TIP3    H151670   6.075   2.841   5.042  1.5207 -1.5300 -1.7196
10085TIP3    H251671   5.934   2.818   4.990  1.7892 -0.0785 -3.1317
10086TIP3   OH251672   5.836   2.493   3.120  0.5436 -0.3806  0.5958
10086TIP3    H151673   5.780   2.567   3.098  0.8828 -0.0938  0.6814
10086TIP3    H251674   5.859   2.454   3.036 -1.7205 -1.9611  0.6748
10087TIP3   OH251675   6.564   0.312  13.817 -0.1742 -0.9407 -0.5221
10087TIP3    H151676   6.598   0.236  13.771  1.6575 -0.7460  0.4735
10087TIP3    H251677   6.559   0.381  13.751  2.9689 -0.4943 -0.3614
10088TIP3   OH251678   2.078   0.685   4.152  0.3040  0.4592  0.2380
10088TIP3    H151679   2.067   0.775   4.183 -0.8679  0.0717  1.0159
10088TIP3    H251680   1.994   0.643   4.172  0.7104 -0.7064 -0.4552
10089TIP3   OH251681   4.150   0.856  12.206  0.4360 -0.6820 -0.3115
10089TIP3    H151682   4.160   0.856  12.301 -2.9292 -0.7542  0.0724
10089TIP3    H251683   4.166   0.947  12.180  0.2313 -0.4231  0.4540
10090TIP3   OH251684   5.841   1.293   4.053 -0.1255 -0.0939  0.0648
10090TIP3    H151685   5.785   1.311   4.129 -1.0546  1.9687 -1.0862
10090TIP3    H251686   5.836   1.372   3.999  1.3813 -1.1112 -1.6399
10091TIP3   OH251687   4.512   0.359  16.423  0.4221 -0.0162  0.3338
10091TIP3    H151688   4.425   0.346  16.461  0.0896 -0.0269 -0.4184
10091TIP3    H251689   4.534   0.274  16.384  0.3664  0.2491 -0.2839
10092TIP3   OH251690   0.062   1.574   1.473  0.4265 -0.1713  0.0372
10092TIP3    H151691   0.149   1.568   1.433  0.5328  0.1260  0.2217
10092TIP3    H251692   0.078   1.563   1.567  0.3828  0.8540  0.1711
10093TIP3   OH251693   0.121   5.926   0.114 -0.3426  1.0914  0.1017
10093TIP3    H151694   0.060   5.864   0.073  0.8683  0.8615 -1.3927
10093TIP3    H251695   0.203   5.878   0.121  0.2660  2.1216  0.0843
10094TIP3   OH251696   6.561   3.981  13.684 -0.2460 -0.5514  0.0072
10094TIP3    H151697   6.488   3.919  13.690  0.0833 -0.9734 -0.3326
10094TIP3    H251698   6.529   4.060  13.728 -0.9184 -0.7244 -0.1695
10095TIP3   OH251699   1.383   3.852  15.069  0.0152  0.3594 -0.2826
10095TIP3    H151700   1.319   3.781  15.072 -0.8039  1.0703 -0.6417
10095TIP3    H251701   1.468   3.808  15.057 -0.1643 -0.7013  1.9720
10096TIP3   OH251702   0.391   5.938  16.098  0.4361  0.4035 -0.0518
10096TIP3    H151703   0.468   5.978  16.057 -0.6400  1.1421 -1.3946
10096TIP3    H251704   0.393   5.847  16.067  0.6946  0.4624 -0.2104
10097TIP3   OH251705   6.187   6.487  15.709  0.1318  0.2733 -0.2208
10097TIP3    H151706   6.163   6.566  15.662 -0.3258  0.5040  0.3969
10097TIP3    H251707   6.198   6.515  15.800  4.5811  0.5669 -0.7248
10098TIP3   OH251708   2.323   1.169   4.702 -0.0938  0.1622  0.4307
10098TIP3    H151709   2.228   1.176   4.694 -0.0935 -0.7289 -0.4076
10098TIP3    H251710   2.339   1.171   4.797 -0.9626  0.0295  0.5828
10099TIP3   OH251711   0.257   4.645   3.956  0.1588  0.1957 -0.5325
10099TIP3    H151712   0.290   4.678   4.039 -0.6635  0.4946 -0.3242
10099TIP3    H251713   0.188   4.705   3.931 -1.6174 -1.5548  0.0423
10100TIP3   OH251714   3.268   0.354   2.235 -0.5558 -0.0349  0.0807
10100TIP3    H151715   3.251   0.446   2.214 -0.0835 -0.4683 -2.3531
10100TIP3    H251716   3.185   0.309   2.216 -0.0670 -0.4653 -1.0933
10101TIP3   OH251717   1.784   1.324  16.273 -0.7016  0.2066 -0.4186
10101TIP3    H151718   1.865   1.294  16.312  0.6004  1.7423 -1.8503
10101TIP3    H251719   1.732   1.358  16.346  1.1316  1.8033  0.1761
10102TIP3   OH251720   6.655   3.238   2.438  1.0062  0.1470  0.4659
10102TIP3    H151721   6.689   3.316   2.394  0.8163  0.7816  1.4192
10102TIP3    H251722   6.661   3.168   2.372  0.8944  1.0308 -0.4963
10103TIP3   OH251723   3.148   0.690   0.660 -0.0719 -0.4048 -0.7874
10103TIP3    H151724   3.190   0.745   0.595  0.5265  2.7719  2.1084
10103TIP3    H251725   3.207   0.615   0.671  2.4778  1.6314 -0.1717
10104TIP3   OH251726   0.310   5.786   4.661 -0.0466  0.0524 -0.3386
10104TIP3    H151727   0.325   5.754   4.750 -1.5235  0.1049 -0.0599
10104TIP3    H251728   0.350   5.720   4.605 -0.5901 -0.8414  0.3222
10105TIP3   OH251729   4.565   1.638   0.713  0.1800 -0.2215  0.0836
10105TIP3    H151730   4.534   1.600   0.631  0.2063 -1.1325  0.4891
10105TIP3    H251731   4.625   1.707   0.686 -0.0585 -0.3005 -0.6699
10106TIP3   OH251732   1.594   6.668   4.272 -0.0082 -0.1460 -0.5446
10106TIP3    H151733   1.567   6.715   4.193  0.0581  0.0584 -0.4463
10106TIP3    H251734   1.673   6.713   4.301 -0.7305  0.5670  0.3429
10107TIP3   OH251735   6.639   0.906  16.577  0.2550  0.4051 -0.6465
10107TIP3    H151736   6.723   0.953  16.568  0.1004  0.5496 -1.3302
10107TIP3    H251737   6.624   0.868  16.491  0.5299 -1.1772 -0.0042
10108TIP3   OH251738   5.248   1.002  16.174  0.8651 -0.2523 -0.5011
10108TIP3    H151739   5.296   1.030  16.252  0.3282 -0.7358  0.0035
10108TIP3    H251740   5.250   0.907  16.178 -0.5475 -0.2704 -0.2269
10109TIP3   OH251741   2.133   4.894  11.720 -0.1357  0.0765  0.0165
10109TIP3    H151742   2.065   4.948  11.761 -1.5409  0.6468 -2.9064
10109TIP3    H251743   2.178   4.953  11.660 -1.6180 -1.8891 -3.1399
10110TIP3   OH251744   1.713   0.519  16.242  0.0329  0.1155  1.0545
10110TIP3    H151745   1.715   0.553  16.332  0.5697  0.0951  1.0535
10110TIP3    H251746   1.800   0.482  16.229 -0.1258 -0.1034  0.6090
10111TIP3   OH251747   6.622   6.207  10.723  0.2203 -0.4924 -0.4917
10111TIP3    H151748   6.668   6.282  10.759 -0.8008 -1.5094  3.1668
10111TIP3    H251749   6.529   6.227  10.736 -0.0905 -1.9602 -0.3539
10112TIP3   OH251750   3.359   1.674   4.889  0.0026 -0.0983 -0.4752
10112TIP3    H151751   3.329   1.659   4.799  2.8956  0.2274 -1.5613
10112TIP3    H251752   3.322   1.758   4.914 -1.8930 -0.7934 -0.8451
10113TIP3   OH251753   5.094   5.020   0.764  0.1195 -0.1605 -0.2623
10113TIP3    H151754   5.013   5.068   0.746  0.2283  0.0166 -0.2808
10113TIP3    H251755   5.085   4.938   0.715 -1.3902 -1.5081  2.2090
10114TIP3   OH251756   4.993   2.797  11.762 -0.5227  0.4230  0.0375
10114TIP3    H151757   5.076   2.760  11.793  0.5128  1.3299 -1.6146
10114TIP3    H251758   4.929   2.770  11.828  1.5220  1.8394  2.6457
10115TIP3   OH251759   4.621   3.109  14.200 -0.1615  0.8695 -0.2479
10115TIP3    H151760   4.627   3.177  14.266 -2.5026  1.4186 -0.5368
10115TIP3    H251761   4.548   3.054  14.229  0.0985 -0.0604 -1.3196
10116TIP3   OH251762   4.160   5.627   4.739  0.2212 -0.1153  0.9374
10116TIP3    H151763   4.132   5.697   4.681  0.5882  0.6886  1.7167
10116TIP3    H251764   4.249   5.607   4.710 -0.1982 -0.8664  0.1516
10117TIP3   OH251765   4.662   5.325   2.638 -0.3036 -0.4007  0.0553
10117TIP3    H151766   4.704   5.378   2.705 -0.8399  0.1886 -0.0734
10117TIP3    H251767   4.585   5.375   2.611  0.7452  0.0952 -2.1262
10118TIP3   OH251768   6.248   1.918   1.536  0.0780 -0.0412  0.2798
10118TIP3    H151769   6.310   1.876   1.477 -0.9200 -0.2019 -0.6686
10118TIP3    H251770   6.270   2.011   1.532 -0.6120  0.0664 -1.1085
10119TIP3   OH251771   2.661   6.508   5.702  0.2187  0.0115 -0.0232
10119TIP3    H151772   2.720   6.571   5.742  0.2182 -1.1553  1.8592
10119TIP3    H251773   2.648   6.541   5.613  0.6888  2.3177  0.7320
10120TIP3   OH251774   5.849   0.987   3.167 -0.3853  0.3799 -0.3717
10120TIP3    H151775   5.762   0.962   3.135  0.0320 -0.7666 -0.6496
10120TIP3    H251776   5.887   0.904   3.198  0.4633  0.9369  0.0951
10121TIP3   OH251777   5.477   4.543  14.121  0.5147 -0.1564 -0.1425
10121TIP3    H151778   5.558   4.520  14.075  0.8819  0.6812  0.0777
10121TIP3    H251779   5.494   4.518  14.212  0.4533 -0.1602 -0.1328
10122TIP3   OH251780   1.594   0.278  15.153  0.3940 -0.5791  0.1352
10122TIP3    H151781   1.642   0.242  15.228  1.8084  1.9360  0.4741
10122TIP3    H251782   1.503   0.255  15.170  0.9920 -2.0888  1.4200
10123TIP3   OH251783   1.843   2.687  11.461  0.0219  0.0519 -0.0147
10123TIP3    H151784   1.898   2.669  11.537 -0.4033  0.4571  0.3848
10123TIP3    H251785   1.793   2.607  11.448  2.1065 -1.0401 -1.5621
10124TIP3   OH251786   4.741   5.124   0.881  0.3369  0.3679 -0.6338
10124TIP3    H151787   4.774   5.081   0.802 -1.3000  0.5516 -1.4383
10124TIP3    H251788   4.819   5.137   0.936  1.2501 -1.1566 -1.5440
10125TIP3   OH251789   3.697   5.390   0.771  0.6879 -0.4699 -0.1854
10125TIP3    H151790   3.721   5.306   0.811  0.8011  0.1473  1.0840
10125TIP3    H251791   3.706   5.376   0.677 -0.2366 -2.1842 -0.0465
10126TIP3   OH251792   4.875   3.542   5.456 -0.6367  0.2215 -0.2903
10126TIP3    H151793   4.937   3.604   5.495  1.0049 -1.1711 -0.6268
10126TIP3    H251794   4.882   3.464   5.510 -2.1809  0.0767 -0.2911
10127TIP3   OH251795   3.520   5.813   4.273 -0.4102 -0.3190  0.3832
10127TIP3    H151796   3.543   5.805   4.366 -0.2159 -0.8772  0.2894
10127TIP3    H251797   3.425   5.803   4.271 -0.4106 -0.3437  0.5174
10128TIP3   OH251798   5.490   3.973   1.615 -0.5147 -0.3345  0.2922
10128TIP3    H151799   5.427   3.936   1.554  0.8584 -0.5303 -1.0413
10128TIP3    H251800   5.569   3.986   1.563  0.4563  0.1784  1.8529
10129TIP3   OH251801   5.149   4.563  14.443 -0.2158  0.2814  0.0135
10129TIP3    H151802   5.170   4.471  14.428 -1.4901 -0.2998  1.6247
10129TIP3    H251803   5.178   4.580  14.533  0.6435  1.6480 -0.5097
10130TIP3   OH251804   3.967   2.545   5.634 -0.0886 -0.4371  0.1279
10130TIP3    H151805   3.932   2.542   5.545 -0.6779  0.6701  0.3095
10130TIP3    H251806   3.889   2.547   5.690  0.2756 -0.2435  0.6323
10131TIP3   OH251807   4.167   3.162  13.819 -0.4311 -0.1675 -0.4048
10131TIP3    H151808   4.204   3.095  13.762  1.8700  1.3974 -0.8110
10131TIP3    H251809   4.167   3.123  13.906  2.3418 -0.1878 -0.3763
10132TIP3   OH251810   0.699   2.748  15.913 -0.5165 -0.3483 -0.2592
10132TIP3    H151811   0.698   2.776  16.004 -0.0725 -0.6571 -0.1624
10132TIP3    H251812   0.644   2.813  15.868  2.9000  2.5334 -0.5381
10133TIP3   OH251813   5.248   6.768  16.402 -0.0274  0.2449 -0.0142
10133TIP3    H151814   5.265   6.851  16.358  0.3851 -0.6014 -1.4587
10133TIP3    H251815   5.252   6.790  16.495  3.0816  1.2782 -0.3288
10134TIP3   OH251816   2.862   0.893  17.054  0.5523  0.4812 -0.6515
10134TIP3    H151817   2.950   0.902  17.093  0.3437  0.8148 -0.2516
10134TIP3    H251818   2.818   0.829  17.109  0.5775  0.2442 -0.9075
10135TIP3   OH251819   0.950   5.951   5.279 -0.7945 -0.5605  0.0020
10135TIP3    H151820   0.892   5.878   5.260 -2.4338  0.3022  1.5290
10135TIP3    H251821   0.894   6.029   5.271 -0.3874  0.1534  3.4649
10136TIP3   OH251822   6.113   0.875   5.949  0.0270 -0.0682 -0.2018
10136TIP3    H151823   6.112   0.853   5.856 -2.8531 -1.6604  0.1784
10136TIP3    H251824   6.122   0.970   5.950 -0.7967  0.0615 -2.1192
10137TIP3   OH251825   1.981   5.117   4.760  0.1186  0.5893  0.9106
10137TIP3    H151826   1.925   5.181   4.805 -0.2385  1.8001 -1.1723
10137TIP3    H251827   2.068   5.156   4.762  0.4451 -0.1747  2.0507
10138TIP3   OH251828   1.021   0.508   3.775 -0.1366 -0.5877  0.5291
10138TIP3    H151829   1.026   0.488   3.868  1.8949  0.3498  0.6503
10138TIP3    H251830   1.063   0.594   3.767  1.9514 -1.7455 -1.5525
10139TIP3   OH251831   2.611   1.481  15.163  0.5738  0.3963  0.4485
10139TIP3    H151832   2.555   1.559  15.169  0.3181  0.3019 -0.6345
10139TIP3    H251833   2.607   1.456  15.071 -2.9440 -3.5406  1.4838
10140TIP3   OH251834   1.194   0.699   6.092 -0.3028  0.1334  0.6771
10140TIP3    H151835   1.247   0.765   6.137  0.1937  0.1619  0.0638
10140TIP3    H251836   1.197   0.726   6.000 -0.9832 -0.1431  0.5736
10141TIP3   OH251837   2.219   0.950   2.487  0.2369 -0.3092 -0.1581
10141TIP3    H151838   2.208   0.904   2.403  0.5347 -0.7333  0.0310
10141TIP3    H251839   2.262   0.886   2.543  1.6305  0.5793 -0.2093
10142TIP3   OH251840   3.637   1.010  14.815 -0.1928  0.5792  0.1333
10142TIP3    H151841   3.654   1.058  14.734  1.3960  0.4648  0.3805
10142TIP3    H251842   3.550   1.040  14.843 -0.1488  1.6761 -0.8514
10143TIP3   OH251843   5.997   6.283  12.055  0.4050  0.1087 -0.5156
10143TIP3    H151844   5.956   6.345  11.995 -0.8358  0.1812  0.3926
10143TIP3    H251845   5.935   6.275  12.127  0.6384 -2.0449 -0.5249
10144TIP3   OH251846   3.691   1.512   4.684  0.6044 -0.3779  0.2621
10144TIP3    H151847   3.785   1.495   4.691  1.2999  3.0414  0.1380
10144TIP3    H251848   3.663   1.531   4.773  0.6275  1.3224 -0.0784
10145TIP3   OH251849   0.579   0.031   5.039  0.0486 -0.4008 -0.1023
10145TIP3    H151850   0.606   0.022   4.948 -0.1964 -0.1278 -0.2025
10145TIP3    H251851   0.632  -0.033   5.086  1.1450  0.3997 -0.2444
10146TIP3   OH251852   6.142   5.482   5.015  1.0989 -0.1784  0.1622
10146TIP3    H151853   6.134   5.407   5.075  2.2765 -0.5488 -0.1160
10146TIP3    H251854   6.237   5.497   5.010  0.8529  1.4173  0.3054
10147TIP3   OH251855   1.080   4.076  13.076 -0.2023 -0.4198  0.5296
10147TIP3    H151856   1.021   4.023  13.129 -0.6382  0.4478  0.9202
10147TIP3    H251857   1.031   4.156  13.059  0.9522  0.4079  1.0531
10148TIP3   OH251858   1.796   4.893  12.585 -0.2981 -0.3376 -0.1438
10148TIP3    H151859   1.790   4.977  12.630 -1.2243 -1.3661  1.7239
10148TIP3    H251860   1.767   4.829  12.650  2.3605 -2.3440 -0.8251
10149TIP3   OH251861   3.718   2.639  15.612  0.3640 -0.1167 -0.0069
10149TIP3    H151862   3.806   2.672  15.594  0.4097 -0.7055 -0.8881
10149TIP3    H251863   3.720   2.548  15.583 -1.1626  0.4632 -2.0472
10150TIP3   OH251864   0.042   6.237  14.370  0.0251  0.5704 -0.1634
10150TIP3    H151865   0.063   6.281  14.287  2.7003  0.2580  0.2791
10150TIP3    H251866  -0.001   6.304  14.422  1.0779  1.6886 -0.7043
10151TIP3   OH251867   4.572   5.509  14.685 -0.1544 -0.0103 -0.2020
10151TIP3    H151868   4.633   5.569  14.642 -0.8668 -0.2888 -1.6487
10151TIP3    H251869   4.624   5.431  14.703  0.4243  0.5121  0.4442
10152TIP3   OH251870   0.931   6.317  13.377  0.3222  0.0227 -0.3279
10152TIP3    H151871   0.934   6.289  13.468  2.3453  1.2744  0.0036
10152TIP3    H251872   0.871   6.391  13.376  0.6539  0.2983  0.0767
10153TIP3   OH251873   2.356   4.175  15.535 -0.4066  0.3030 -0.0025
10153TIP3    H151874   2.279   4.195  15.589 -2.4560 -2.3043 -1.8509
10153TIP3    H251875   2.405   4.112  15.588  0.6663  2.1893  1.3085
10154TIP3   OH251876   6.153   0.718  12.615 -0.0138  0.1856 -0.1429
10154TIP3    H151877   6.141   0.623  12.614 -0.1294  0.2035 -1.4522
10154TIP3    H251878   6.235   0.731  12.662  0.0593 -0.5751 -0.0522
10155TIP3   OH251879   5.220   6.313  14.399  0.1848 -0.2561 -0.0602
10155TIP3    H151880   5.190   6.386  14.453 -0.5603 -0.6659  0.0968
10155TIP3    H251881   5.232   6.241  14.460  0.4403 -0.4046 -0.2829
10156TIP3   OH251882   2.120   2.029   4.074 -0.0438 -0.2128  0.5159
10156TIP3    H151883   2.187   1.997   4.014  1.2337  3.0136  0.1475
10156TIP3    H251884   2.149   2.001   4.161  0.4241 -1.0161  0.1011
10157TIP3   OH251885   4.153   0.215  17.190  0.2302  0.5003  0.5716
10157TIP3    H151886   4.243   0.205  17.159 -0.3404 -0.4194 -0.8100
10157TIP3    H251887   4.099   0.180  17.119 -1.2256  1.1836  1.3249
10158TIP3   OH251888   5.365   3.774   4.526  0.2367 -0.4396 -0.3722
10158TIP3    H151889   5.448   3.805   4.489 -0.0700  1.5051  0.5336
10158TIP3    H251890   5.381   3.771   4.620 -0.7479  0.0174 -0.1897
10159TIP3   OH251891   2.872   0.470  16.154  0.2389  0.0135  0.1313
10159TIP3    H151892   2.790   0.430  16.184  0.6652 -0.2415  0.9624
10159TIP3    H251893   2.920   0.398  16.114  0.9626 -0.3046  1.5373
10160TIP3   OH251894   6.441   1.579   4.526 -0.5981 -0.2957  0.1205
10160TIP3    H151895   6.536   1.571   4.520 -0.9005 -3.2229 -1.4715
10160TIP3    H251896   6.411   1.493   4.553 -2.8691  0.3134 -0.3581
10161TIP3   OH251897   2.036   2.077  13.123 -0.0431  0.1303  0.2941
10161TIP3    H151898   2.033   2.068  13.218 -0.5190 -0.5913  0.2123
10161TIP3    H251899   1.947   2.055  13.094 -0.5953  2.7069 -0.1087
10162TIP3   OH251900   2.373   2.952   0.616  0.0790 -0.1454  0.0044
10162TIP3    H151901   2.293   2.948   0.669 -0.2353 -1.2604 -0.5352
10162TIP3    H251902   2.345   2.992   0.534  0.1988 -0.0110  0.0289
10163TIP3   OH251903   5.330   4.495  13.185  0.0879  0.2573  0.3149
10163TIP3    H151904   5.381   4.548  13.125 -0.9242 -0.5913 -1.3315
10163TIP3    H251905   5.259   4.552  13.214 -0.7149 -0.0248 -1.0671
10164TIP3   OH251906   3.526   2.157   4.058 -0.5371 -0.0552 -0.4061
10164TIP3    H151907   3.474   2.078   4.053  2.2339 -2.0604  0.8525
10164TIP3    H251908   3.592   2.148   3.989  0.1913  0.8463  0.1439
10165TIP3   OH251909   1.031   1.008   5.807 -0.0891 -0.2661 -0.2177
10165TIP3    H151910   1.089   0.938   5.836 -0.9559 -1.0211 -0.2824
10165TIP3    H251911   1.085   1.087   5.811  0.8716 -0.9222 -0.0748
10166TIP3   OH251912   1.019   2.860   5.813 -0.1486 -0.3601  0.2260
10166TIP3    H151913   1.103   2.863   5.858 -0.5003 -2.2731  1.0848
10166TIP3    H251914   1.040   2.870   5.720  1.0179 -0.6996  0.4497
10167TIP3   OH251915   2.713   6.527  11.331 -0.3372 -0.5863 -0.2263
10167TIP3    H151916   2.647   6.462  11.357 -0.4264 -1.0308 -1.5197
10167TIP3    H251917   2.797   6.483  11.347 -0.3112  0.1645  1.8989
10168TIP3   OH251918   5.954   4.664   3.869 -0.1223 -0.2103  0.0911
10168TIP3    H151919   6.029   4.605   3.862 -1.3827 -1.6925 -1.5139
10168TIP3    H251920   5.907   4.653   3.786 -0.9613  2.2995  0.1784
10169TIP3   OH251921   0.636   2.294   0.147 -0.0888 -0.5915  0.2805
10169TIP3    H151922   0.629   2.289   0.052  1.6667  0.4967  0.0721
10169TIP3    H251923   0.720   2.336   0.163 -0.3897 -0.6986  2.3213
10170TIP3   OH251924   0.691   0.759  15.104 -0.2046 -0.2133 -0.1201
10170TIP3    H151925   0.750   0.832  15.088  0.2143 -0.5375 -0.0663
10170TIP3    H251926   0.616   0.798  15.149  0.0452  0.1693 -0.0345
10171TIP3   OH251927   2.387   6.716  14.288 -0.5380  0.1893  0.2019
10171TIP3    H151928   2.455   6.739  14.350 -0.5489  2.4988 -0.5824
10171TIP3    H251929   2.434   6.675  14.215 -0.1194  0.6843  0.1897
10172TIP3   OH251930   6.356   5.022  16.790  1.0628  0.3321 -0.1175
10172TIP3    H151931   6.350   5.012  16.695 -2.9154  0.9299 -0.0304
10172TIP3    H251932   6.424   5.088  16.803  1.3043  0.6193 -2.5711
10173TIP3   OH251933   5.287   3.496  14.680  0.1121 -0.0375  0.1230
10173TIP3    H151934   5.206   3.521  14.637  0.8354 -1.4263 -2.1732
10173TIP3    H251935   5.265   3.415  14.728 -0.7610  1.6583  2.6816
10174TIP3   OH251936   5.878   1.943  10.974 -1.1930 -0.6071  0.3031
10174TIP3    H151937   5.974   1.935  10.972 -1.4082 -3.8307 -0.1591
10174TIP3    H251938   5.861   2.033  10.946  1.7808  0.9692  3.2357
10175TIP3   OH251939   1.776   1.285  12.903 -0.0649 -0.5859 -0.0104
10175TIP3    H151940   1.833   1.315  12.832 -1.1717  1.3927 -0.1085
10175TIP3    H251941   1.691   1.272  12.861 -0.2464 -1.3407  0.5733
10176TIP3   OH251942   0.794   4.687   2.082 -0.4115 -0.5978  0.2167
10176TIP3    H151943   0.880   4.647   2.067 -0.5873 -0.2181 -1.9468
10176TIP3    H251944   0.813   4.775   2.113 -0.0135  0.0051 -1.7280
10177TIP3   OH251945   6.626   3.266   1.078  0.5926 -0.3841  0.0476
10177TIP3    H151946   6.559   3.208   1.113 -0.4033 -0.2161 -1.5232
10177TIP3    H251947   6.643   3.233   0.989 -0.8016  2.3333 -1.3069
10178TIP3   OH251948   6.179   2.433  15.967 -0.5169  0.0310 -0.2543
10178TIP3    H151949   6.134   2.414  16.049 -0.2638  1.2447  0.1756
10178TIP3    H251950   6.185   2.528  15.965  1.3130 -0.0860 -0.6986
10179TIP3   OH251951   5.542   5.347  16.918  0.1468  0.1725 -0.3432
10179TIP3    H151952   5.589   5.285  16.973  0.1885  0.6872  0.2077
10179TIP3    H251953   5.514   5.416  16.978 -1.7033 -0.3351 -0.5730
10180TIP3   OH251954   0.773   5.046   1.356 -0.0132  0.0760 -0.7254
10180TIP3    H151955   0.792   5.072   1.447  1.8267  0.8260 -1.2918
10180TIP3    H251956   0.820   4.963   1.345  0.9872  0.7210 -1.4177
10181TIP3   OH251957   3.039   4.319  14.436  0.2443  0.6313  0.3981
10181TIP3    H151958   3.035   4.245  14.496  0.0059  1.7103  1.7279
10181TIP3    H251959   2.964   4.306  14.377 -0.4434  0.3808  1.3125
10182TIP3   OH251960   5.620   1.607   1.314 -0.1604 -0.0897 -0.0441
10182TIP3    H151961   5.627   1.519   1.276  2.1593 -0.3788  0.9820
10182TIP3    H251962   5.690   1.657   1.271 -0.6736  0.9228  0.2904
10183TIP3   OH251963   5.027   1.777  16.705  0.0711 -0.1937 -0.0409
10183TIP3    H151964   5.065   1.724  16.776 -1.9178 -1.8478 -0.1675
10183TIP3    H251965   4.982   1.848  16.749 -0.0243 -0.4613  0.2975
10184TIP3   OH251966   5.486   4.014   3.714 -0.2293  0.2950  0.1768
10184TIP3    H151967   5.491   3.930   3.760  1.8756  0.8136  0.9802
10184TIP3    H251968   5.507   3.992   3.623 -0.3312 -0.1454  0.2561
10185TIP3   OH251969   0.261   1.450   6.563  0.1874 -0.2835  0.2862
10185TIP3    H151970   0.309   1.470   6.483 -1.1149  0.4613 -0.3303
10185TIP3    H251971   0.242   1.536   6.601 -1.5675 -0.5032 -0.0420
10186TIP3   OH251972   3.918   1.474   5.208 -0.2327 -0.3090 -0.0120
10186TIP3    H151973   3.828   1.482   5.175  0.3005 -0.6291 -1.6049
10186TIP3    H251974   3.958   1.559   5.190  0.0186 -0.4338 -0.0417
10187TIP3   OH251975   2.738   2.841  12.966  0.5435  0.6091  0.6153
10187TIP3    H151976   2.669   2.826  13.031  0.7933 -1.1216  0.4849
10187TIP3    H251977   2.769   2.930  12.985 -0.8134  0.9013  1.5176
10188TIP3   OH251978   6.152   2.783   2.719  0.1861 -0.1948 -0.1722
10188TIP3    H151979   6.101   2.830   2.653  0.6250  0.9250  0.2675
10188TIP3    H251980   6.182   2.852   2.779  0.4300 -1.1001  0.7615
10189TIP3   OH251981   6.452   3.951  12.463  0.1408 -0.6388  0.5434
10189TIP3    H151982   6.375   3.898  12.483 -0.9451  0.3051 -0.9974
10189TIP3    H251983   6.509   3.893  12.413 -0.8793 -0.4861 -0.8231
10190TIP3   OH251984   1.391   3.534   2.530 -0.0837  0.2063 -0.0672
10190TIP3    H151985   1.407   3.456   2.477  1.2270  0.0934  0.4676
10190TIP3    H251986   1.309   3.517   2.575 -0.6723 -0.1428 -1.2468
10191TIP3   OH251987   0.382   0.635   4.437 -0.3384  0.1600 -0.0741
10191TIP3    H151988   0.406   0.614   4.527 -1.6194  0.1244  0.2661
10191TIP3    H251989   0.299   0.682   4.444 -0.5814 -0.0664 -1.2433
10192TIP3   OH251990   4.158   4.356  12.103  0.4672 -0.0943 -0.2517
10192TIP3    H151991   4.186   4.283  12.047  0.5646  0.7879 -1.3812
10192TIP3    H251992   4.070   4.331  12.132  1.0737 -1.3268  0.5746
10193TIP3   OH251993   4.037   0.294  12.816  0.0917  0.2858  0.5890
10193TIP3    H151994   4.057   0.282  12.723 -0.6008  0.2469  0.4379
10193TIP3    H251995   4.081   0.221  12.859 -1.2510 -0.8685  0.0618
10194TIP3   OH251996   6.215   1.737   1.921  0.4289 -0.4342 -0.3800
10194TIP3    H151997   6.168   1.754   1.839  3.3876 -0.0398 -2.0384
10194TIP3    H251998   6.198   1.815   1.975  1.8855  1.2569 -2.2836
10195TIP3   OH251999   4.688   2.394   3.009  0.1475  0.5310 -0.2126
10195TIP3    H152000   4.631   2.404   3.086 -3.0416  0.2460 -2.4055
10195TIP3    H252001   4.668   2.306   2.977  2.6088  0.0537 -0.4907
10196TIP3   OH252002   3.863   4.605   1.240  0.1572 -0.2051  0.1014
10196TIP3    H152003   3.905   4.662   1.304 -0.4367 -0.2149  0.5014
10196TIP3    H252004   3.878   4.649   1.156 -0.1258  0.4406  0.3844
10197TIP3   OH252005   3.022   6.273   5.309 -0.2006 -0.1352 -0.1146
10197TIP3    H152006   2.970   6.253   5.232 -0.1150 -1.3599  0.1341
10197TIP3    H252007   3.072   6.351   5.285 -1.9765  0.9222 -0.4196
10198TIP3   OH252008   5.967   2.083  15.982  0.1581 -0.2700  0.0563
10198TIP3    H152009   5.988   2.155  16.042  0.2231 -0.4936  0.3043
10198TIP3    H252010   5.947   2.126  15.899 -1.9854  0.1703  0.7800
10199TIP3   OH252011   3.033   1.556   1.423  0.1637 -0.1202  0.6774
10199TIP3    H152012   2.992   1.507   1.352 -0.1253 -2.0466  2.1079
10199TIP3    H252013   3.124   1.569   1.394  0.0665 -0.9631 -0.0150
10200TIP3   OH252014   2.065   4.918  11.435 -0.2611  0.1428 -0.7974
10200TIP3    H152015   2.102   4.830  11.445  1.8330  1.1593  0.8400
10200TIP3    H252016   1.971   4.906  11.448  0.1193 -1.6970  0.4539
10201TIP3   OH252017   0.111   4.906   4.679  0.4643  0.5574 -0.4429
10201TIP3    H152018   0.130   4.919   4.772  0.8122  1.2162 -0.5986
10201TIP3    H252019   0.182   4.851   4.647  1.0438  1.3864 -0.5937
10202TIP3   OH252020   4.968   2.364  11.562 -0.4526  0.7783 -0.0541
10202TIP3    H152021   5.013   2.311  11.497  0.0753  0.1418  0.8107
10202TIP3    H252022   5.027   2.437  11.580 -0.2485  0.5338  0.2766
10203TIP3   OH252023   2.805   2.110  15.637  0.1472 -0.2938  0.2419
10203TIP3    H152024   2.767   2.084  15.721 -1.0511 -5.6492 -1.8018
10203TIP3    H252025   2.729   2.119  15.579  0.9586  3.4218 -0.4062
10204TIP3   OH252026   4.851   2.132  13.356 -0.3524 -0.0582  0.2546
10204TIP3    H152027   4.823   2.083  13.278 -2.2236  0.3482  0.6486
10204TIP3    H252028   4.921   2.188  13.325  0.4548 -1.5227 -0.6511
10205TIP3   OH252029   0.625   3.204   1.216 -0.4249 -0.3274  0.2387
10205TIP3    H152030   0.532   3.225   1.221 -0.9271 -2.4956  0.3393
10205TIP3    H252031   0.631   3.139   1.146  1.1896  0.6863 -0.5985
10206TIP3   OH252032   4.941   6.481  14.951  0.1398  0.2334  0.2548
10206TIP3    H152033   5.001   6.412  14.979  0.9163  1.0232  0.5321
10206TIP3    H252034   4.921   6.530  15.031 -0.0006  0.6516 -0.0314
10207TIP3   OH252035   2.042   1.150  12.316  0.3452  0.3822 -0.2758
10207TIP3    H152036   2.117   1.101  12.284 -0.3663 -0.4361 -0.7181
10207TIP3    H252037   2.036   1.127  12.409 -0.1236 -0.5747 -0.5308
10208TIP3   OH252038   3.399   0.532  16.934  0.3927 -0.6656  0.0588
10208TIP3    H152039   3.418   0.609  16.881  1.9703 -1.6257 -0.8277
10208TIP3    H252040   3.369   0.466  16.872  2.7797 -1.9731  0.2352
10209TIP3   OH252041   2.891   5.006   5.753  0.4797  0.3591 -0.5872
10209TIP3    H152042   2.926   5.061   5.823 -0.5747  0.6356 -0.2681
10209TIP3    H252043   2.940   4.925   5.759  0.3081  0.3335  0.5649
10210TIP3   OH252044   3.465   5.546   2.411 -0.0500 -0.4031  0.3558
10210TIP3    H152045   3.529   5.479   2.384 -0.1814 -1.5824  2.8212
10210TIP3    H252046   3.497   5.577   2.495 -0.9608  1.4219  0.0580
10211TIP3   OH252047   4.298   6.036  16.876 -0.3859 -0.2608  0.2837
10211TIP3    H152048   4.320   5.961  16.820  2.8720 -0.3034  1.4868
10211TIP3    H252049   4.262   5.996  16.955  2.4140 -0.6994  1.3955
10212TIP3   OH252050   6.155   4.705   2.288 -0.1237 -0.2689  0.0686
10212TIP3    H152051   6.105   4.772   2.333  0.0951 -0.0023 -0.0792
10212TIP3    H252052   6.242   4.744   2.278  0.1749 -0.8128  0.5292
10213TIP3   OH252053   1.660   2.542  15.891 -0.6523  0.6746  0.4199
10213TIP3    H152054   1.685   2.454  15.920 -1.0564  1.5403  3.5854
10213TIP3    H252055   1.564   2.542  15.894 -0.6947  0.9269 -0.5872
10214TIP3   OH252056   5.435   2.635   0.918  0.2132 -0.1652  0.1838
10214TIP3    H152057   5.380   2.630   0.997 -0.9015  1.7071 -0.4434
10214TIP3    H252058   5.454   2.544   0.897 -1.5328 -0.8062  1.2006
10215TIP3   OH252059   1.377   5.951  16.297 -0.0402 -0.2325 -0.6623
10215TIP3    H152060   1.293   5.989  16.324  0.1224  0.3241 -0.9395
10215TIP3    H252061   1.442   6.018  16.320  0.4065 -0.9728  0.2448
10216TIP3   OH252062   3.632   5.047  13.143 -0.3706  0.1055  0.2300
10216TIP3    H152063   3.692   5.067  13.072 -0.7742  2.1332  0.4444
10216TIP3    H252064   3.659   4.960  13.174  2.5794  1.0518  0.4535
10217TIP3   OH252065   3.506   0.703  13.791  0.0866 -0.7127 -0.4821
10217TIP3    H152066   3.476   0.618  13.759 -2.3658 -0.8865  2.0766
10217TIP3    H252067   3.448   0.766  13.746  0.0205 -0.5969 -0.2338
10218TIP3   OH252068   5.861   2.373   4.139  0.1074  0.0748  0.2431
10218TIP3    H152069   5.821   2.352   4.223  1.5314  0.9950  1.1828
10218TIP3    H252070   5.809   2.446   4.105  0.5979  0.8567  1.1594
10219TIP3   OH252071   1.643   3.403  13.302 -0.4021  0.2555  0.4494
10219TIP3    H152072   1.568   3.344  13.312 -0.9532  1.0946  1.3368
10219TIP3    H252073   1.712   3.362  13.354 -0.6185  0.0948  0.6148
10220TIP3   OH252074   3.473   4.863  12.500 -0.2041 -0.7772 -0.3192
10220TIP3    H152075   3.526   4.784  12.513 -0.5385 -0.8575  0.6041
10220TIP3    H252076   3.384   4.836  12.524 -0.5299 -0.4373 -1.1401
10221TIP3   OH252077   4.755   0.035   5.442  0.5544 -0.0361  0.1615
10221TIP3    H152078   4.797   0.027   5.356  1.9215  1.0201  0.7204
10221TIP3    H252079   4.826   0.029   5.505 -0.0717  2.0074  1.1185
10222TIP3   OH252080   5.316   3.698   3.098 -0.0445 -0.0325 -0.2744
10222TIP3    H152081   5.251   3.659   3.156  0.6408 -0.0250  0.5036
10222TIP3    H252082   5.290   3.790   3.091 -1.1802 -0.4195 -1.4510
10223TIP3   OH252083   3.217   3.632  13.302 -0.0087 -0.2866  0.0326
10223TIP3    H152084   3.312   3.644  13.300 -0.2311  1.6363  0.4214
10223TIP3    H252085   3.189   3.672  13.384 -1.1869 -0.6909 -0.1614
10224TIP3   OH252086   6.464   6.267   1.188  0.4554 -0.4832 -0.1510
10224TIP3    H152087   6.534   6.204   1.206 -1.1058 -2.0753  0.5884
10224TIP3    H252088   6.408   6.262   1.265 -0.7495  0.3549 -0.9708
10225TIP3   OH252089   1.893   3.067   4.590  0.6851  0.0302 -0.4183
10225TIP3    H152090   1.884   3.050   4.496 -0.8192  1.9743 -0.6690
10225TIP3    H252091   1.983   3.098   4.601  1.7071 -2.7050 -0.7779
10226TIP3   OH252092   4.052   2.660  16.479  0.0986 -0.4816 -0.3904
10226TIP3    H152093   4.091   2.732  16.429 -0.5647  0.1717  0.0325
10226TIP3    H252094   4.124   2.597  16.490  1.1370  0.8451  0.6537
10227TIP3   OH252095   2.462   1.887   3.406 -0.2778  0.1138  0.2373
10227TIP3    H152096   2.503   1.902   3.321 -0.1691  1.1954  0.4736
10227TIP3    H252097   2.533   1.855   3.462  0.2600  1.9569  0.6378
10228TIP3   OH252098   1.614   4.889   1.203  0.6868  0.3383 -0.4852
10228TIP3    H152099   1.632   4.800   1.236 -1.2021 -0.3731 -1.2780
10228TIP3    H252100   1.518   4.892   1.195  0.4399  3.4786  2.3932
10229TIP3   OH252101   2.966   0.998   2.937  0.1921 -0.0834 -0.5323
10229TIP3    H152102   2.987   1.016   3.029 -0.9452 -1.1769 -0.0366
10229TIP3    H252103   3.027   1.052   2.887  0.0389  1.4428  0.8773
10230TIP3   OH252104   4.658   3.026  14.524  0.3797 -0.3430  0.1094
10230TIP3    H152105   4.740   3.029  14.573  0.1146  1.8649  0.4662
10230TIP3    H252106   4.673   2.961  14.455  1.7896 -1.2749  1.2586
10231TIP3   OH252107   2.056   3.612   3.669 -0.1740 -0.8818 -0.5282
10231TIP3    H152108   2.083   3.631   3.760  0.3685 -1.0308 -0.6539
10231TIP3    H252109   2.009   3.530   3.675 -1.4738 -0.1265 -0.1576
10232TIP3   OH252110   0.915   0.836  14.409  0.2360 -0.8496  0.7425
10232TIP3    H152111   0.995   0.852  14.459  0.6899 -1.3455  0.1910
10232TIP3    H252112   0.939   0.766  14.348 -1.1083 -2.2241  1.7469
10233TIP3   OH252113   5.152   5.143  13.563  0.2613  0.4006 -0.0884
10233TIP3    H152114   5.198   5.194  13.496 -1.3582  1.1526 -0.6557
10233TIP3    H252115   5.136   5.058  13.522 -0.2981  0.6967 -0.4870
10234TIP3   OH252116   4.985   5.991   0.432  0.7291  0.0834  0.2657
10234TIP3    H152117   4.901   5.970   0.474  0.3178 -0.9226 -1.0393
10234TIP3    H252118   5.022   6.060   0.487 -0.6346  0.0536  1.2543
10235TIP3   OH252119   6.754   2.413   1.704  0.4782 -0.0016  0.2706
10235TIP3    H152120   6.821   2.415   1.773  0.2367 -2.2290  0.5984
10235TIP3    H252121   6.780   2.340   1.647  0.1661  1.2411 -1.5082
10236TIP3   OH252122   4.823   5.670   1.258  0.1850  0.1516 -0.0731
10236TIP3    H152123   4.747   5.671   1.200 -1.9694  0.2103  2.6248
10236TIP3    H252124   4.898   5.652   1.200 -2.0910 -1.7951 -2.5501
10237TIP3   OH252125   6.346   2.177   0.245 -0.0030 -0.3842 -0.2452
10237TIP3    H152126   6.386   2.175   0.158  0.3057 -0.9039 -0.0972
10237TIP3    H252127   6.362   2.089   0.280 -1.0008 -0.4911 -0.0588
10238TIP3   OH252128   4.062   2.795   2.300 -0.0096  0.3621 -0.4024
10238TIP3    H152129   4.029   2.789   2.211  4.2441 -1.6268 -2.0002
10238TIP3    H252130   4.131   2.862   2.296  0.5025 -0.0267  1.2882
10239TIP3   OH252131   1.218   5.583  14.374  0.3436 -0.5239  0.5534
10239TIP3    H152132   1.215   5.675  14.347 -0.4350 -1.0374 -1.1211
10239TIP3    H252133   1.163   5.579  14.452 -0.0675  0.3293  0.3101
10240TIP3   OH252134   1.568   3.428   0.088  0.2041  0.1238  0.4486
10240TIP3    H152135   1.585   3.492   0.019  0.4410  0.4345  0.7881
10240TIP3    H252136   1.498   3.467   0.140 -0.0467 -0.1573  0.3233
10241TIP3   OH252137   1.529   4.663   0.827 -0.1046  0.3427  0.1587
10241TIP3    H152138   1.484   4.583   0.798  0.7003 -1.1361  2.8123
10241TIP3    H252139   1.617   4.655   0.792  0.1729 -0.2654  0.9969
10242TIP3   OH252140   0.211   1.661  11.254  0.4016 -0.0314 -0.2113
10242TIP3    H152141   0.120   1.674  11.282  0.4587  2.6443 -1.1270
10242TIP3    H252142   0.207   1.593  11.187 -0.9747  0.3673 -0.5320
10243TIP3   OH252143   4.926   1.334  16.084 -0.2621 -0.3708  0.4569
10243TIP3    H152144   4.929   1.344  16.179 -0.4403  1.0047  0.3191
10243TIP3    H252145   5.017   1.316  16.059 -0.3754 -1.7664  0.9841
10244TIP3   OH252146   3.497   5.429   3.784 -0.0029  0.0230 -0.2904
10244TIP3    H152147   3.451   5.503   3.824  0.4266 -0.7925  1.7862
10244TIP3    H252148   3.436   5.356   3.793  0.2863 -0.2695 -0.7102
10245TIP3   OH252149   1.222   4.793   4.911  0.4320  0.4801 -0.0004
10245TIP3    H152150   1.257   4.793   4.822 -0.9204  1.1195 -0.5507
10245TIP3    H252151   1.214   4.700   4.934  1.9952  0.3256 -0.0494
10246TIP3   OH252152   3.898   0.854   4.797  0.0064 -0.4566  0.1359
10246TIP3    H152153   3.951   0.846   4.718  0.9886 -2.2800  0.9291
10246TIP3    H252154   3.957   0.894   4.862 -1.3462  2.7274 -0.5183
10247TIP3   OH252155   3.681   6.105   0.323 -0.0151 -0.4477 -0.4554
10247TIP3    H152156   3.704   6.153   0.402 -1.9065 -0.1377 -0.0909
10247TIP3    H252157   3.609   6.154   0.284 -0.0075 -1.3531 -1.6539
10248TIP3   OH252158   0.286   2.535  14.661  0.3930  0.6184  0.4375
10248TIP3    H152159   0.365   2.483  14.681 -0.1284  0.0627  1.0775
10248TIP3    H252160   0.296   2.614  14.714  0.9745  0.9687 -0.1945
10249TIP3   OH252161   5.949   4.601  16.554 -0.4816 -0.2623  0.1647
10249TIP3    H152162   6.017   4.653  16.511  1.5703 -2.6943  0.3128
10249TIP3    H252163   5.988   4.575  16.638 -2.1162 -0.5956  0.8481
10250TIP3   OH252164   0.706   2.784   5.731 -0.0586  0.3290 -0.0384
10250TIP3    H152165   0.766   2.758   5.661  0.6210 -0.0539  0.6748
10250TIP3    H252166   0.725   2.722   5.802 -1.0519  0.4361  0.3162
10251TIP3   OH252167   6.532   5.750  11.888  0.2307  0.4688  0.0898
10251TIP3    H152168   6.605   5.721  11.834 -0.1365  2.0773 -1.3131
10251TIP3    H252169   6.474   5.673  11.894  1.5064 -0.4822  0.3335
10252TIP3   OH252170   4.345   0.644  12.211 -0.1891 -0.2144  0.2524
10252TIP3    H152171   4.294   0.574  12.170  0.4207 -0.1398 -0.6562
10252TIP3    H252172   4.287   0.720  12.208  0.0886 -0.0374 -1.1032
10253TIP3   OH252173   1.859   4.300  13.274  0.4386  0.3943 -0.0386
10253TIP3    H152174   1.848   4.278  13.367  1.5019 -0.1857 -0.0485
10253TIP3    H252175   1.803   4.238  13.228  0.1286  0.4966  0.1931
10254TIP3   OH252176   2.306   3.825   5.261  0.2274 -0.7220 -0.1820
10254TIP3    H152177   2.215   3.808   5.286 -0.0491  0.3194 -0.4618
10254TIP3    H252178   2.337   3.889   5.324  0.5068 -0.4374 -0.6077
10255TIP3   OH252179   6.416   4.823  12.036  0.0085  0.9778 -0.0013
10255TIP3    H152180   6.462   4.741  12.052 -0.0651  0.9380  0.0064
10255TIP3    H252181   6.350   4.801  11.970  0.0887  1.0655 -0.1110
10256TIP3   OH252182   3.914   5.084   3.170 -0.5932  0.4461  0.0155
10256TIP3    H152183   3.831   5.053   3.206 -0.9747  0.6743 -0.6607
10256TIP3    H252184   3.890   5.130   3.089  0.1154  1.1785  0.2123
10257TIP3   OH252185   0.992   3.708  15.571  0.1522 -0.7380 -0.4249
10257TIP3    H152186   0.945   3.703  15.655  0.6147 -0.1628 -0.1295
10257TIP3    H252187   1.061   3.642  15.579 -0.7854 -1.7853 -0.9720
10258TIP3   OH252188   4.458   4.976  13.597 -0.5079 -0.4417  0.3716
10258TIP3    H152189   4.448   5.064  13.635  0.1463 -0.5990  0.9025
10258TIP3    H252190   4.398   4.922  13.648 -1.8097 -0.0833 -0.7281
10259TIP3   OH252191   3.211   0.095  11.888  0.0210 -0.4479  0.5619
10259TIP3    H152192   3.136   0.151  11.869 -0.1657 -1.7920 -3.1360
10259TIP3    H252193   3.175   0.027  11.946 -1.6973 -1.1149 -1.2134
10260TIP3   OH252194   0.592   6.645  11.924 -0.1009  0.0070 -0.9021
10260TIP3    H152195   0.578   6.568  11.978  0.7475  1.1699  1.0753
10260TIP3    H252196   0.525   6.707  11.952  1.5653  1.3341  0.2655
10261TIP3   OH252197   0.964   5.598  10.517  0.5249  0.3458  0.2165
10261TIP3    H152198   1.036   5.657  10.494 -0.0402  1.6590  1.7030
10261TIP3    H252199   0.992   5.555  10.597  0.6461 -0.9352 -0.5044
10262TIP3   OH252200   5.931   4.810  13.704  0.4871 -0.3786 -0.1810
10262TIP3    H152201   6.005   4.826  13.762  1.6921 -1.0922 -1.4895
10262TIP3    H252202   5.933   4.883  13.642  0.8581 -1.0675 -0.9843
10263TIP3   OH252203   1.468   6.683   5.126  0.1171 -0.3094  0.6979
10263TIP3    H152204   1.486   6.761   5.073  0.9254 -0.6996  0.4011
10263TIP3    H252205   1.372   6.677   5.128  0.0870 -0.5849 -1.1567
10264TIP3   OH252206   1.772   5.090   0.012 -0.0879 -0.7131  0.3241
10264TIP3    H152207   1.716   5.132  -0.053 -0.7631 -0.0196  1.3373
10264TIP3    H252208   1.855   5.139   0.007 -0.5264  0.0977  0.7815
10265TIP3   OH252209   1.409   6.102  12.102 -0.4402  0.2574 -0.2476
10265TIP3    H152210   1.466   6.049  12.046 -0.2135 -1.7684  1.8490
10265TIP3    H252211   1.460   6.182  12.119  0.8318 -0.5369 -0.2626
10266TIP3   OH252212   4.936   1.536   4.980 -0.0925 -0.5195 -0.3793
10266TIP3    H152213   5.007   1.526   4.916 -0.5859  1.2988 -1.2360
10266TIP3    H252214   4.968   1.603   5.041 -1.2486  0.6628 -1.0478
10267TIP3   OH252215   1.836   5.418  14.294 -0.7316  0.5463 -0.1971
10267TIP3    H152216   1.844   5.344  14.354  1.5263  0.8008 -0.1302
10267TIP3    H252217   1.791   5.485  14.345 -0.9505 -0.0625  0.4215
10268TIP3   OH252218   2.543   2.944  15.602 -0.0220  0.3540  0.1488
10268TIP3    H152219   2.451   2.967  15.617 -0.7491 -2.2463 -0.0945
10268TIP3    H252220   2.540   2.884  15.527  1.8575  0.1747  0.2086
10269TIP3   OH252221   4.392   1.903   2.876 -0.3400  0.5018  0.7970
10269TIP3    H152222   4.400   1.820   2.921 -1.9754  0.1921  0.5712
10269TIP3    H252223   4.430   1.967   2.936  3.2600 -0.7082 -0.1136
10270TIP3   OH252224   4.406   1.364  12.490  0.2414  0.2999  0.1491
10270TIP3    H152225   4.320   1.339  12.456  1.2412 -1.3423 -1.2914
10270TIP3    H252226   4.396   1.456  12.515 -2.0090  0.0554  0.3164
10271TIP3   OH252227   6.560   2.173   4.131 -0.3459 -0.0935  0.3239
10271TIP3    H152228   6.465   2.169   4.146 -0.7395  0.4814 -1.7571
10271TIP3    H252229   6.595   2.097   4.177 -1.6476  0.4036  2.2134
10272TIP3   OH252230   4.611   1.707   2.557  0.1179  0.8846 -0.1262
10272TIP3    H152231   4.578   1.797   2.559  0.6115  1.0705 -0.0839
10272TIP3    H252232   4.641   1.696   2.467  3.5067  2.0577  0.7738
10273TIP3   OH252233   0.561   4.054  10.875  0.6625  0.1445  1.1568
10273TIP3    H152234   0.531   4.101  10.797 -0.8611 -0.1006  1.5884
10273TIP3    H252235   0.620   3.987  10.840 -1.4829 -1.1970  0.0025
10274TIP3   OH252236   1.354   3.485  16.053 -0.9788 -0.2697  0.4275
10274TIP3    H152237   1.447   3.466  16.059 -1.1978 -1.0119  1.9241
10274TIP3    H252238   1.320   3.422  15.990 -0.3958  0.3042 -0.4601
10275TIP3   OH252239   2.051   0.285   2.382  0.3475  0.1239  0.1726
10275TIP3    H152240   2.040   0.242   2.297 -2.2707  0.3483  0.3752
10275TIP3    H252241   2.110   0.358   2.365  0.6135 -0.4187 -1.2494
10276TIP3   OH252242   4.841   6.117   2.786 -0.4634 -0.0328 -0.0195
10276TIP3    H152243   4.824   6.205   2.752 -0.8087 -1.1718 -2.9546
10276TIP3    H252244   4.755   6.076   2.790 -0.3348 -0.1975  1.6004
10277TIP3   OH252245   1.580   1.762  10.856 -0.0834  0.2899  0.1807
10277TIP3    H152246   1.551   1.679  10.819 -1.9471  1.0584 -0.1272
10277TIP3    H252247   1.531   1.828  10.808  1.6589  1.6091  0.1736
10278TIP3   OH252248   3.577   1.818  15.095  0.3735  0.3368 -0.3387
10278TIP3    H152249   3.611   1.816  15.184 -0.4423  0.5973 -0.0114
10278TIP3    H252250   3.514   1.746  15.092  2.0814 -1.1652 -1.4189
10279TIP3   OH252251   6.479   3.001   4.984 -0.1969  0.1984  0.1701
10279TIP3    H152252   6.519   3.069   5.037 -0.6213  0.8681 -0.3674
10279TIP3    H252253   6.445   3.047   4.907 -1.0689 -0.5176  0.1239
10280TIP3   OH252254   6.669   3.885   0.219  0.1360 -0.2051  0.1156
10280TIP3    H152255   6.715   3.895   0.135  0.3944  0.2518  0.3112
10280TIP3    H252256   6.579   3.912   0.200 -0.1912 -1.6019 -0.3958
10281TIP3   OH252257   5.911   3.835   4.234 -0.3379  0.0837 -0.5999
10281TIP3    H152258   5.878   3.847   4.323  1.4206 -0.4654  0.1468
10281TIP3    H252259   5.943   3.745   4.233  0.4706  0.3813 -1.5156
10282TIP3   OH252260   5.770   5.759   3.960  0.6099  0.6500 -0.0452
10282TIP3    H152261   5.788   5.751   3.866  1.2339 -0.0825  0.1351
10282TIP3    H252262   5.856   5.754   4.001  0.0856 -1.9262  0.7703
10283TIP3   OH252263   1.724   2.786  12.931  0.3107  0.1872 -1.1617
10283TIP3    H152264   1.753   2.806  12.842 -0.4190  0.0826 -1.4269
10283TIP3    H252265   1.630   2.769  12.922  0.0063  1.3103 -0.1991
10284TIP3   OH252266   1.449   0.890  13.421  0.3773  0.5247 -0.0159
10284TIP3    H152267   1.374   0.866  13.475  0.1712  0.0363 -0.5152
10284TIP3    H252268   1.431   0.980  13.394 -0.6727 -0.0188 -1.1875
10285TIP3   OH252269   2.457   5.924  15.489  0.4670 -0.5676  0.4489
10285TIP3    H152270   2.505   5.998  15.452 -0.0579 -1.1885 -1.5564
10285TIP3    H252271   2.524   5.861  15.514  0.8842  0.3073  1.5758
10286TIP3   OH252272   1.898   3.192   1.130  0.0584  0.0653  0.0990
10286TIP3    H152273   1.919   3.267   1.186  0.8494  0.0982 -0.2379
10286TIP3    H252274   1.983   3.157   1.105 -0.3074 -1.2797  0.7077
10287TIP3   OH252275   0.913   4.413   3.294  0.0550 -0.0051 -0.1254
10287TIP3    H152276   0.831   4.421   3.246 -0.0518  0.9401  0.2046
10287TIP3    H252277   0.974   4.470   3.249 -0.0984  1.0362  0.9494
10288TIP3   OH252278   0.353   4.778   0.685 -0.1780  0.0573 -0.4382
10288TIP3    H152279   0.301   4.780   0.765  0.3891  4.5612 -0.0301
10288TIP3    H252280   0.290   4.755   0.616 -1.6407  0.5155  0.7119
10289TIP3   OH252281   1.535   6.448   3.439 -0.1064  0.2297  0.4502
10289TIP3    H152282   1.441   6.430   3.439  0.6000 -3.8902  0.1765
10289TIP3    H252283   1.563   6.427   3.350  1.2281  0.4562  0.8116
10290TIP3   OH252284   2.312   6.316  14.069  0.3714 -0.6957 -0.0855
10290TIP3    H152285   2.283   6.307  13.978  0.2788 -0.4830 -0.0770
10290TIP3    H252286   2.351   6.231  14.090 -1.1573 -1.3431  0.2193
10291TIP3   OH252287   5.524   0.482  17.155 -0.4715  0.1101 -0.7821
10291TIP3    H152288   5.595   0.420  17.143 -0.0000  0.4828  0.0600
10291TIP3    H252289   5.523   0.534  17.074  0.3664  0.2614 -0.7004
10292TIP3   OH252290   2.771   2.029  16.537  0.0958  0.2037 -0.6394
10292TIP3    H152291   2.789   1.978  16.458 -0.0827  1.7627 -1.7113
10292TIP3    H252292   2.784   2.120  16.511 -4.2321  1.1018 -0.0986
10293TIP3   OH252293   4.106   6.058   1.971 -0.0410  0.1681  0.4268
10293TIP3    H152294   4.055   6.084   2.048 -2.1838 -0.9405 -0.5858
10293TIP3    H252295   4.130   5.967   1.988  2.2512  0.8780  1.2068
10294TIP3   OH252296   2.512   5.647   0.624  0.2704  0.8444 -0.1760
10294TIP3    H152297   2.459   5.608   0.555  2.6824  1.1875 -2.3370
10294TIP3    H252298   2.481   5.738   0.629 -0.0436  0.7709 -0.7205
10295TIP3   OH252299   6.779   3.816  16.783  0.8676 -0.6022  0.0188
10295TIP3    H152300   6.740   3.730  16.793  1.8117 -1.2278 -1.4137
10295TIP3    H252301   6.825   3.812  16.699 -2.8851  2.7426 -2.3969
10296TIP3   OH252302   0.457   3.674  12.412  0.3182 -0.2310  0.1306
10296TIP3    H152303   0.438   3.635  12.497 -0.2880  1.1947  0.6529
10296TIP3    H252304   0.372   3.679  12.369  0.2529  1.3267  0.4156
10297TIP3   OH252305   1.551   3.501   2.164 -0.3823 -0.5382  0.3515
10297TIP3    H152306   1.627   3.557   2.149 -1.0119  0.9781  2.5981
10297TIP3    H252307   1.554   3.481   2.257 -0.8415 -3.3130 -0.1780
10298TIP3   OH252308   1.449   4.516   1.595 -0.1812 -0.0559  0.3618
10298TIP3    H152309   1.379   4.576   1.570 -0.0972 -0.2040 -0.2341
10298TIP3    H252310   1.491   4.492   1.512  0.0406 -0.6252  0.6351
10299TIP3   OH252311   2.618   3.057   5.621  0.5371 -0.0230  0.4960
10299TIP3    H152312   2.677   2.984   5.638 -0.1753 -0.5874  0.5495
10299TIP3    H252313   2.663   3.109   5.554  1.6974  0.2695  1.4714
10300TIP3   OH252314   2.554   4.580  13.130  0.2351 -0.2977 -0.0667
10300TIP3    H152315   2.618   4.535  13.075  0.6299 -1.4544  1.3140
10300TIP3    H252316   2.556   4.671  13.100  1.1030 -0.7357 -1.3432
10301TIP3   OH252317   5.030   2.757   0.003 -0.0028  0.6252  0.1174
10301TIP3    H152318   5.111   2.750  -0.046  0.0006  0.7523  0.1044
10301TIP3    H252319   5.010   2.667   0.029  1.2252  0.8305  1.8629
10302TIP3   OH252320   5.902   5.228  12.904  0.1439  0.1308  0.7299
10302TIP3    H152321   5.870   5.174  12.975  0.5765 -0.3696  0.5459
10302TIP3    H252322   5.997   5.223  12.911  0.1941 -0.6340 -0.4195
10303TIP3   OH252323   2.690   0.316  16.326 -0.6113  0.0414 -0.4566
10303TIP3    H152324   2.719   0.347  16.412 -1.4921  1.2628 -0.5892
10303TIP3    H252325   2.641   0.236  16.346 -0.1947 -0.0785  0.1092
10304TIP3   OH252326   2.408   2.320   4.802 -0.9702 -0.5399  0.6489
10304TIP3    H152327   2.352   2.368   4.741 -0.1099  0.7036  0.8103
10304TIP3    H252328   2.497   2.350   4.781 -0.1866 -3.4377 -0.4901
10305TIP3   OH252329   6.288   1.804   3.235  0.1380 -0.2306  1.0368
10305TIP3    H152330   6.316   1.713   3.221 -2.0370 -0.5482 -1.6516
10305TIP3    H252331   6.323   1.827   3.321  1.9589 -3.1282  1.1279
10306TIP3   OH252332   1.135   5.447  11.256  0.2652  0.1983  0.9238
10306TIP3    H152333   1.135   5.366  11.205 -1.4166  1.4221 -1.0687
10306TIP3    H252334   1.192   5.507  11.206  1.8862  0.1366  2.6311
10307TIP3   OH252335   4.266   6.099   4.451 -0.7750 -0.1505  0.1859
10307TIP3    H152336   4.199   6.044   4.492 -1.4756 -1.0898 -2.1715
10307TIP3    H252337   4.223   6.140   4.377  0.6478  1.0845  0.0049
10308TIP3   OH252338   1.137   3.532   0.277 -0.3137 -0.5713 -0.3826
10308TIP3    H152339   1.103   3.602   0.221  0.0816 -0.6671 -0.7406
10308TIP3    H252340   1.231   3.529   0.258  0.2053  0.8108  1.8123
10309TIP3   OH252341   4.675   4.925   5.798 -0.3772 -0.1891  0.1051
10309TIP3    H152342   4.659   5.002   5.852 -0.4918 -1.0389  1.3154
10309TIP3    H252343   4.597   4.917   5.743 -1.4521 -0.7986  1.6638
10310TIP3   OH252344   1.765   6.004  13.353 -0.1976  0.2298  0.1648
10310TIP3    H152345   1.827   5.935  13.376 -0.4516 -0.4376 -1.0975
10310TIP3    H252346   1.741   6.043  13.437  0.5939 -0.6585  0.8220
10311TIP3   OH252347   6.471   6.147   5.708  0.7162 -0.9108  0.7313
10311TIP3    H152348   6.386   6.122   5.670  1.8179 -1.3852 -1.5506
10311TIP3    H252349   6.521   6.066   5.709  2.1779 -0.0664 -0.8559
10312TIP3   OH252350   4.783   1.417  13.019  0.2976 -0.2334  0.6304
10312TIP3    H152351   4.739   1.380  12.942 -1.5835  1.4633  0.8519
10312TIP3    H252352   4.857   1.358  13.035 -0.1609 -1.4564 -1.5634
10313TIP3   OH252353   3.402   6.663   0.688 -0.2120  0.1352  0.5582
10313TIP3    H152354   3.403   6.631   0.778 -1.1960  1.5798  1.1052
10313TIP3    H252355   3.485   6.710   0.678 -0.5560  0.8545  1.0510
10314TIP3   OH252356   5.656   2.927   2.930 -0.5069 -0.4352 -0.3944
10314TIP3    H152357   5.677   2.939   2.838 -1.1365 -1.3792 -0.6793
10314TIP3    H252358   5.650   2.832   2.941  0.4236 -0.3747  0.8207
10315TIP3   OH252359   2.070   2.519  14.818 -0.1821  0.4774 -0.3007
10315TIP3    H152360   2.058   2.512  14.723 -0.1100  1.2216 -0.3694
10315TIP3    H252361   1.982   2.517  14.854 -0.1812 -0.5423 -0.3203
10316TIP3   OH252362   3.833   3.480   0.912  0.0284 -0.0848 -0.4938
10316TIP3    H152363   3.865   3.431   0.837  0.5347  1.8448 -1.5737
10316TIP3    H252364   3.739   3.460   0.915 -0.1302  0.3657 -2.0647
10317TIP3   OH252365   3.323   3.905  11.400  0.3509 -0.2895  0.1001
10317TIP3    H152366   3.360   3.860  11.476 -1.0082 -0.1333  0.8508
10317TIP3    H252367   3.229   3.905  11.415  0.1987  1.2289 -0.7634
10318TIP3   OH252368   0.783   3.279   6.371  0.2014  0.1586 -0.4538
10318TIP3    H152369   0.713   3.239   6.320  1.7976 -1.0551 -1.7484
10318TIP3    H252370   0.748   3.365   6.397 -0.9761  0.4348 -2.8125
10319TIP3   OH252371   1.143   6.220  15.190  0.3351  0.1697  0.1817
10319TIP3    H152372   1.080   6.180  15.249  0.5951  1.7770  1.5936
10319TIP3    H252373   1.100   6.219  15.105 -0.5493 -1.0378  0.6235
10320TIP3   OH252374   6.765   3.982  12.169  0.3953 -0.0641  0.5270
10320TIP3    H152375   6.793   3.946  12.086 -1.5920  0.6086 -0.4767
10320TIP3    H252376   6.840   4.032  12.201  0.6475  1.0342 -1.6781
10321TIP3   OH252377   0.102   4.223   2.662  0.0828  0.2603 -0.0219
10321TIP3    H152378   0.069   4.257   2.745 -0.1778 -0.1851  0.0581
10321TIP3    H252379   0.124   4.302   2.612  1.1534  0.5127  0.8223
10322TIP3   OH252380   5.785   1.510   3.826  0.3411  0.2504 -0.4510
10322TIP3    H152381   5.871   1.544   3.804  0.2861  1.0573  0.6025
10322TIP3    H252382   5.730   1.535   3.751  0.6864  1.0048 -0.4570
10323TIP3   OH252383   1.503   0.520  13.856 -0.1208  0.2586  0.0262
10323TIP3    H152384   1.509   0.586  13.788 -0.6558 -0.2295 -0.4992
10323TIP3    H252385   1.561   0.450  13.826  0.5724  0.5601  0.6605
10324TIP3   OH252386   4.753   5.408  11.907 -0.5635  0.1307  0.7949
10324TIP3    H152387   4.819   5.351  11.867 -0.0492  0.0584  1.7278
10324TIP3    H252388   4.725   5.360  11.985  1.0748  1.8786  2.5044
10325TIP3   OH252389   4.219   1.020   1.673  0.0115 -0.3691  0.2553
10325TIP3    H152390   4.140   1.006   1.726  0.4005 -0.8569  0.7096
10325TIP3    H252391   4.241   0.932   1.641  0.0752 -0.1532 -0.2881
10326TIP3   OH252392   0.345   0.245  13.473  0.3076  0.5259  0.1996
10326TIP3    H152393   0.353   0.187  13.549 -1.3275  1.6939  1.2887
10326TIP3    H252394   0.367   0.189  13.398  0.4686 -1.0382  1.3909
10327TIP3   OH252395   4.922   4.102  16.031 -0.4744  0.0326 -0.2479
10327TIP3    H152396   4.990   4.158  16.068 -0.5077  1.0925 -1.7334
10327TIP3    H252397   4.933   4.110  15.936 -3.3351  1.0960 -0.5349
10328TIP3   OH252398   4.395   3.652  11.744  0.2031  0.8437  0.1720
10328TIP3    H152399   4.384   3.723  11.681  1.9877  2.1483  1.2497
10328TIP3    H252400   4.480   3.613  11.721 -0.3027 -0.2883  0.2083
10329TIP3   OH252401   5.833   4.229   2.776 -0.6783  0.3582 -0.1193
10329TIP3    H152402   5.783   4.285   2.716  0.7281 -0.7631 -2.4016
10329TIP3    H252403   5.922   4.230   2.741  0.3460  0.2047  2.3751
10330TIP3   OH252404   3.683   1.682  13.729  0.1481 -0.3787 -0.0485
10330TIP3    H152405   3.641   1.620  13.789  0.7085 -1.1141 -0.4064
10330TIP3    H252406   3.775   1.659  13.733  0.1558 -0.5637 -1.3512
10331TIP3   OH252407   3.098   0.520  11.347 -0.5875  0.1272  0.0163
10331TIP3    H152408   3.070   0.604  11.310 -0.2455  0.5410  0.6784
10331TIP3    H252409   3.177   0.541  11.398 -0.7342 -0.5211  0.5229
10332TIP3   OH252410   6.109   4.588  14.883  0.4267  0.4437 -0.4641
10332TIP3    H152411   6.057   4.535  14.822 -1.1605 -0.6602  1.8017
10332TIP3    H252412   6.198   4.552  14.876 -0.1744 -1.0334 -0.6291
10333TIP3   OH252413   4.443   2.794  16.099  0.0984 -0.3712  0.4365
10333TIP3    H152414   4.415   2.822  16.012  1.2277 -2.2750 -0.5546
10333TIP3    H252415   4.448   2.699  16.094  0.9868 -0.4546  2.3292
10334TIP3   OH252416   6.629   0.071  12.474 -0.0464  0.4290  0.0403
10334TIP3    H152417   6.660   0.019  12.400  0.4081  0.6473  0.0768
10334TIP3    H252418   6.655   0.020  12.551  0.4114  0.7130  0.0770
10335TIP3   OH252419   5.000   5.264   0.614 -0.1453 -0.4283  0.8256
10335TIP3    H152420   5.052   5.207   0.557 -0.0054 -0.7794  1.3048
10335TIP3    H252421   5.062   5.330   0.645 -0.7113  1.0842 -1.1882
10336TIP3   OH252422   2.916   3.811  15.156  0.5120  0.0408  0.1293
10336TIP3    H152423   2.924   3.884  15.095  0.9084 -0.1088 -0.0041
10336TIP3    H252424   2.997   3.760  15.142  0.1460 -0.5306  0.0705
10337TIP3   OH252425   1.810   3.810  11.975 -0.0012 -0.0957 -0.6280
10337TIP3    H152426   1.773   3.847  12.055 -0.2319 -3.4492  0.9099
10337TIP3    H252427   1.904   3.813  11.987 -0.0441 -2.8356  0.9654
10338TIP3   OH252428   2.432   1.225   1.621  0.8334  0.2636  0.5292
10338TIP3    H152429   2.378   1.172   1.563  0.8896  1.6194 -0.8022
10338TIP3    H252430   2.521   1.196   1.604  0.8200  0.4271  0.1705
10339TIP3   OH252431   4.188   6.156   0.054 -0.0538 -0.3343  0.4941
10339TIP3    H152432   4.109   6.180   0.103  1.1706  1.8295  1.5057
10339TIP3    H252433   4.260   6.172   0.115  1.1862 -2.4408 -0.3485
10340TIP3   OH252434   2.586   3.235  13.881 -0.1183 -0.4259  0.3565
10340TIP3    H152435   2.608   3.329  13.880 -1.3471 -0.1347  0.7694
10340TIP3    H252436   2.631   3.200  13.804 -0.6990  0.7461 -0.5435
10341TIP3   OH252437   6.171   2.407   2.512  0.3308  1.0021  0.4479
10341TIP3    H152438   6.202   2.497   2.518 -0.2813  1.2625 -0.1879
10341TIP3    H252439   6.228   2.358   2.571  1.3649  1.6201 -0.0143
10342TIP3   OH252440   1.178   0.151   3.992 -0.3464  0.2399  0.3027
10342TIP3    H152441   1.099   0.179   4.038 -1.0530 -2.4268  0.8196
10342TIP3    H252442   1.247   0.207   4.026 -1.2702 -0.1585  2.9931
10343TIP3   OH252443   0.841   2.966   4.224  0.2657 -0.0279 -0.4560
10343TIP3    H152444   0.862   3.019   4.301 -0.9485 -0.5888  0.2728
10343TIP3    H252445   0.913   2.902   4.219  0.2356 -0.1288  0.3413
10344TIP3   OH252446   5.750   3.746   3.705  0.1162  0.5039 -0.2424
10344TIP3    H152447   5.790   3.771   3.622  0.7921  0.3819  0.0435
10344TIP3    H252448   5.658   3.771   3.696  0.6713  2.7119 -0.1167
10345TIP3   OH252449   2.217   3.863   6.044  0.3826 -0.4667  0.3144
10345TIP3    H152450   2.162   3.937   6.068  0.9027  0.0514 -0.0584
10345TIP3    H252451   2.157   3.790   6.029 -0.1601 -0.0096  0.2915
10346TIP3   OH252452   6.410   3.576  15.595  0.2299  0.0683 -0.1869
10346TIP3    H152453   6.393   3.668  15.612 -0.0741  0.0617 -0.4530
10346TIP3    H252454   6.376   3.561  15.507  1.1291 -0.0767 -0.5107
10347TIP3   OH252455   3.336   3.368  13.593 -0.4284 -0.1460  0.8716
10347TIP3    H152456   3.328   3.338  13.502 -0.2816  1.7454  0.2185
10347TIP3    H252457   3.428   3.390  13.603 -0.5860  0.3364  1.2667
10348TIP3   OH252458   1.515   4.421   0.651  0.6533  0.1852  0.4761
10348TIP3    H152459   1.557   4.428   0.565  1.1503 -0.9218  0.6212
10348TIP3    H252460   1.571   4.361   0.700  0.9054  1.5765  1.9011
10349TIP3   OH252461   0.901   6.282  14.213 -0.1197 -0.1470  0.3556
10349TIP3    H152462   0.887   6.281  14.308  2.4724  1.5195  0.8074
10349TIP3    H252463   0.934   6.195  14.193  0.1636 -0.2168  1.1144
10350TIP3   OH252464   3.139   6.639  16.717  0.2811  0.4588 -0.6167
10350TIP3    H152465   3.145   6.689  16.799  0.3482 -0.1325 -0.2623
10350TIP3    H252466   3.075   6.571  16.736  0.5838  0.0880 -0.9389
10351TIP3   OH252467   5.055   5.975   3.669  0.9146  0.3575 -0.3030
10351TIP3    H152468   5.105   5.924   3.605  2.1148  0.8134  0.2432
10351TIP3    H252469   5.011   6.043   3.618 -0.6784 -1.1946 -1.0318
10352TIP3   OH252470   1.067   6.460   1.429  0.9788  0.4834  0.1670
10352TIP3    H152471   1.077   6.532   1.367 -1.2036  0.8682  0.2193
10352TIP3    H252472   1.124   6.391   1.395  0.8652  1.1810 -1.5079
10353TIP3   OH252473   4.865   1.005   2.060  0.6297  0.0508  0.0297
10353TIP3    H152474   4.925   1.034   2.128 -0.5117 -1.0010  1.5214
10353TIP3    H252475   4.846   0.913   2.082  0.2336 -0.3042 -1.6849
10354TIP3   OH252476   1.094   6.490   2.904  0.3985 -0.0628  0.1299
10354TIP3    H152477   1.005   6.524   2.914  0.3972  0.3996 -1.3067
10354TIP3    H252478   1.107   6.434   2.980 -1.5300 -1.0345 -0.2152
10355TIP3   OH252479   1.084   5.573   5.306  0.3023  0.0329  0.6429
10355TIP3    H152480   1.121   5.634   5.370  1.4283 -1.0729  1.0751
10355TIP3    H252481   1.159   5.528   5.269 -0.3197  0.7773 -1.6344
10356TIP3   OH252482   0.281   1.617  17.066 -0.1093  0.3860 -0.1827
10356TIP3    H152483   0.236   1.537  17.037  1.0859 -0.6100  0.6744
10356TIP3    H252484   0.263   1.622  17.159  1.8918 -0.2897  0.2800
10357TIP3   OH252485   2.848   4.531  11.673  0.0006  0.1670 -0.1881
10357TIP3    H152486   2.900   4.451  11.684 -1.4531 -0.6552  0.9054
10357TIP3    H252487   2.843   4.569  11.761 -0.2051  0.9018 -0.5112
10358TIP3   OH252488   2.577   5.849   4.280  0.0463  0.1535  0.5663
10358TIP3    H152489   2.484   5.856   4.255 -0.2648 -1.7678  1.1829
10358TIP3    H252490   2.584   5.899   4.361 -0.2542  1.0534  0.0472
10359TIP3   OH252491   3.901   3.711   4.873  0.1979  0.1159  0.3413
10359TIP3    H152492   3.818   3.748   4.842  0.3667 -1.1820 -1.7852
10359TIP3    H252493   3.929   3.770   4.943 -1.4446  1.7983 -0.3732
10360TIP3   OH252494   2.844   6.526   2.469 -0.3595 -0.3760 -0.1570
10360TIP3    H152495   2.815   6.475   2.545 -2.7036  1.3224  0.1652
10360TIP3    H252496   2.884   6.604   2.506  0.0060 -0.3177 -0.6662
10361TIP3   OH252497   2.037   4.396   2.805 -0.1315 -0.2385 -0.3072
10361TIP3    H152498   2.112   4.453   2.823 -1.4060  1.3776  0.0411
10361TIP3    H252499   1.961   4.454   2.812 -1.3645 -1.6838 -1.3712
10362TIP3   OH252500   3.951   1.253   4.515 -0.0447 -0.2302  0.0555
10362TIP3    H152501   4.000   1.294   4.587  1.9262 -2.6438  0.1324
10362TIP3    H252502   3.876   1.211   4.558  0.2955 -0.3726  0.5129
10363TIP3   OH252503   2.356   5.865   0.609 -1.0147 -0.1585 -0.0418
10363TIP3    H152504   2.391   5.935   0.556 -0.2068 -0.2114  0.4136
10363TIP3    H252505   2.272   5.843   0.568 -0.5453  0.0050 -1.0926
10364TIP3   OH252506   3.916   5.601   0.853 -0.1032  0.3508  0.3218
10364TIP3    H152507   3.885   5.560   0.934 -0.7910  0.6401  0.2091
10364TIP3    H252508   3.837   5.616   0.802  0.0907  2.0954  0.4989
10365TIP3   OH252509   2.859   4.034   4.996  0.0207  0.3320  0.8798
10365TIP3    H152510   2.827   4.095   4.930 -0.4624 -0.8310  0.0077
10365TIP3    H252511   2.942   4.001   4.961  0.8230  1.2838  1.8516
10366TIP3   OH252512   6.695   2.540  13.387 -0.1183  0.0308 -0.1357
10366TIP3    H152513   6.743   2.468  13.428  0.1661 -1.0848 -2.3459
10366TIP3    H252514   6.760   2.586  13.335 -0.7169  0.6452 -0.3520
10367TIP3   OH252515   6.179   5.536  13.667 -0.4809 -0.4568  0.1353
10367TIP3    H152516   6.177   5.600  13.738 -1.2647 -0.4613  0.1195
10367TIP3    H252517   6.226   5.461  13.703 -2.0167 -0.9761  1.0930
10368TIP3   OH252518   2.842   4.896  13.626 -0.4404  0.5124  0.4230
10368TIP3    H152519   2.763   4.909  13.679 -1.8068  1.5642 -1.7704
10368TIP3    H252520   2.907   4.956  13.665 -1.4188  1.2952  0.8694
10369TIP3   OH252521   2.043   1.967   1.962 -0.1221 -0.2376  0.1317
10369TIP3    H152522   2.010   1.946   2.049  0.4250  0.6786  0.5621
10369TIP3    H252523   2.138   1.961   1.969  0.0727  2.4676  0.3186
10370TIP3   OH252524   3.062   0.576  15.309  0.4153  0.1900 -0.2711
10370TIP3    H152525   3.116   0.496  15.307 -0.2014 -0.2750  0.9269
10370TIP3    H252526   3.009   0.567  15.388 -0.5053  1.2512 -0.7492
10371TIP3   OH252527   3.505   1.965   0.245  0.0828 -0.6168  0.1188
10371TIP3    H152528   3.581   2.020   0.262 -0.0689 -0.2116 -0.5066
10371TIP3    H252529   3.431   2.013   0.281  0.1480 -1.1013  0.9021
10372TIP3   OH252530   0.386   1.502   2.180  0.0420  0.5706 -0.4023
10372TIP3    H152531   0.386   1.595   2.203  2.1613  0.5405 -0.1465
10372TIP3    H252532   0.430   1.459   2.253  0.6079 -0.4082 -1.3080
10373TIP3   OH252533   2.213   4.081  14.374 -0.1294 -0.2188 -0.2165
10373TIP3    H152534   2.298   4.048  14.404 -0.2186  1.1527  1.6046
10373TIP3    H252535   2.235   4.150  14.311  0.0999 -0.0044  0.0975
10374TIP3   OH252536   2.153   4.397   3.809 -0.6484  0.5235  0.0252
10374TIP3    H152537   2.130   4.434   3.894 -1.2794 -1.2697  0.6578
10374TIP3    H252538   2.132   4.466   3.746  1.6595  2.5849  1.4629
10375TIP3   OH252539   6.508   1.739   5.110 -0.3168  0.1439 -0.2528
10375TIP3    H152540   6.569   1.775   5.045  0.4892  2.1394  1.5132
10375TIP3    H252541   6.494   1.812   5.171 -0.6727 -1.8041  2.0521
10376TIP3   OH252542   0.299   4.279   0.588 -0.1132  0.2167 -0.0216
10376TIP3    H152543   0.305   4.342   0.659 -0.2793  0.7193 -0.4483
10376TIP3    H252544   0.302   4.193   0.631  2.1537  0.4924  0.4002
10377TIP3   OH252545   5.503   5.519  15.778  0.4488  0.1344 -0.3739
10377TIP3    H152546   5.475   5.545  15.690  0.3701  0.4663 -0.2516
10377TIP3    H252547   5.598   5.525  15.776  0.5447 -1.3904 -0.9166
10378TIP3   OH252548   3.613   4.658  13.744 -0.3547  0.6179 -0.5159
10378TIP3    H152549   3.583   4.678  13.656 -3.7699  0.6508  0.5795
10378TIP3    H252550   3.583   4.732  13.797  1.8288  0.6948  0.6629
10379TIP3   OH252551   4.897   6.120  13.602 -0.1109 -0.0073 -0.1414
10379TIP3    H152552   4.983   6.081  13.617  0.1219 -0.4884 -2.4060
10379TIP3    H252553   4.862   6.136  13.689  2.8147  1.4447  0.8602
10380TIP3   OH252554   0.692   5.060   4.825 -0.0520 -0.0812 -0.5169
10380TIP3    H152555   0.668   4.982   4.874 -0.2216  1.1528  1.4261
10380TIP3    H252556   0.786   5.051   4.810  0.8616  1.4581  3.7243
10381TIP3   OH252557   1.755   5.506   3.328 -0.7903 -0.4571 -0.1915
10381TIP3    H152558   1.763   5.544   3.416 -0.6789 -0.8662 -0.0271
10381TIP3    H252559   1.825   5.441   3.323 -1.1904 -0.8793 -0.3566
10382TIP3   OH252560   3.976   6.407   0.998  0.0444 -0.3294 -0.7072
10382TIP3    H152561   4.022   6.484   1.031 -3.7544  1.4979  0.6901
10382TIP3    H252562   4.017   6.334   1.043  1.8928  1.1484  0.0991
10383TIP3   OH252563   5.280   1.771   0.634  0.7587  0.6305  0.3082
10383TIP3    H152564   5.214   1.786   0.702  1.7275 -0.7124  1.5700
10383TIP3    H252565   5.229   1.737   0.560 -0.0460  0.0533  1.1061
10384TIP3   OH252566   4.720   1.190  12.866  0.1803 -0.4563  0.5398
10384TIP3    H152567   4.693   1.100  12.848 -0.2559 -0.1281 -0.5028
10384TIP3    H252568   4.650   1.244  12.828 -0.1027  0.3054  2.0832
10385TIP3   OH252569   0.949   2.739  11.311  0.4945 -0.3461 -0.2138
10385TIP3    H152570   0.976   2.824  11.276 -2.2324  0.9592  0.7190
10385TIP3    H252571   0.990   2.735  11.398  1.5223 -0.5006 -0.6932
10386TIP3   OH252572   6.395   5.521   0.382  0.0571 -0.1341 -0.0527
10386TIP3    H152573   6.405   5.468   0.461 -1.6976  0.1805  0.4156
10386TIP3    H252574   6.456   5.483   0.319 -0.2513 -1.9217  0.6937
10387TIP3   OH252575   5.927   4.244   5.230 -0.1368 -0.4508 -0.8112
10387TIP3    H152576   5.927   4.271   5.138  0.7780 -0.1359 -0.7303
10387TIP3    H252577   5.890   4.319   5.277  1.4919  0.3151 -0.6933
10388TIP3   OH252578   0.572   2.711  15.623 -0.0465  0.3493 -0.7393
10388TIP3    H152579   0.580   2.617  15.603  1.7427  0.7440 -2.0295
10388TIP3    H252580   0.657   2.735  15.658 -1.3168  0.9732  2.0191
10389TIP3   OH252581   5.766   2.199   2.155 -0.0373 -0.1300 -0.3758
10389TIP3    H152582   5.844   2.251   2.138 -0.4025 -0.0283 -1.8840
10389TIP3    H252583   5.756   2.145   2.076  0.6164 -2.8641  1.3190
10390TIP3   OH252584   1.258   1.139   5.741  0.1856  0.7508  0.0989
10390TIP3    H152585   1.247   1.221   5.692 -0.0920  0.6505 -0.0055
10390TIP3    H252586   1.283   1.075   5.674 -0.7799  0.4784 -0.0080
10391TIP3   OH252587   0.272   2.240  15.471 -1.0476 -0.2609 -0.2258
10391TIP3    H152588   0.257   2.146  15.466 -1.5963 -0.2337  0.7391
10391TIP3    H252589   0.279   2.258  15.565 -1.0010  0.6668 -0.4020
10392TIP3   OH252590   0.420   5.870   0.360  0.4967 -0.0199  0.0307
10392TIP3    H152591   0.397   5.963   0.367  0.4506 -0.0358  0.0950
10392TIP3    H252592   0.396   5.845   0.271  0.4146  0.0039  0.0464
10393TIP3   OH252593   5.953   2.351  15.570  0.7192  0.3186  0.1432
10393TIP3    H152594   5.979   2.299  15.494 -1.6722 -0.4411 -0.2016
10393TIP3    H252595   5.964   2.442  15.542 -1.0909  0.0668 -1.4991
10394TIP3   OH252596   2.355   6.605   5.501 -0.1879 -0.0831  0.2088
10394TIP3    H152597   2.278   6.567   5.458  0.0402 -0.0232 -0.2547
10394TIP3    H252598   2.418   6.533   5.504 -0.6955 -0.4834  1.6901
10395TIP3   OH252599   3.588   0.399   3.022 -0.4335 -0.6503  0.0049
10395TIP3    H152600   3.596   0.329   2.956  0.1441 -0.5403 -0.0449
10395TIP3    H252601   3.519   0.456   2.988 -2.2153 -2.1786  0.9498
10396TIP3   OH252602   3.272   5.608   5.490 -0.1782 -0.6291  0.0851
10396TIP3    H152603   3.218   5.650   5.423 -1.0748  1.0060  1.8051
10396TIP3    H252604   3.214   5.542   5.530 -0.6501  0.5196  1.3301
10397TIP3   OH252605   6.637   2.145   5.296 -0.2437 -0.1701 -0.3758
10397TIP3    H152606   6.604   2.154   5.385 -2.0680  1.6768 -1.1984
10397TIP3    H252607   6.581   2.077   5.257  0.7520 -1.1968 -0.0474
10398TIP3   OH252608   2.326   0.094  16.641  0.0615 -0.5168  0.3108
10398TIP3    H152609   2.285   0.177  16.614  0.4413 -0.4187  0.0393
10398TIP3    H252610   2.254   0.043  16.679 -0.0005  0.2768  1.2819
10399TIP3   OH252611   1.208   3.588  11.255 -0.1677  0.6730  0.3075
10399TIP3    H152612   1.229   3.504  11.213 -0.3545  0.8869 -0.2094
10399TIP3    H252613   1.293   3.621  11.284 -0.0984  0.2776  0.5686
10400TIP3   OH252614   0.116   4.585   0.404  0.1957  0.4492 -1.1383
10400TIP3    H152615   0.199   4.628   0.425  0.1099  0.0901 -0.0047
10400TIP3    H252616   0.061   4.654   0.367 -0.1565  1.4953  1.2564
10401TIP3   OH252617   6.549   4.457   3.861 -0.3247 -0.6940  0.4407
10401TIP3    H152618   6.510   4.372   3.884  0.5027 -1.2434 -0.1464
10401TIP3    H252619   6.540   4.462   3.765 -0.3321 -0.1385  0.4710
10402TIP3   OH252620   1.777   1.143  13.485 -0.1696  0.3629 -0.2804
10402TIP3    H152621   1.819   1.181  13.408  2.7283 -0.5997  0.7367
10402TIP3    H252622   1.770   1.215  13.547 -0.4287  0.6213 -0.6060
10403TIP3   OH252623   5.793   6.512   2.384 -0.1687  0.5501 -0.5460
10403TIP3    H152624   5.772   6.593   2.430 -0.5624 -0.5649  1.2939
10403TIP3    H252625   5.710   6.486   2.344 -0.6783 -0.2486  0.9833
10404TIP3   OH252626   4.929   0.649  16.724 -0.2890  0.7294  0.1147
10404TIP3    H152627   4.947   0.654  16.630 -1.6886 -0.9198 -0.2709
10404TIP3    H252628   4.844   0.604  16.730  0.3189 -0.2145  2.1955
10405TIP3   OH252629   2.214   1.503   4.897 -0.2388 -0.3355  0.0335
10405TIP3    H152630   2.122   1.524   4.886 -0.1517 -1.2255 -2.7228
10405TIP3    H252631   2.260   1.568   4.843  0.5464 -1.7954 -1.0829
10406TIP3   OH252632   3.615   0.508   0.197 -0.3050  0.1305 -0.4312
10406TIP3    H152633   3.550   0.569   0.231 -1.1100 -0.5544 -0.7158
10406TIP3    H252634   3.690   0.563   0.174 -0.5720  0.8536  0.4269
10407TIP3   OH252635   1.164   0.700   3.136  0.2593 -0.0889 -0.2589
10407TIP3    H152636   1.087   0.646   3.157  1.0013 -0.9706  0.2131
10407TIP3    H252637   1.200   0.725   3.221  0.2716  0.6530 -0.4806
10408TIP3   OH252638   5.556   0.197   0.351  0.2270 -0.2015 -0.1231
10408TIP3    H152639   5.488   0.246   0.305 -0.4655 -0.6330  0.4532
10408TIP3    H252640   5.518   0.111   0.367  1.1533 -0.6745 -0.4061
10409TIP3   OH252641   3.138   4.812   4.581  0.1991 -0.1394 -0.4016
10409TIP3    H152642   3.083   4.890   4.588  0.7522  0.1760  0.5602
10409TIP3    H252643   3.082   4.741   4.613  0.3783  0.1995  0.6966
10410TIP3   OH252644   3.571   4.175  12.151  0.1217 -0.4877  0.4489
10410TIP3    H152645   3.626   4.097  12.144  0.1706 -0.5306  1.2326
10410TIP3    H252646   3.558   4.187  12.245  1.1867  1.2092  0.3961
10411TIP3   OH252647   2.094   3.445  14.474 -0.1512  0.5535 -0.0604
10411TIP3    H152648   2.141   3.453  14.391  0.7345 -0.0675  0.3706
10411TIP3    H252649   2.119   3.358  14.507 -0.2952  0.8995  0.9721
10412TIP3   OH252650   3.625   3.676   1.428  0.0330  0.2322 -0.7486
10412TIP3    H152651   3.554   3.716   1.478  0.4499  0.1738 -0.1009
10412TIP3    H252652   3.684   3.640   1.494  0.0248 -0.8384 -1.3090
10413TIP3   OH252653   3.867   5.643   3.227 -0.5868 -0.2468 -0.0043
10413TIP3    H152654   3.930   5.679   3.164 -0.2528 -0.1640  0.3749
10413TIP3    H252655   3.790   5.622   3.174 -0.6061  0.5761 -0.3109
10414TIP3   OH252656   4.978   5.869   4.790 -0.1460  0.1461 -0.4335
10414TIP3    H152657   4.949   5.897   4.877  1.1404  1.1821 -0.3198
10414TIP3    H252658   4.933   5.929   4.730 -0.6654 -0.2650 -0.4583
10415TIP3   OH252659   3.674   2.021   6.345  0.4228  0.0944  0.2398
10415TIP3    H152660   3.724   1.973   6.411 -1.0867 -1.3939  0.3507
10415TIP3    H252661   3.650   1.954   6.280 -0.6162  0.9478 -0.2713
10416TIP3   OH252662   5.559   4.398  16.296 -1.0219 -0.1262 -1.0787
10416TIP3    H152663   5.553   4.317  16.245 -0.2116 -0.5042 -0.5833
10416TIP3    H252664   5.644   4.392  16.340 -0.5487  1.4192 -1.7525
10417TIP3   OH252665   6.681   0.724  12.951 -0.1442  0.1501 -0.4206
10417TIP3    H152666   6.698   0.677  13.033 -0.2389 -0.8880 -0.9974
10417TIP3    H252667   6.622   0.795  12.977 -0.1577 -0.1591  0.4255
10418TIP3   OH252668   5.702   6.538  16.524  0.0627  0.2378  0.2528
10418TIP3    H152669   5.765   6.544  16.596  1.8361  1.0069 -1.3006
10418TIP3    H252670   5.624   6.584  16.556  0.6772  0.2358  1.8136
10419TIP3   OH252671   2.705   1.052  14.352  0.8026 -0.6112 -0.1069
10419TIP3    H152672   2.795   1.079  14.334  0.0819  1.9561 -0.1233
10419TIP3    H252673   2.656   1.080  14.275 -0.6972  1.9434  1.6660
10420TIP3   OH252674   5.309   0.199  16.921 -0.8241  0.3250  0.3714
10420TIP3    H152675   5.286   0.291  16.906 -1.9661  0.1701  1.1228
10420TIP3    H252676   5.304   0.159  16.835  4.7398  2.0158 -0.9413
10421TIP3   OH252677   1.175   6.475  12.532  0.6564 -0.7290 -0.0061
10421TIP3    H152678   1.238   6.544  12.551  0.2244 -0.3896  0.1895
10421TIP3    H252679   1.188   6.455  12.439 -0.0324  0.4516 -0.3759
10422TIP3   OH252680   4.328   3.588  16.761  0.5637  0.1435 -0.7442
10422TIP3    H152681   4.327   3.590  16.857  1.3830 -0.0624 -0.7332
10422TIP3    H252682   4.378   3.665  16.736  0.2507  0.2588 -1.0080
10423TIP3   OH252683   5.937   1.401   3.141  0.2632  0.0516  0.1689
10423TIP3    H152684   5.959   1.459   3.214  1.5870  0.5408 -0.6069
10423TIP3    H252685   5.914   1.460   3.069 -0.5519 -0.4227  0.0381
10424TIP3   OH252686   2.309   6.561  15.783  0.1787 -0.2551  0.5832
10424TIP3    H152687   2.277   6.637  15.833  0.9409  0.8474 -0.5842
10424TIP3    H252688   2.255   6.489  15.814 -1.0797  0.9064  1.1869
10425TIP3   OH252689   4.974   0.309  13.395  0.0962 -0.0742  0.0903
10425TIP3    H152690   4.991   0.318  13.301  3.0429  1.3132  0.6912
10425TIP3    H252691   4.928   0.389  13.419  1.8360  0.8690  0.3274
10426TIP3   OH252692   5.263   1.566   1.935 -0.5476 -0.0102  0.0862
10426TIP3    H152693   5.277   1.565   1.840  1.3330 -2.2707  0.3510
10426TIP3    H252694   5.186   1.511   1.948  0.0105 -0.8149 -0.0142
10427TIP3   OH252695   0.254   5.449  10.498 -0.0780  0.0033 -0.1284
10427TIP3    H152696   0.344   5.478  10.511  0.1169 -1.0717  1.0859
10427TIP3    H252697   0.249   5.425  10.406  1.2012 -0.9393  0.0352
10428TIP3   OH252698   0.796   6.752  14.063  0.3579  0.1653 -0.6477
10428TIP3    H152699   0.842   6.704  13.993  1.4309  1.2560 -0.7039
10428TIP3    H252700   0.740   6.686  14.104 -0.6262 -0.3995 -2.8257
10429TIP3   OH252701   2.724   1.755   4.055  0.3819  0.4674 -0.6624
10429TIP3    H152702   2.665   1.704   4.110 -1.6358  1.1737 -2.1106
10429TIP3    H252703   2.735   1.838   4.101  0.9687 -0.0096  0.0534
10430TIP3   OH252704   6.479   4.793   4.371  0.0313 -0.0324 -0.4846
10430TIP3    H152705   6.506   4.828   4.456  3.2629 -1.1200 -0.9907
10430TIP3    H252706   6.537   4.718   4.356  0.0629  0.6005 -3.9923
10431TIP3   OH252707   3.984   6.212   4.485  0.3939 -0.0294 -0.5530
10431TIP3    H152708   4.027   6.143   4.536 -0.4670 -1.1347 -1.2977
10431TIP3    H252709   4.017   6.294   4.523 -0.0493 -0.8308  1.6494
10432TIP3   OH252710   6.294   0.239  14.430 -0.1610  0.0504 -0.0097
10432TIP3    H152711   6.325   0.307  14.489  0.5841 -0.1581 -0.1519
10432TIP3    H252712   6.257   0.287  14.356 -2.6421  0.3294  1.3792
10433TIP3   OH252713   0.296   6.003  15.278 -0.2028 -0.1450  0.0624
10433TIP3    H152714   0.257   5.921  15.310  0.0510 -0.6323 -0.8526
10433TIP3    H252715   0.390   5.991  15.292 -0.2651  0.5232  1.1189
10434TIP3   OH252716   5.084   5.133   1.512 -0.3450 -0.1027  0.4869
10434TIP3    H152717   5.098   5.208   1.454 -1.1105 -0.5109 -0.2281
10434TIP3    H252718   5.171   5.113   1.547 -0.1021  0.9854  0.5187
10435TIP3   OH252719   4.938   1.077  11.725 -0.0966  0.1964 -0.8420
10435TIP3    H152720   5.009   1.040  11.672 -0.0100 -0.0388 -0.5664
10435TIP3    H252721   4.858   1.049  11.681 -0.0360 -0.5627 -0.4783
10436TIP3   OH252722   4.826   3.237  11.759  0.0185  0.1841 -0.2196
10436TIP3    H152723   4.899   3.180  11.783  0.4655  0.8006 -0.1144
10436TIP3    H252724   4.826   3.237  11.663 -1.8565 -2.3906 -0.2929
10437TIP3   OH252725   5.930   3.533   4.113  0.0173  0.1232  0.4522
10437TIP3    H152726   5.925   3.514   4.207 -0.9197 -0.1551  0.3496
10437TIP3    H252727   5.850   3.583   4.094 -0.3103 -0.7191 -0.4042
10438TIP3   OH252728   1.304   2.273   3.617  0.1748 -0.3311  0.3730
10438TIP3    H152729   1.359   2.349   3.639 -0.5105  0.2174  0.2092
10438TIP3    H252730   1.234   2.275   3.682  0.8729 -1.5960  1.1795
10439TIP3   OH252731   4.381   2.696   4.572 -0.1634 -0.0615  0.3113
10439TIP3    H152732   4.355   2.664   4.485 -0.2640 -0.1068  0.3571
10439TIP3    H252733   4.324   2.648   4.633  0.5470 -0.7156  0.4657
10440TIP3   OH252734   1.534   6.510  16.643 -0.7939 -0.2669  0.1909
10440TIP3    H152735   1.491   6.515  16.557 -1.1307 -1.1267  0.3138
10440TIP3    H252736   1.627   6.506  16.622 -0.7709  1.1568 -0.0813
10441TIP3   OH252737   6.161   4.481   3.722  0.0534 -0.2347  0.0979
10441TIP3    H152738   6.112   4.500   3.641 -1.5179 -0.1135  1.0508
10441TIP3    H252739   6.209   4.561   3.741 -0.1984  0.0070 -0.2743
10442TIP3   OH252740   0.646   5.819  16.886  0.0601  0.4101 -0.3010
10442TIP3    H152741   0.671   5.851  16.800  2.6569 -0.2333  0.1724
10442TIP3    H252742   0.656   5.724  16.881 -3.4755 -0.0321 -0.3991
10443TIP3   OH252743   1.266   3.905  11.234  0.2919 -0.4771 -0.0403
10443TIP3    H152744   1.254   3.913  11.139 -0.1991  5.3417  0.3821
10443TIP3    H252745   1.360   3.913  11.247  0.3352 -1.0503  0.0257
10444TIP3   OH252746   1.762   5.925  12.642  1.0524  0.3870 -0.2317
10444TIP3    H152747   1.808   5.855  12.595  1.2866  0.1548  0.3347
10444TIP3    H252748   1.827   5.961  12.701  0.3528 -0.3645  1.0277
10445TIP3   OH252749   3.315   5.272  16.463  0.4844  0.2911 -0.3378
10445TIP3    H152750   3.311   5.255  16.369  1.1783  0.2469 -0.3610
10445TIP3    H252751   3.224   5.267  16.492  0.4246 -1.2074 -0.7442
10446TIP3   OH252752   1.715   6.295   5.041 -0.5121 -0.5021 -0.0867
10446TIP3    H152753   1.631   6.307   4.996 -0.4043  1.8481  0.3108
10446TIP3    H252754   1.712   6.205   5.072 -0.8014 -2.1151 -4.3892
10447TIP3   OH252755   4.784   6.381   2.642  0.1974  0.5795 -0.1497
10447TIP3    H152756   4.818   6.448   2.583  0.2468 -0.4317 -1.2866
10447TIP3    H252757   4.689   6.384   2.630  0.1967  0.4644 -0.1660
10448TIP3   OH252758   1.453   2.915   1.279  0.5857 -0.0972 -0.5098
10448TIP3    H152759   1.505   2.995   1.282 -1.2209  1.1068 -0.0613
10448TIP3    H252760   1.422   2.903   1.369 -0.4124 -0.4321 -0.8891
10449TIP3   OH252761   3.497   3.735  11.561 -0.0803  0.2039 -0.0603
10449TIP3    H152762   3.488   3.647  11.523  3.2072 -1.5019  2.9020
10449TIP3    H252763   3.569   3.775  11.512 -1.7668  1.4217 -1.6060
10450TIP3   OH252764   5.092   1.804  16.443 -0.4453 -0.2251 -0.0676
10450TIP3    H152765   5.051   1.789  16.528  0.0904  0.0126  0.2292
10450TIP3    H252766   5.173   1.851  16.463 -0.5565  0.2681 -0.7409
10451TIP3   OH252767   2.609   5.102  16.821  0.2908 -0.1759  0.3689
10451TIP3    H152768   2.557   5.181  16.808  0.8440  0.0803 -0.3764
10451TIP3    H252769   2.546   5.031  16.822 -0.1792  0.2460  0.6445
10452TIP3   OH252770   5.143   1.127  17.077 -0.1705  0.3265  1.0155
10452TIP3    H152771   5.060   1.172  17.060  0.8305  2.3106  1.1639
10452TIP3    H252772   5.209   1.196  17.071  1.6880 -1.5445 -0.9655
10453TIP3   OH252773   1.327   0.489   6.194  0.6546 -0.1189 -0.1994
10453TIP3    H152774   1.294   0.405   6.162  0.4453  0.1095 -0.5898
10453TIP3    H252775   1.270   0.554   6.153  1.0945  0.2369 -0.2536
10454TIP3   OH252776   4.400   4.369   1.552 -0.0002  1.0964  0.2679
10454TIP3    H152777   4.438   4.441   1.602  0.3064  1.4235 -0.4261
10454TIP3    H252778   4.345   4.322   1.615  0.3215  1.5444  0.8864
10455TIP3   OH252779   3.613   4.014   0.455  0.1269  0.1465 -0.0971
10455TIP3    H152780   3.656   4.023   0.540  1.1698 -0.2393 -0.5807
10455TIP3    H252781   3.663   3.948   0.409 -2.1963 -1.7955  0.0597
10456TIP3   OH252782   1.076   2.192   4.147 -0.0137 -0.4123 -0.1135
10456TIP3    H152783   1.098   2.275   4.189  0.3276  0.1461 -1.3837
10456TIP3    H252784   1.027   2.217   4.069 -2.4215 -1.5241  1.0030
10457TIP3   OH252785   0.920   6.241  16.687 -0.0789  0.7179 -0.5779
10457TIP3    H152786   0.863   6.272  16.758  0.6612  1.4668 -0.3103
10457TIP3    H252787   0.880   6.277  16.607 -1.0266 -0.2936 -0.5744
10458TIP3   OH252788   5.878   6.750   4.689 -0.2816 -0.3893 -0.5051
10458TIP3    H152789   5.943   6.681   4.679  0.9530  1.1505 -3.8136
10458TIP3    H252790   5.796   6.703   4.708  1.3958 -2.4159  2.1087
10459TIP3   OH252791   0.692   3.704  12.143  0.6166 -0.5795  0.1461
10459TIP3    H152792   0.693   3.613  12.173  0.6588 -0.1290  1.5148
10459TIP3    H252793   0.775   3.740  12.173 -0.0428  0.3277  0.8916
10460TIP3   OH252794   3.021   2.581  12.293 -0.1051 -0.4971 -0.8564
10460TIP3    H152795   2.944   2.542  12.336  0.0489  0.2378  0.0930
10460TIP3    H252796   2.985   2.649  12.236 -0.2369 -0.8738 -1.2301
10461TIP3   OH252797   5.064   4.531   1.718  0.4004  0.4990  0.0349
10461TIP3    H152798   5.090   4.443   1.693 -1.6759 -0.4149  1.0606
10461TIP3    H252799   5.032   4.523   1.807  0.9209  2.4341  0.4217
10462TIP3   OH252800   1.023   2.902   0.516 -0.6482 -0.1790 -0.0184
10462TIP3    H152801   1.083   2.971   0.547  0.5787 -1.3023  0.1469
10462TIP3    H252802   0.992   2.935   0.432 -0.7603  0.9869  0.4629
10463TIP3   OH252803   1.816   3.909  15.404  0.5502  0.2362  0.0601
10463TIP3    H152804   1.852   3.842  15.344  0.2926 -0.5860  0.8151
10463TIP3    H252805   1.876   3.908  15.479  0.3955  0.6776  0.1894
10464TIP3   OH252806   3.191   3.829   1.056  0.4022  0.4042  0.1485
10464TIP3    H152807   3.228   3.904   1.009 -0.0998  0.6402  0.1280
10464TIP3    H252808   3.266   3.789   1.100  0.6844  0.8839  0.1051
10465TIP3   OH252809   3.874   6.341   3.515  1.1137  0.9348 -0.3159
10465TIP3    H152810   3.781   6.361   3.521  0.9858  0.1553  0.3998
10465TIP3    H252811   3.905   6.392   3.440 -0.2625 -0.2671 -1.7114
10466TIP3   OH252812   6.121   0.094  12.578  0.3121  0.8517 -0.7054
10466TIP3    H152813   6.089   0.013  12.619  0.4577  1.6351  1.0081
10466TIP3    H252814   6.212   0.074  12.555  0.6640  0.8329  0.6332
10467TIP3   OH252815   5.325   5.887   1.327  0.4892 -0.3067  0.0323
10467TIP3    H152816   5.259   5.935   1.278  1.8390  2.6612  0.9826
10467TIP3    H252817   5.276   5.841   1.395 -0.7946  0.1955 -0.5343
10468TIP3   OH252818   5.961   2.187  11.959  0.3841  0.0281  0.5375
10468TIP3    H152819   5.916   2.173  12.042  0.8959  0.9790  0.9890
10468TIP3    H252820   5.895   2.225  11.902  0.4461  0.8699  1.0153
10469TIP3   OH252821   0.877   3.339   5.698 -0.3933 -0.6615 -0.1747
10469TIP3    H152822   0.929   3.417   5.715 -1.3119  0.1506 -1.0380
10469TIP3    H252823   0.809   3.368   5.636 -0.3767 -2.2743 -0.9773
10470TIP3   OH252824   2.030   1.890  16.159  0.3249 -0.2436  0.1591
10470TIP3    H152825   2.105   1.919  16.108  0.3252  1.5416  1.1257
10470TIP3    H252826   2.000   1.969  16.204 -1.7698 -1.0557  0.2477
10471TIP3   OH252827   2.969   4.481  16.036  0.1227 -0.3438  0.1877
10471TIP3    H152828   2.993   4.390  16.016 -2.1530 -1.0197  0.3288
10471TIP3    H252829   2.896   4.500  15.977 -1.2834  0.4154  2.0840
10472TIP3   OH252830   0.979   2.004  12.143  0.2433  0.3833  0.2090
10472TIP3    H152831   0.941   1.922  12.177  0.1417  0.0054 -0.8175
10472TIP3    H252832   1.009   1.982  12.055  0.9965  1.2277  0.2504
10473TIP3   OH252833   6.136   2.630   6.095 -0.0516 -0.1203  0.6893
10473TIP3    H152834   6.112   2.609   6.185 -1.4955 -0.2155  0.2928
10473TIP3    H252835   6.133   2.726   6.091 -2.4505 -0.1844  0.1106
10474TIP3   OH252836   1.063   0.896  13.321 -0.5182 -0.2177 -0.4611
10474TIP3    H152837   0.996   0.948  13.365 -1.0486 -1.3955  0.1282
10474TIP3    H252838   1.111   0.960  13.269 -0.9874  0.9178  0.4635
10475TIP3   OH252839   0.242   2.691   5.489 -1.0004  0.7378  0.0055
10475TIP3    H152840   0.248   2.784   5.469 -1.4444  0.8789  0.5127
10475TIP3    H252841   0.259   2.685   5.583 -1.3174  0.3456  0.0407
10476TIP3   OH252842   2.029   4.802   1.258 -0.3450 -0.1935 -0.1150
10476TIP3    H152843   2.034   4.784   1.164  1.8345  0.4962 -0.1548
10476TIP3    H252844   1.970   4.878   1.264 -0.0796  0.0912 -0.9875
10477TIP3   OH252845   1.984   1.369  12.729 -0.7018 -0.1623 -0.6358
10477TIP3    H152846   2.060   1.417  12.695 -1.1310  0.4775 -0.6903
10477TIP3    H252847   2.021   1.305  12.790 -0.0277 -0.5340 -1.4244
10478TIP3   OH252848   0.833   3.497   2.792 -0.0922 -0.5910 -0.2808
10478TIP3    H152849   0.777   3.430   2.831 -0.5359 -0.4934 -0.7390
10478TIP3    H252850   0.922   3.473   2.819 -0.2998 -1.0649 -0.0087
10479TIP3   OH252851   2.348   4.245  11.862  0.2946  0.2532 -0.3099
10479TIP3    H152852   2.317   4.165  11.820  1.0632  0.2737 -0.9285
10479TIP3    H252853   2.290   4.313  11.828 -0.0674  0.0327 -0.1401
10480TIP3   OH252854   1.219   0.514  12.936  0.6378 -0.1334 -0.0238
10480TIP3    H152855   1.156   0.445  12.958  2.1587 -1.3898  0.4812
10480TIP3    H252856   1.166   0.584  12.899 -0.8784 -1.8291 -1.1343
10481TIP3   OH252857   5.130   1.173  14.900 -0.4609  0.1680  0.4924
10481TIP3    H152858   5.180   1.204  14.825  0.3207 -0.0886  0.9079
10481TIP3    H252859   5.127   1.077  14.889 -3.1256  0.3532 -0.9556
10482TIP3   OH252860   6.670   0.834  14.244  0.2432  0.2154 -0.3903
10482TIP3    H152861   6.674   0.906  14.182 -0.1605  1.0856  0.5910
10482TIP3    H252862   6.640   0.873  14.326  1.8814 -0.7092  0.6861
10483TIP3   OH252863   3.867   3.552   1.526  0.0879  0.0159  0.0932
10483TIP3    H152864   3.834   3.464   1.512  0.9348 -0.2802 -0.0600
10483TIP3    H252865   3.922   3.545   1.604 -0.6697  0.6258  0.6868
10484TIP3   OH252866   4.830   2.661  13.857 -0.5085  0.6062  0.2888
10484TIP3    H152867   4.790   2.575  13.840 -0.2951  0.5978 -0.1988
10484TIP3    H252868   4.899   2.643  13.921  0.7462  0.0922 -1.1815
10485TIP3   OH252869   4.817   3.328  14.554 -0.0509  0.1066  0.1749
10485TIP3    H152870   4.882   3.263  14.527  0.1623  0.0024  0.9296
10485TIP3    H252871   4.757   3.333  14.480  0.1091 -0.7182 -0.0244
10486TIP3   OH252872   0.660   6.164   2.679 -0.8901  0.2083  0.0207
10486TIP3    H152873   0.588   6.188   2.621 -0.3891  0.7284 -0.3914
10486TIP3    H252874   0.618   6.114   2.750 -2.0984  2.9385  1.3091
10487TIP3   OH252875   0.486   1.403  15.985 -0.4325 -0.3630  0.6401
10487TIP3    H152876   0.536   1.475  15.946  0.9788 -0.9586  1.3610
10487TIP3    H252877   0.487   1.421  16.079 -2.6309  0.2868  0.5901
10488TIP3   OH252878   6.374   2.262   2.112 -0.6495 -0.2103  0.7761
10488TIP3    H152879   6.297   2.248   2.168 -0.2346 -1.0969  1.1434
10488TIP3    H252880   6.338   2.279   2.025 -1.2611 -1.1681  0.8313
10489TIP3   OH252881   2.608   6.420  14.521  0.5906 -0.3407  0.3080
10489TIP3    H152882   2.538   6.409  14.458  0.6020 -1.4433  0.4810
10489TIP3    H252883   2.570   6.393  14.605  0.6342  0.9125  0.7497
10490TIP3   OH252884   6.708   5.015   0.701 -0.7109  0.2286  0.7102
10490TIP3    H152885   6.671   4.932   0.671  1.5735 -0.4544 -0.3133
10490TIP3    H252886   6.727   5.063   0.621  0.4582  0.6189  1.2108
10491TIP3   OH252887   6.073   2.778  14.896 -0.1885  0.1033 -0.0377
10491TIP3    H152888   6.070   2.845  14.965  1.2210 -0.6505  0.7831
10491TIP3    H252889   6.127   2.816  14.828 -1.9758  1.0418 -0.9609
10492TIP3   OH252890   1.370   5.436   1.163 -0.2723 -0.1727  0.2013
10492TIP3    H152891   1.278   5.421   1.146 -0.3728 -1.2935  1.6449
10492TIP3    H252892   1.416   5.367   1.114 -0.3754 -1.3076  1.6570
10493TIP3   OH252893   0.090   5.155  11.001  0.2039  0.1494 -0.8303
10493TIP3    H152894   0.069   5.165  11.094  3.4482 -0.4870  0.0125
10493TIP3    H252895   0.101   5.244  10.968  0.2280  0.3343 -0.3213
10494TIP3   OH252896   6.528   1.008   0.954 -0.1761 -0.5241  0.3547
10494TIP3    H152897   6.541   1.096   0.990 -0.5168  0.1328 -1.0773
10494TIP3    H252898   6.551   0.949   1.025  2.6611  0.6975  0.5154
10495TIP3   OH252899   2.418   3.012  14.592  0.2425 -0.2774 -0.1331
10495TIP3    H152900   2.398   2.971  14.508 -0.1459  2.0945 -1.2398
10495TIP3    H252901   2.351   2.978  14.652 -0.1992 -1.0906 -1.0741
10496TIP3   OH252902   5.450   2.934   2.520 -0.3114 -0.0409  0.0076
10496TIP3    H152903   5.440   2.961   2.428 -4.0756 -0.6476  0.1616
10496TIP3    H252904   5.462   3.016   2.568 -0.8434  0.4865 -0.7517
10497TIP3   OH252905   4.790   3.487  11.493 -0.0320 -0.2051 -0.1311
10497TIP3    H152906   4.856   3.425  11.525 -0.8843 -1.1494 -0.2125
10497TIP3    H252907   4.766   3.455  11.406 -0.2982  0.3768 -0.2737
10498TIP3   OH252908   1.131   5.271  13.507 -0.1378  0.1476 -0.4650
10498TIP3    H152909   1.084   5.200  13.464 -0.9117  0.3494  0.0350
10498TIP3    H252910   1.177   5.229  13.580 -2.2119  0.4517  1.0643
10499TIP3   OH252911   1.285   2.659  15.081  0.0705  0.0751  0.5871
10499TIP3    H152912   1.377   2.654  15.057  0.0994 -0.2421  0.7579
10499TIP3    H252913   1.247   2.721  15.019 -0.2157 -2.0200 -1.3949
10500TIP3   OH252914   0.698   5.566   3.315  0.3378 -0.0971 -0.0149
10500TIP3    H152915   0.604   5.583   3.312  0.3592 -0.0062 -0.2087
10500TIP3    H252916   0.733   5.630   3.377 -0.1753 -2.2514  2.6047
10501TIP3   OH252917   6.610   0.424   0.640  0.5481  0.4265 -0.6342
10501TIP3    H152918   6.516   0.416   0.657  0.8045  0.6144  0.8611
10501TIP3    H252919   6.624   0.374   0.559 -0.3761 -1.8077  0.5612
10502TIP3   OH252920   0.819   0.818   0.947  0.1491 -0.0139  0.1046
10502TIP3    H152921   0.781   0.754   0.887 -1.4317  0.8634  0.1455
10502TIP3    H252922   0.816   0.776   1.033 -2.4908  0.7370  0.4216
10503TIP3   OH252923   1.040   4.311   4.478 -0.6208 -0.2847  0.3809
10503TIP3    H152924   1.031   4.241   4.413 -1.6618  0.7898 -0.6406
10503TIP3    H252925   1.094   4.377   4.435 -1.3223  0.4413  0.6091
10504TIP3   OH252926   1.937   2.259   3.176 -0.2335  0.5242  0.3673
10504TIP3    H152927   1.889   2.312   3.112 -1.2183  0.1005  0.7446
10504TIP3    H252928   1.943   2.172   3.136 -1.0393  0.2029  0.9373
10505TIP3   OH252929   2.328   6.022   0.829  0.4466  0.4579  0.4714
10505TIP3    H152930   2.329   6.118   0.832 -0.2614  0.4587  0.5934
10505TIP3    H252931   2.350   6.001   0.739 -0.2782  0.7483  0.2241
10506TIP3   OH252932   3.542   6.105   5.221 -0.5482  0.1075 -0.1015
10506TIP3    H152933   3.481   6.171   5.253 -1.0799  0.1862 -1.2743
10506TIP3    H252934   3.583   6.145   5.144 -0.4890 -0.7140 -0.5029
10507TIP3   OH252935   6.092   4.855  16.649  0.1780 -0.0789  0.2787
10507TIP3    H152936   6.032   4.893  16.713 -0.9428 -0.1177 -0.7138
10507TIP3    H252937   6.152   4.802  16.701 -1.3461 -0.9389  1.2114
10508TIP3   OH252938   0.465   5.435  16.923 -0.2580 -0.7365  0.0580
10508TIP3    H152939   0.409   5.503  16.961  0.4873  0.1036 -0.3390
10508TIP3    H252940   0.486   5.467  16.835  0.6031 -1.1870  0.0976
10509TIP3   OH252941   0.044   4.834   3.205  0.2056 -0.6224 -0.1837
10509TIP3    H152942  -0.037   4.886   3.202  1.0914  0.8493  0.8164
10509TIP3    H252943   0.052   4.798   3.117 -0.0128  1.6198 -1.1657
10510TIP3   OH252944   0.711   1.925  13.483  0.0959 -0.3140  0.0518
10510TIP3    H152945   0.640   1.861  13.487 -0.9321  0.7625 -0.6180
10510TIP3    H252946   0.720   1.944  13.389  2.4197 -1.6972 -0.0275
10511TIP3   OH252947   4.896   2.222   5.801  0.2282 -0.6391 -0.3777
10511TIP3    H152948   4.809   2.261   5.802 -0.2528 -1.6769 -0.7550
10511TIP3    H252949   4.898   2.166   5.878  0.7109 -0.2973 -0.1427
10512TIP3   OH252950   6.519   1.242   0.049  0.3559 -0.3011 -0.1081
10512TIP3    H152951   6.605   1.215   0.083  0.6350 -2.3020 -2.2641
10512TIP3    H252952   6.462   1.167   0.066 -0.1808 -0.2293 -1.4978
10513TIP3   OH252953   5.058   2.564  13.999 -0.3164  0.1195 -0.7044
10513TIP3    H152954   5.017   2.506  14.063 -1.3342  3.7445  2.1734
10513TIP3    H252955   5.148   2.533  13.992 -1.1068 -2.4141 -0.0884
10514TIP3   OH252956   0.303   6.352   1.664 -0.4962  0.3730  0.1417
10514TIP3    H152957   0.357   6.431   1.663 -0.6687  0.4922  0.3658
10514TIP3    H252958   0.306   6.321   1.574 -0.5811  0.7402  0.0099
10515TIP3   OH252959   2.409   6.241   2.180  0.0663 -0.1405 -0.7458
10515TIP3    H152960   2.449   6.273   2.261 -0.1400  1.8076 -1.3890
10515TIP3    H252961   2.426   6.146   2.181  0.0784 -0.1545  1.5493
10516TIP3   OH252962   5.383   6.227  16.353 -0.5378  0.7106 -0.0005
10516TIP3    H152963   5.292   6.225  16.383 -0.4702 -0.3130  0.1695
10516TIP3    H252964   5.387   6.301  16.293 -0.8790  2.3211  1.8975
10517TIP3   OH252965   3.266   1.593   0.880 -0.0101  0.0137 -0.8241
10517TIP3    H152966   3.210   1.659   0.840  1.2162  0.5127 -1.7320
10517TIP3    H252967   3.321   1.561   0.809  0.1037 -1.2687 -0.1788
10518TIP3   OH252968   0.115   5.379  17.051 -0.0434  0.7935 -0.0905
10518TIP3    H152969   0.146   5.339  17.133 -1.0287  1.2794  0.5391
10518TIP3    H252970   0.151   5.324  16.982 -2.8052 -2.2988  0.7962
10519TIP3   OH252971   6.350   1.508   3.724  0.1261  0.0538  0.2778
10519TIP3    H152972   6.386   1.545   3.644 -1.4310 -0.0337 -0.4802
10519TIP3    H252973   6.421   1.515   3.788  1.9691 -1.4254 -1.5577
10520TIP3   OH252974   3.706   5.237  11.589  0.0661  0.5490 -0.4240
10520TIP3    H152975   3.793   5.259  11.622  0.5517  0.0674 -1.3648
10520TIP3    H252976   3.650   5.309  11.619  0.9734  1.3252 -0.5922
10521TIP3   OH252977   4.830   4.373   5.378 -0.0011 -0.3996 -0.0016
10521TIP3    H152978   4.852   4.374   5.472  0.3651 -0.5005 -0.0836
10521TIP3    H252979   4.743   4.412   5.373  0.3048  0.3346  0.2997
10522TIP3   OH252980   1.711   0.569  15.654  0.6808  0.8738 -0.1448
10522TIP3    H152981   1.709   0.645  15.712  0.3811  0.5645  0.2497
10522TIP3    H252982   1.725   0.605  15.566 -3.3185  1.6882 -0.5218
10523TIP3   OH252983   6.133   4.140   0.893 -0.7442 -0.1831 -0.2176
10523TIP3    H152984   6.126   4.062   0.837 -1.5084  0.4557 -1.0258
10523TIP3    H252985   6.203   4.119   0.954  0.5591 -0.6454 -1.8272
10524TIP3   OH252986   6.606   2.433   4.330 -0.4721 -0.3988  0.0391
10524TIP3    H152987   6.588   2.355   4.277 -1.1687  0.1375 -0.5066
10524TIP3    H252988   6.586   2.406   4.420 -2.7954 -0.2115 -0.3911
10525TIP3   OH252989   0.238   6.394  14.536 -0.1312  0.1211  0.2040
10525TIP3    H152990   0.311   6.335  14.554 -0.6640 -1.1952 -1.7998
10525TIP3    H252991   0.160   6.340  14.549 -0.6636  0.7792 -0.2299
10526TIP3   OH252992   6.642   5.157   1.040 -0.2123 -0.3398 -0.4055
10526TIP3    H152993   6.642   5.195   1.128 -3.2830 -2.8561  0.7693
10526TIP3    H252994   6.599   5.222   0.986  0.3216  0.5654  0.2351
10527TIP3   OH252995   1.452   3.873  13.761 -0.1608 -0.5313 -0.2788
10527TIP3    H152996   1.488   3.796  13.718  0.4957  0.2013 -1.0531
10527TIP3    H252997   1.359   3.873  13.737  0.3538  0.2854 -2.3375
10528TIP3   OH252998   5.919   2.667   0.590  0.3839  0.1910  0.1830
10528TIP3    H152999   5.943   2.752   0.626  1.2463 -0.4659  1.1933
10528TIP3    H253000   5.837   2.682   0.545  1.2141  1.8469 -0.7929
10529TIP3   OH253001   5.784   5.784  11.187  0.4983 -0.0916  0.1833
10529TIP3    H153002   5.807   5.720  11.254  0.7340  0.3659  0.5325
10529TIP3    H253003   5.826   5.865  11.214 -0.1079  0.3120 -0.0723
10530TIP3   OH253004   0.892   1.507   6.601 -0.1770  0.0202 -0.1189
10530TIP3    H153005   0.947   1.520   6.678 -0.2536 -2.0005  0.2832
10530TIP3    H253006   0.836   1.585   6.598  2.7406  2.2203 -0.6113
10531TIP3   OH253007   4.510   3.711   5.443  0.0853  0.3014  0.4153
10531TIP3    H153008   4.604   3.704   5.459 -0.0327 -0.1885  0.8735
10531TIP3    H253009   4.474   3.626   5.466 -0.3129  0.0981 -0.8763
10532TIP3   OH253010   3.483   6.572   4.886  0.0343  0.1816 -0.2492
10532TIP3    H153011   3.531   6.504   4.933  0.4726  0.9259  0.3888
10532TIP3    H253012   3.501   6.653   4.934 -0.4095  0.7714 -1.0481
10533TIP3   OH253013   4.669   4.362   3.401 -0.3416  0.4272 -0.4080
10533TIP3    H153014   4.655   4.444   3.449  0.3760  0.2384  0.1457
10533TIP3    H253015   4.582   4.324   3.394 -0.5600  0.8019  0.1398
10534TIP3   OH253016   4.237   1.416  13.950  0.1981 -0.2673 -0.0946
10534TIP3    H153017   4.157   1.452  13.990  1.1226 -2.4299  4.0659
10534TIP3    H253018   4.214   1.327  13.927  0.3406  0.2959 -2.5029
10535TIP3   OH253019   5.346   5.668   0.402 -0.6045  0.0983 -0.0608
10535TIP3    H153020   5.310   5.652   0.315  0.1033 -0.8608 -0.1892
10535TIP3    H253021   5.330   5.586   0.450 -0.8175  0.5482  0.6458
10536TIP3   OH253022   0.107   1.661  13.953  0.6701  0.1572  0.8118
10536TIP3    H153023   0.107   1.734  14.015  1.5890 -1.4161  2.7392
10536TIP3    H253024   0.168   1.686  13.885 -0.1514  1.8111  0.6608
10537TIP3   OH253025   6.131   1.847  12.934  0.4041  0.5987  0.1712
10537TIP3    H153026   6.073   1.923  12.935 -1.8706 -1.1190 -0.3552
10537TIP3    H253027   6.141   1.825  12.841 -0.0966 -0.6285  0.4069
10538TIP3   OH253028   4.560   2.268   0.399 -0.1062  0.0889  0.4815
10538TIP3    H153029   4.475   2.311   0.401 -1.4673 -2.4183 -0.5211
10538TIP3    H253030   4.552   2.195   0.460  1.6421  0.3200  1.0267
10539TIP3   OH253031   0.711   3.278   3.498 -0.1643  0.0920  0.2513
10539TIP3    H153032   0.647   3.318   3.439 -1.5856 -2.6038 -0.1478
10539TIP3    H253033   0.692   3.316   3.583 -1.0184  0.7794 -0.2401
10540TIP3   OH253034   5.702   3.907   2.165 -0.1580 -0.7266  0.2957
10540TIP3    H153035   5.748   3.851   2.102  1.0022 -1.1484  1.4914
10540TIP3    H253036   5.771   3.943   2.220 -1.1261 -0.0504  1.0804
10541TIP3   OH253037   1.720   5.106  12.127 -0.2997 -0.4164  0.3526
10541TIP3    H153038   1.657   5.036  12.109 -2.2474  1.2480  0.5869
10541TIP3    H253039   1.681   5.184  12.087  1.8133  0.5635  0.1554
10542TIP3   OH253040   5.242   1.265   5.449  0.1137 -0.2540  0.1723
10542TIP3    H153041   5.248   1.343   5.395 -1.7542 -0.1151  0.1325
10542TIP3    H253042   5.200   1.295   5.530 -1.4238 -1.3434 -0.1801
10543TIP3   OH253043   0.348   5.269  15.727  0.4019  0.2065 -0.2485
10543TIP3    H153044   0.433   5.313  15.731  1.2447 -1.1913 -2.0294
10543TIP3    H253045   0.368   5.177  15.741 -0.7765 -0.1628 -0.8975
10544TIP3   OH253046   0.047   6.080  12.059  0.0194  0.0411  0.0909
10544TIP3    H153047  -0.046   6.077  12.037 -0.3118  1.5363  1.2020
10544TIP3    H253048   0.084   6.003  12.017 -1.5338 -0.0065 -1.2441
10545TIP3   OH253049   1.663   5.233   5.433  0.1205 -0.1463  0.0748
10545TIP3    H153050   1.567   5.226   5.431  0.0890 -0.1627  1.0888
10545TIP3    H253051   1.683   5.305   5.373 -0.6964  1.2648  1.4415
10546TIP3   OH253052   1.829   0.530  14.371  0.1113  0.1250 -0.4956
10546TIP3    H153053   1.770   0.459  14.400  0.3570 -0.8838 -2.3872
10546TIP3    H253054   1.916   0.493  14.379  0.3755  0.8987  0.3045
10547TIP3   OH253055   5.330   5.034   1.548 -0.4670  0.1620  0.1878
10547TIP3    H153056   5.377   4.950   1.555 -0.8682 -0.0776 -0.0088
10547TIP3    H253057   5.385   5.087   1.490 -1.4706 -0.8362 -1.7198
10548TIP3   OH253058   4.787   6.154  15.364  1.2246  0.1655  0.1858
10548TIP3    H153059   4.858   6.090  15.373  0.4355 -0.6859  0.3569
10548TIP3    H253060   4.722   6.110  15.310  1.2949  1.3511 -0.8775
10549TIP3   OH253061   5.611   5.988   1.365  0.4271 -0.2929 -0.2464
10549TIP3    H153062   5.564   5.960   1.287 -1.1217 -0.2909  0.6659
10549TIP3    H253063   5.543   6.008   1.429  1.6917 -1.1111  1.4017
10550TIP3   OH253064   1.377   4.450  14.188 -0.1373 -0.0854 -0.3963
10550TIP3    H153065   1.376   4.364  14.229 -2.0884 -0.2650 -0.7588
10550TIP3    H253066   1.412   4.435  14.100  1.5786 -0.1275  0.2708
10551TIP3   OH253067   6.743   3.420  13.270  0.1455  0.4667 -0.0141
10551TIP3    H153068   6.657   3.434  13.310 -0.3391  0.4610 -1.0286
10551TIP3    H253069   6.753   3.493  13.208 -0.2008 -0.8453 -1.6588
10552TIP3   OH253070   2.105   3.175   1.441 -0.0828 -0.6069  0.7862
10552TIP3    H153071   2.191   3.216   1.440 -0.2461 -0.2595  0.7253
10552TIP3    H253072   2.044   3.246   1.421 -0.3368 -0.9763  0.2300
10553TIP3   OH253073   2.481   0.340   4.966  0.6261  0.3655  0.2727
10553TIP3    H153074   2.473   0.248   4.993  0.3309  0.3125  0.0012
10553TIP3    H253075   2.546   0.339   4.896  0.4378  0.3296  0.0985
10554TIP3   OH253076   1.718   0.805   4.234 -0.5633 -0.0328  0.3190
10554TIP3    H153077   1.706   0.750   4.157 -1.4768 -0.3072  0.6456
10554TIP3    H253078   1.724   0.744   4.307 -1.4908  0.2772  0.6702
10555TIP3   OH253079   6.427   2.419  12.748 -0.1089 -0.2296 -0.7128
10555TIP3    H153080   6.398   2.344  12.801  1.1319 -0.2499 -0.0512
10555TIP3    H253081   6.461   2.379  12.667  1.4243 -0.4705  0.0271
10556TIP3   OH253082   3.357   6.386   2.669  0.5799  0.1765  0.2057
10556TIP3    H153083   3.444   6.386   2.710  1.0001  2.2112 -0.6186
10556TIP3    H253084   3.326   6.475   2.680 -0.8284 -0.1904 -0.7291
10557TIP3   OH253085   1.702   1.873   1.581 -0.3004 -0.1383  0.4203
10557TIP3    H153086   1.780   1.918   1.611 -0.7703 -0.1023  1.6096
10557TIP3    H253087   1.633   1.899   1.642 -0.8164 -1.6366  0.5189
10558TIP3   OH253088   1.880   3.994  11.661 -0.0711 -0.7907  0.3666
10558TIP3    H153089   1.846   4.075  11.700  0.6274  0.6945 -1.9761
10558TIP3    H253090   1.975   4.007  11.657  0.1388 -2.1210  0.7858
10559TIP3   OH253091   4.427   1.905   5.153  0.0617 -0.5396  0.3134
10559TIP3    H153092   4.345   1.900   5.201 -0.1601 -2.2070 -0.1934
10559TIP3    H253093   4.486   1.955   5.209 -1.0004 -0.1916  1.1186
10560TIP3   OH253094   1.894   6.279  16.244  0.5055 -0.2702 -0.3481
10560TIP3    H153095   1.839   6.205  16.219 -0.2708 -0.2742  1.2914
10560TIP3    H253096   1.908   6.327  16.163 -1.4200 -0.6298 -0.9238
10561TIP3   OH253097   6.435   5.374   2.872  0.1620 -0.1690 -0.0393
10561TIP3    H153098   6.496   5.313   2.831  0.9748  0.2752  0.4984
10561TIP3    H253099   6.448   5.456   2.825 -0.3963 -0.2064 -0.2640
10562TIP3   OH253100   6.394   4.971  11.718  0.2671  0.1540 -0.5228
10562TIP3    H153101   6.405   4.875  11.719 -0.2788  0.0896  1.2334
10562TIP3    H253102   6.469   5.003  11.669  1.5762 -1.0650  0.6303
10563TIP3   OH253103   0.247   2.695   5.755  0.3608 -0.2725 -0.2335
10563TIP3    H153104   0.175   2.740   5.801  1.5726  1.7942 -0.2675
10563TIP3    H253105   0.324   2.716   5.808  1.0603 -1.7776 -0.6657
10564TIP3   OH253106   5.238   2.953  16.953 -1.0140 -0.0706 -0.0073
10564TIP3    H153107   5.191   2.870  16.954  1.2201 -1.3676  1.4742
10564TIP3    H253108   5.264   2.968  17.044 -0.3423  1.6412 -0.4479
10565TIP3   OH253109   3.863   6.138  10.613 -0.0917  0.3249 -0.2827
10565TIP3    H153110   3.869   6.043  10.601  2.4185  0.1916  1.6438
10565TIP3    H253111   3.792   6.149  10.676  1.1449 -0.4957  1.3174
10566TIP3   OH253112   5.371   3.439   4.592 -0.4730 -0.2888  1.2262
10566TIP3    H153113   5.318   3.418   4.670 -1.1622 -0.3644  0.7414
10566TIP3    H253114   5.405   3.354   4.564  0.7739 -0.1119  2.1470
10567TIP3   OH253115   3.846   0.578  12.856  0.0179  0.0477 -0.9791
10567TIP3    H153116   3.940   0.560  12.855  0.1213  0.4931 -0.0518
10567TIP3    H253117   3.818   0.551  12.944 -0.4007  1.4820 -0.6640
10568TIP3   OH253118   4.408   3.564   2.052  0.7344  0.9337 -0.7374
10568TIP3    H153119   4.371   3.487   2.008  0.3960  0.5030  0.2725
10568TIP3    H253120   4.492   3.534   2.086  1.2862  1.4501 -1.6335
10569TIP3   OH253121   1.116   6.446  11.194  0.0091 -0.4330  0.3953
10569TIP3    H153122   1.114   6.509  11.122  2.4351  0.8969  1.4469
10569TIP3    H253123   1.046   6.383  11.173  0.6482 -0.0553 -3.0670
10570TIP3   OH253124   2.638   5.266  15.950  0.2054  0.0530 -0.0271
10570TIP3    H153125   2.561   5.238  15.999  0.3720  0.5652  0.5246
10570TIP3    H253126   2.656   5.193  15.890 -2.3063  1.0000 -2.0313
10571TIP3   OH253127   5.916   3.320  13.632 -0.5503 -0.3357 -0.0750
10571TIP3    H153128   5.944   3.281  13.714 -0.2356 -0.6344 -0.3228
10571TIP3    H253129   5.996   3.323  13.578 -0.6444  0.3119 -0.1904
10572TIP3   OH253130   4.944   5.766  12.540  0.2012  0.1713  0.2602
10572TIP3    H153131   4.911   5.855  12.552  0.9064  0.4052  0.5023
10572TIP3    H253132   5.021   5.776  12.485  0.1049 -0.3232  0.0361
10573TIP3   OH253133   1.883   1.259  10.833 -0.6817  0.1490 -0.3835
10573TIP3    H153134   1.884   1.354  10.827  0.6917  0.1266 -0.8700
10573TIP3    H253135   1.906   1.229  10.745 -1.2335 -0.6262 -0.2644
10574TIP3   OH253136   4.427   5.772  15.214 -0.1602  0.4194  0.0695
10574TIP3    H153137   4.497   5.733  15.265 -0.2008 -1.1286 -1.0361
10574TIP3    H253138   4.347   5.752  15.263 -0.2700 -1.6579 -0.8947
10575TIP3   OH253139   3.252   0.747   5.645  0.4208  0.1584 -0.0781
10575TIP3    H153140   3.166   0.736   5.604  0.2079  2.8792 -0.4301
10575TIP3    H253141   3.235   0.800   5.723  1.6795  0.1004  0.2436
10576TIP3   OH253142   0.757   4.829  12.917  0.0572  0.0212  0.1129
10576TIP3    H153143   0.827   4.778  12.875  0.6599  0.1650  0.9406
10576TIP3    H253144   0.735   4.896  12.851  0.5902 -0.1208 -0.2193
10577TIP3   OH253145   5.190   5.837  16.142 -0.0365  0.2423 -0.1854
10577TIP3    H153146   5.239   5.795  16.070  0.8900  3.1287 -1.3082
10577TIP3    H253147   5.254   5.894  16.184 -0.9574 -0.3729  2.0843
10578TIP3   OH253148   3.717   4.170   1.727  0.2166 -0.0860  0.5947
10578TIP3    H153149   3.789   4.199   1.784  1.1037 -0.7532 -0.1575
10578TIP3    H253150   3.641   4.217   1.759  0.6825 -0.4813  2.3718
10579TIP3   OH253151   3.554   2.669   4.745 -0.2292  0.2611 -0.1676
10579TIP3    H153152   3.594   2.686   4.831  0.7031 -0.9929 -0.3408
10579TIP3    H253153   3.465   2.641   4.766 -1.0372  2.9739  0.2290
10580TIP3   OH253154   1.966   6.752  11.517  0.2050  0.5632 -0.3337
10580TIP3    H153155   1.876   6.778  11.534 -0.1653 -0.6723 -0.3736
10580TIP3    H253156   2.003   6.734  11.603 -0.5629 -2.0821 -0.5353
10581TIP3   OH253157   2.688   0.401   4.774 -0.5140 -0.3249 -0.3623
10581TIP3    H153158   2.694   0.342   4.700  0.0718 -2.0295  1.0101
10581TIP3    H253159   2.756   0.467   4.759  0.2224 -1.2044 -0.8538
10582TIP3   OH253160   3.833   5.469   4.582 -0.1642 -0.2313  0.0655
10582TIP3    H153161   3.861   5.555   4.552 -0.1284 -1.1188 -2.5674
10582TIP3    H253162   3.743   5.460   4.552 -0.2186 -1.0694  0.4488
10583TIP3   OH253163   5.751   1.225  11.663 -0.1589  0.0143 -0.6603
10583TIP3    H153164   5.704   1.288  11.718  0.0501  0.3636 -0.8744
10583TIP3    H253165   5.832   1.270  11.641  0.9214 -1.1491  0.8886
10584TIP3   OH253166   0.666   3.898   1.845 -0.1557  0.5413  0.3506
10584TIP3    H153167   0.696   3.986   1.871 -0.0041  2.0779 -4.5166
10584TIP3    H253168   0.732   3.868   1.782 -0.6533 -2.7887  1.3208
10585TIP3   OH253169   5.122   4.995  15.775  0.1223 -0.0475 -0.7817
10585TIP3    H153170   5.027   4.982  15.784 -0.0004 -0.0129 -1.8626
10585TIP3    H253171   5.154   5.008  15.864 -0.8311 -0.4963 -0.3721
10586TIP3   OH253172   1.793   4.838   1.469  0.1935  0.5485 -0.2945
10586TIP3    H153173   1.727   4.908   1.471 -1.4997 -1.0042 -0.0300
10586TIP3    H253174   1.794   4.804   1.559  1.1694  0.3739 -0.3653
10587TIP3   OH253175   6.246   5.100  17.051 -0.6081  0.1807 -0.2837
10587TIP3    H153176   6.257   5.195  17.054  1.5447 -0.0613  0.7240
10587TIP3    H253177   6.290   5.073  16.970  1.3199 -0.2074  0.8479
10588TIP3   OH253178   1.615   1.164   1.877  0.3690  0.8943  0.0647
10588TIP3    H153179   1.589   1.076   1.905  0.6204  1.3197  1.7163
10588TIP3    H253180   1.696   1.151   1.828  0.1183  0.1428 -0.1528
10589TIP3   OH253181   5.829   5.290  14.062 -0.4217 -0.7063  0.0669
10589TIP3    H153182   5.838   5.196  14.047  1.5256 -0.2033 -2.1054
10589TIP3    H253183   5.870   5.304  14.147 -2.3901 -2.0477  1.3103
10590TIP3   OH253184   4.740   0.919   3.573 -0.0047  0.3615 -0.0373
10590TIP3    H153185   4.758   0.940   3.481  0.7625 -2.1825 -0.5082
10590TIP3    H253186   4.826   0.903   3.611 -0.5456 -2.0178  0.2339
10591TIP3   OH253187   3.954   6.166   2.867 -0.0393 -0.9334  0.1436
10591TIP3    H153188   3.906   6.102   2.815 -1.0334  1.3080 -1.7713
10591TIP3    H253189   4.013   6.209   2.806 -1.1275  1.6552  0.8349
10592TIP3   OH253190   2.722   1.510  13.887  0.2315  0.2713 -0.3862
10592TIP3    H153191   2.654   1.558  13.840 -0.2623  1.0357  1.0710
10592TIP3    H253192   2.781   1.578  13.919 -0.3193 -0.0971  1.4477
10593TIP3   OH253193   0.729   5.005  12.711  0.4613  0.3046  0.0993
10593TIP3    H153194   0.698   4.980  12.623  2.3671  0.1936 -0.5513
10593TIP3    H253195   0.695   5.094  12.723 -1.2059 -0.2788 -0.0506
10594TIP3   OH253196   4.630   5.320   0.137 -0.5895  0.2623 -0.2020
10594TIP3    H153197   4.590   5.403   0.113  1.8352  0.5824 -3.3861
10594TIP3    H253198   4.711   5.317   0.087 -0.0096 -3.4716  0.8250
10595TIP3   OH253199   0.918   4.626  14.908  0.1280 -0.4538 -0.3376
10595TIP3    H153200   0.999   4.575  14.912  0.6784  0.5014  0.8726
10595TIP3    H253201   0.869   4.599  14.985  0.8892  1.6026  0.8935
10596TIP3   OH253202   4.172   3.138   1.242 -0.1077  0.4151 -0.4194
10596TIP3    H153203   4.139   3.067   1.187  0.6119 -0.9065  0.8641
10596TIP3    H253204   4.139   3.218   1.199 -0.9316 -0.6706 -1.8416
10597TIP3   OH253205   6.344   4.146   2.185  0.8902 -0.0022  0.3515
10597TIP3    H153206   6.380   4.124   2.099  2.1409 -0.6875  1.0403
10597TIP3    H253207   6.357   4.240   2.194  0.3932  0.1367 -0.3721
10598TIP3   OH253208   5.708   3.490   3.257 -0.0368 -0.3672 -0.1048
10598TIP3    H153209   5.737   3.566   3.206  1.2423  0.6592  2.0788
10598TIP3    H253210   5.740   3.414   3.208  3.1569  0.6371  0.2973
10599TIP3   OH253211   5.527   1.672  11.067 -0.0442 -0.0907 -0.6871
10599TIP3    H153212   5.571   1.604  11.117  1.0416  1.6553  0.8011
10599TIP3    H253213   5.553   1.754  11.109 -2.8613  1.1531 -1.2143
10600TIP3   OH253214   4.510   3.503   4.094 -0.2493 -0.2669  0.2298
10600TIP3    H153215   4.603   3.517   4.079 -0.4571  0.6506 -0.2442
10600TIP3    H253216   4.477   3.470   4.010 -0.4857  0.0758  0.1894
10601TIP3   OH253217   2.464   0.607  13.789  0.4790  0.3428  0.1004
10601TIP3    H153218   2.417   0.536  13.745  2.4835 -0.7848 -0.2618
10601TIP3    H253219   2.415   0.622  13.870  0.9182 -2.5505  0.9550
10602TIP3   OH253220   3.739   3.592  14.631 -0.4826  0.6282 -0.1130
10602TIP3    H153221   3.744   3.528  14.561 -0.1351  0.7181 -0.1683
10602TIP3    H253222   3.657   3.639  14.614 -0.7318  0.2112 -0.0792
10603TIP3   OH253223   0.220   4.012  14.817  0.1529  0.1258 -0.9841
10603TIP3    H153224   0.125   4.020  14.811  0.1524  1.8516  0.9000
10603TIP3    H253225   0.234   3.949  14.888  0.4203 -0.4356 -1.5321
10604TIP3   OH253226   1.156   5.263   5.846  0.0569 -0.4979 -0.6400
10604TIP3    H153227   1.181   5.170   5.853  1.7609  0.0322  0.6981
10604TIP3    H253228   1.164   5.296   5.935 -2.6645  0.4530 -0.7094
10605TIP3   OH253229   2.197   1.775  11.791 -0.0668 -0.3962 -0.1588
10605TIP3    H153230   2.192   1.691  11.746  0.0481 -0.2084 -0.5185
10605TIP3    H253231   2.117   1.820  11.767 -1.3064 -1.3574  1.9456
10606TIP3   OH253232   1.470   0.834  16.359 -0.2835  0.2358  0.0925
10606TIP3    H153233   1.547   0.870  16.314  0.3534 -1.6428 -0.3792
10606TIP3    H253234   1.440   0.904  16.416  1.3690  1.2372 -0.2504
10607TIP3   OH253235   0.514   4.822   2.425 -0.7270  0.3309 -0.0877
10607TIP3    H153236   0.503   4.818   2.520 -0.8013  1.5734 -0.0312
10607TIP3    H253237   0.578   4.892   2.412  1.1120 -1.4387 -0.8328
10608TIP3   OH253238   5.076   2.525  16.325  0.2728  0.7178  0.8514
10608TIP3    H153239   5.000   2.563  16.369 -2.2132 -2.2205 -0.6699
10608TIP3    H253240   5.067   2.552  16.233  0.1189 -1.0540  0.3366
10609TIP3   OH253241   2.522   2.039  16.210 -0.5036  0.2007  1.0292
10609TIP3    H153242   2.562   1.951  16.208  0.5059  0.6620  0.5702
10609TIP3    H253243   2.449   2.033  16.148  1.0772  0.3875 -0.9086
10610TIP3   OH253244   4.512   2.700  14.141  0.3705 -0.0956  0.3821
10610TIP3    H153245   4.467   2.674  14.061  1.4110 -1.1798  0.1388
10610TIP3    H253246   4.456   2.668  14.212 -0.9230  1.5098  0.1110
10611TIP3   OH253247   3.834   3.293  13.732 -0.0463 -0.3753 -0.4269
10611TIP3    H153248   3.745   3.322  13.749  0.2064  1.5781 -2.2485
10611TIP3    H253249   3.827   3.198  13.724 -1.4599 -0.5520  2.2793
10612TIP3   OH253250   5.478   1.091   1.628  0.5081 -0.5769  0.8721
10612TIP3    H153251   5.521   1.119   1.709  1.1277 -1.8267  0.9862
10612TIP3    H253252   5.464   0.997   1.639 -2.0890 -0.2434  0.7288
10613TIP3   OH253253   0.476   1.284   2.363 -0.6511 -0.5002  0.2937
10613TIP3    H153254   0.475   1.254   2.272 -0.3007  0.5344 -0.0514
10613TIP3    H253255   0.553   1.341   2.369 -0.2649 -1.1155  1.4146
10614TIP3   OH253256   3.522   0.192  14.560 -0.0601  0.5142  0.0416
10614TIP3    H153257   3.523   0.224  14.469  0.0327  0.2040 -0.0703
10614TIP3    H253258   3.547   0.100  14.552  0.9766  0.7546  0.4883
10615TIP3   OH253259   0.848   4.106  14.269  0.8944  0.0293 -0.1322
10615TIP3    H153260   0.889   4.171  14.326  1.4575  1.6217 -2.3082
10615TIP3    H253261   0.758   4.099  14.301  1.4732  0.1506  1.5636
10616TIP3   OH253262   5.932   3.865   2.001  0.2199 -0.2538 -0.3418
10616TIP3    H153263   6.012   3.878   2.053  2.6172 -1.4301 -3.5834
10616TIP3    H253264   5.951   3.789   1.947 -2.7743  0.0297 -1.9011
10617TIP3   OH253265   5.352   2.230  13.982  0.0221  0.3021 -0.3372
10617TIP3    H153266   5.311   2.171  14.045  2.9132  0.4236  1.7503
10617TIP3    H253267   5.374   2.174  13.907  0.7067 -0.7919  0.6726
10618TIP3   OH253268   3.169   0.552   3.077 -0.3277  0.1576 -0.0784
10618TIP3    H153269   3.101   0.610   3.042 -1.8643 -0.0405  2.4236
10618TIP3    H253270   3.190   0.590   3.163  0.3431 -1.6299  0.5642
10619TIP3   OH253271   6.108   0.935   3.514 -0.2368 -0.5154 -0.5841
10619TIP3    H153272   6.115   0.848   3.474 -1.7084 -1.6830  1.5534
10619TIP3    H253273   6.015   0.957   3.508  0.2859  1.3808 -2.0143
10620TIP3   OH253274   0.360   0.577  15.415 -0.2145 -0.5082  0.2885
10620TIP3    H153275   0.345   0.664  15.453  1.8466  0.1906 -0.4464
10620TIP3    H253276   0.273   0.549  15.384 -1.1228  0.7380  1.6339
10621TIP3   OH253277   6.543   2.921   5.451 -0.2724  0.3519  0.5759
10621TIP3    H153278   6.577   2.892   5.535 -0.9215 -1.2231  0.3142
10621TIP3    H253279   6.470   2.861   5.432  1.7488 -1.2888 -2.4990
10622TIP3   OH253280   1.509   2.229  16.944 -0.2804  1.3878  0.1111
10622TIP3    H153281   1.463   2.301  16.988 -1.6449 -0.7995  2.4073
10622TIP3    H253282   1.537   2.172  17.015  0.8040 -0.3364 -1.6637
10623TIP3   OH253283   3.449   5.242   2.705 -0.4607 -0.3045 -0.5996
10623TIP3    H153284   3.387   5.199   2.647 -1.4625 -0.3197  0.4591
10623TIP3    H253285   3.465   5.178   2.775 -0.0056  0.0713 -0.3541
10624TIP3   OH253286   4.450   0.009  14.153  0.2235  0.5010  0.1114
10624TIP3    H153287   4.401   0.069  14.210  0.4459 -1.3923  2.3711
10624TIP3    H253288   4.395   0.000  14.075 -0.7596  2.0603  0.6017
10625TIP3   OH253289   0.119   2.009  13.002  0.1761 -0.3420 -0.5175
10625TIP3    H153290   0.116   1.925  13.049  0.0623 -0.4212 -0.6654
10625TIP3    H253291   0.180   1.993  12.930  0.1745 -0.2899 -0.5294
10626TIP3   OH253292   6.700   3.462   2.802  0.2171  0.0279  0.0986
10626TIP3    H153293   6.785   3.453   2.845 -0.1545  0.5101  0.9553
10626TIP3    H253294   6.719   3.506   2.720  0.8977 -0.5872 -0.0746
10627TIP3   OH253295   4.192   1.941   5.275 -0.3386 -0.0479 -0.0526
10627TIP3    H153296   4.140   1.985   5.208 -0.2406 -1.0828 -0.8272
10627TIP3    H253297   4.239   2.011   5.321 -0.5504  0.6752 -0.9495
10628TIP3   OH253298   4.217   3.576   4.094  0.0758  0.2006  0.0428
10628TIP3    H153299   4.177   3.663   4.088 -2.0561 -0.5230  2.9707
10628TIP3    H253300   4.307   3.593   4.121 -0.1786  1.5034  0.1353
10629TIP3   OH253301   5.729   1.221   3.007  0.3033 -0.0621  0.3805
10629TIP3    H153302   5.784   1.288   3.048 -0.1095 -0.7963  2.1347
10629TIP3    H253303   5.788   1.177   2.945  0.3203  2.5670 -1.5953
10630TIP3   OH253304   1.537   2.721   1.085 -0.1268 -0.6154  0.0241
10630TIP3    H153305   1.500   2.796   1.131 -0.4902  0.1582 -1.5098
10630TIP3    H253306   1.470   2.652   1.095 -0.3779 -0.3322  0.3170
10631TIP3   OH253307   3.691   4.979  11.404 -0.0770  0.4565  0.5466
10631TIP3    H153308   3.786   4.979  11.397 -0.1108 -0.2681 -0.0565
10631TIP3    H253309   3.671   5.045  11.470  0.7436  1.9750 -0.6934
10632TIP3   OH253310   2.106   4.412   3.486 -0.0411 -0.2656  0.0541
10632TIP3    H153311   2.104   4.426   3.391  0.2239 -0.6520 -0.0132
10632TIP3    H253312   2.083   4.497   3.524 -1.4284 -0.4410 -0.3708
10633TIP3   OH253313   0.843   0.539  12.643 -0.0145 -0.3126 -0.4308
10633TIP3    H153314   0.878   0.615  12.597  0.5622 -0.5985 -0.4664
10633TIP3    H253315   0.756   0.566  12.671  0.1597  0.3376 -0.5074
10634TIP3   OH253316   5.882   5.034  12.100  0.0373  0.5577  0.2696
10634TIP3    H153317   5.829   5.054  12.177 -0.2642  0.2966  0.1318
10634TIP3    H253318   5.872   5.110  12.043 -2.1239 -0.4936 -0.8140
10635TIP3   OH253319   5.328   1.270   1.502  0.3825  0.5817  0.1413
10635TIP3    H153320   5.379   1.198   1.540 -0.4970  0.0633  0.3372
10635TIP3    H253321   5.332   1.255   1.408 -1.3334 -0.7828  0.2588
10636TIP3   OH253322   0.295   3.998  16.307 -0.1884 -0.4753  0.4771
10636TIP3    H153323   0.339   4.063  16.253  0.9432 -0.8667  0.9198
10636TIP3    H253324   0.202   4.020  16.300 -0.1100 -0.7981 -2.0214
10637TIP3   OH253325   0.496   4.014   6.810 -0.2728  0.1378  0.2768
10637TIP3    H153326   0.569   4.037   6.868 -0.1729  0.5558 -0.0131
10637TIP3    H253327   0.538   3.996   6.726 -0.1612 -2.7145  0.8908
10638TIP3   OH253328   1.245   5.564  10.657  0.2314 -0.0781  0.2692
10638TIP3    H153329   1.293   5.497  10.608 -0.6212 -0.9783  0.6615
10638TIP3    H253330   1.174   5.517  10.699 -0.9588  1.2279 -0.2301
10639TIP3   OH253331   5.826   3.441  14.392 -0.5386 -0.4572 -0.1965
10639TIP3    H153332   5.861   3.527  14.415  1.3067 -1.1160 -0.4863
10639TIP3    H253333   5.822   3.442  14.296 -2.0210 -0.1186 -0.1361
10640TIP3   OH253334   1.808   5.284   4.912  0.5031 -0.0484  0.1165
10640TIP3    H153335   1.713   5.279   4.922  0.4425  1.2260  0.1952
10640TIP3    H253336   1.841   5.290   5.002  0.5678  0.8815  0.0389
10641TIP3   OH253337   5.239   5.061  16.423  0.4750 -0.2837  0.6478
10641TIP3    H153338   5.165   5.027  16.473 -0.5220  0.1496 -0.4869
10641TIP3    H253339   5.313   5.005  16.446 -0.2616 -0.8481  1.6458
10642TIP3   OH253340   3.830   4.395  10.779 -0.4437  0.0573 -0.4825
10642TIP3    H153341   3.896   4.446  10.733 -2.4596  1.2915 -2.1068
10642TIP3    H253342   3.826   4.312  10.732  0.2389 -0.1862 -0.1153
10643TIP3   OH253343   3.615   1.809   0.903 -0.1017  0.4220  0.5060
10643TIP3    H153344   3.574   1.895   0.912 -0.7616  0.0799  0.8361
10643TIP3    H253345   3.679   1.820   0.833 -0.8760  0.9354 -0.1296
10644TIP3   OH253346   3.702   3.894   1.815 -0.2134  0.1486 -0.3002
10644TIP3    H153347   3.646   3.851   1.750 -0.4797  1.0695 -0.6917
10644TIP3    H253348   3.726   3.977   1.774 -0.0431  0.5512  0.6203
10645TIP3   OH253349   2.960   5.455  15.737  0.2066 -0.3112  0.6563
10645TIP3    H153350   3.047   5.449  15.697 -0.3223 -0.9786 -0.4303
10645TIP3    H253351   2.913   5.379  15.702 -0.2209 -1.0045  2.7170
10646TIP3   OH253352   6.434   0.051  16.660  0.7323 -0.5018 -0.0562
10646TIP3    H153353   6.427   0.113  16.586  0.9826 -1.9213 -1.2955
10646TIP3    H253354   6.395   0.098  16.734 -0.9485  0.3646 -1.4478
10647TIP3   OH253355   0.579   0.910  12.380  0.2895  0.5392  0.2025
10647TIP3    H153356   0.618   0.881  12.298  1.7914 -2.3421  1.8675
10647TIP3    H253357   0.514   0.842  12.401  0.6192  0.7157  1.8729
10648TIP3   OH253358   4.787   4.233   6.446 -0.1118  0.0609  0.1965
10648TIP3    H153359   4.824   4.145   6.442  0.0490  0.1542 -0.3473
10648TIP3    H253360   4.854   4.289   6.407 -0.0098  0.4932  0.9780
10649TIP3   OH253361   6.311   0.395  17.099 -0.5468 -0.4098  0.2080
10649TIP3    H153362   6.322   0.353  17.013  0.8277 -0.4801  0.3941
10649TIP3    H253363   6.397   0.384  17.141 -1.3191 -0.6776  1.7245
10650TIP3   OH253364   2.551   6.755  11.326 -0.5335 -0.2668  0.0638
10650TIP3    H153365   2.590   6.672  11.300 -0.4075 -0.2708  0.2620
10650TIP3    H253366   2.513   6.737  11.413  0.8023  0.2910  0.7673
10651TIP3   OH253367   5.918   0.058   5.215  0.3082  0.3494  0.2178
10651TIP3    H153368   5.900  -0.032   5.189  1.6060  0.7031 -2.0675
10651TIP3    H253369   5.833   0.094   5.240 -0.3290 -1.2871  0.4347
10652TIP3   OH253370   2.525   6.279   2.466  0.4979  0.0079 -0.9112
10652TIP3    H153371   2.505   6.373   2.456 -0.1137  0.0681  0.7107
10652TIP3    H253372   2.604   6.277   2.520 -0.7133 -0.4277  0.8961
10653TIP3   OH253373   5.416   3.384  11.871 -0.2075 -0.0449  0.3063
10653TIP3    H153374   5.322   3.372  11.863 -0.4674  2.4505 -0.8451
10653TIP3    H253375   5.454   3.314  11.817 -1.4737  0.8169 -1.7404
10654TIP3   OH253376   2.869   4.210  13.684 -0.0146  0.0396  0.7809
10654TIP3    H153377   2.936   4.167  13.630 -0.6397  0.3349 -0.2321
10654TIP3    H253378   2.811   4.138  13.710  0.5828 -0.1875  1.5068
10655TIP3   OH253379   2.525   3.055  16.108  0.1653  0.0832  0.4332
10655TIP3    H153380   2.604   3.023  16.151 -0.2680 -0.2000  1.0189
10655TIP3    H253381   2.454   3.034  16.169 -0.7603 -2.3424 -1.3998
10656TIP3   OH253382   4.157   5.409   3.653 -0.2501  0.0678 -0.0570
10656TIP3    H153383   4.088   5.412   3.588  0.0363  0.5290 -0.3415
10656TIP3    H253384   4.135   5.479   3.715 -0.5820 -0.4405  0.4077
10657TIP3   OH253385   6.049   1.556   3.809 -0.4191  0.0368 -0.2424
10657TIP3    H153386   6.106   1.574   3.884 -0.1712 -1.6571 -0.0061
10657TIP3    H253387   6.105   1.567   3.732  0.5238 -2.5293  0.0248
10658TIP3   OH253388   1.113   4.772  13.318 -0.1667  0.1745  0.0573
10658TIP3    H153389   1.147   4.785  13.406  1.5121  1.5267 -0.7668
10658TIP3    H253390   1.153   4.691  13.288  0.0256  0.2274  0.1748
10659TIP3   OH253391   3.571   4.109   3.617  0.6453 -0.2265 -0.2335
10659TIP3    H153392   3.631   4.117   3.691  1.7523  0.1688 -1.1645
10659TIP3    H253393   3.594   4.182   3.559 -1.7918  0.8826  0.1447
10660TIP3   OH253394   0.166   3.708   2.912 -0.2541 -0.3605 -0.0106
10660TIP3    H153395   0.259   3.709   2.936 -0.4994 -1.4577  1.0515
10660TIP3    H253396   0.149   3.795   2.876  1.2721 -0.2738 -0.5472
10661TIP3   OH253397   6.138   4.965  11.596 -0.8626  0.6369 -0.0116
10661TIP3    H153398   6.196   4.976  11.672 -1.4396  0.8326  0.3967
10661TIP3    H253399   6.183   4.900  11.542 -1.5866 -1.2431  1.6082
10662TIP3   OH253400   0.765   1.851  13.736  0.0747 -0.3560 -0.5067
10662TIP3    H153401   0.765   1.755  13.736 -0.9043 -0.3920 -2.1347
10662TIP3    H253402   0.760   1.874  13.643  1.1354  1.2848 -0.1703
10663TIP3   OH253403   3.716   2.640  16.878 -0.2047 -0.1063  1.0020
10663TIP3    H153404   3.686   2.550  16.870 -0.2319 -0.0130 -0.0061
10663TIP3    H253405   3.800   2.642  16.831 -0.1081  0.3473  1.1911
10664TIP3   OH253406   5.766   2.237   0.812  0.2170 -0.1710  0.0536
10664TIP3    H153407   5.810   2.252   0.729 -0.9233  1.1494 -0.3255
10664TIP3    H253408   5.836   2.213   0.873  1.2191  0.1528 -0.9651
10665TIP3   OH253409   5.828   5.710   5.454 -0.3144  0.3101  0.4004
10665TIP3    H153410   5.855   5.799   5.473  2.8032 -0.2062 -1.3723
10665TIP3    H253411   5.881   5.683   5.379 -1.9532 -2.6692  0.1989
10666TIP3   OH253412   2.897   6.286   5.678  0.2855 -0.4787 -0.4236
10666TIP3    H153413   2.977   6.336   5.694  0.0594 -0.2792  0.1120
10666TIP3    H253414   2.835   6.320   5.743  0.3969 -2.0483  0.5291
10667TIP3   OH253415   4.165   5.906  15.242  0.2304 -0.1252  0.2994
10667TIP3    H153416   4.146   5.815  15.221 -1.4373 -0.1266  1.7008
10667TIP3    H253417   4.172   5.950  15.157 -0.8091 -1.1968 -0.3506
10668TIP3   OH253418   5.781   0.198  14.389 -0.4186 -0.4290 -0.1978
10668TIP3    H153419   5.758   0.107  14.407 -1.7379 -0.2580 -0.9529
10668TIP3    H253420   5.751   0.214  14.299 -2.1933  1.3658  0.6614
10669TIP3   OH253421   2.710   0.305   3.777 -0.1195  0.2056  0.2883
10669TIP3    H153422   2.718   0.243   3.850 -1.8742 -0.6906 -0.2339
10669TIP3    H253423   2.626   0.282   3.736 -0.9057  3.0848  0.2013
10670TIP3   OH253424   2.915   4.882   3.660 -0.0699  0.7349  0.5937
10670TIP3    H153425   2.886   4.818   3.596 -0.4272  2.1905 -0.7186
10670TIP3    H253426   2.974   4.833   3.718  1.7968 -0.1586 -1.9584
10671TIP3   OH253427   2.008   0.228   2.944 -0.1515 -0.1005  0.9882
10671TIP3    H153428   2.002   0.218   3.039 -0.5643  1.2422  1.1227
10671TIP3    H253429   2.088   0.183   2.920  0.3820  0.2419  2.0883
10672TIP3   OH253430   2.123   6.189   2.238  0.0859 -0.4592  0.1361
10672TIP3    H153431   2.052   6.155   2.294 -0.3199  1.2576  0.6755
10672TIP3    H253432   2.201   6.145   2.271 -0.3854 -0.6562  1.0175
10673TIP3   OH253433   3.222   1.344  11.847 -0.1384 -0.0676  0.2472
10673TIP3    H153434   3.231   1.253  11.874  0.6347 -0.0401  0.1055
10673TIP3    H253435   3.228   1.394  11.929 -0.5199 -0.1433  0.3202
10674TIP3   OH253436   5.427   4.217  13.143 -0.0653  0.1685 -0.2686
10674TIP3    H153437   5.375   4.297  13.147  0.6644  0.6478 -0.1363
10674TIP3    H253438   5.428   4.184  13.233 -1.5785 -0.7842 -0.5974
10675TIP3   OH253439   0.430   6.295   2.833 -0.1659  0.0182 -0.0563
10675TIP3    H153440   0.520   6.293   2.802  0.8516  2.8169  2.5225
10675TIP3    H253441   0.427   6.231   2.903 -0.0274  0.3460  0.2491
10676TIP3   OH253442   1.490   6.355   4.931 -0.0938  0.6040  0.2314
10676TIP3    H153443   1.485   6.442   4.892  0.9245 -0.2166 -1.8160
10676TIP3    H253444   1.399   6.326   4.935 -0.2290  0.6717 -1.6870
10677TIP3   OH253445   3.411   2.790  11.256  0.4783 -0.4996 -0.4016
10677TIP3    H153446   3.408   2.821  11.165  1.5751 -2.2203 -1.0420
10677TIP3    H253447   3.326   2.816  11.292  0.4810  1.2535 -1.5511
10678TIP3   OH253448   5.142   6.512   0.246  0.0185 -0.6974 -0.2373
10678TIP3    H153449   5.077   6.573   0.211 -0.4055 -0.9614  0.0910
10678TIP3    H253450   5.142   6.439   0.184 -1.3302 -1.5492  0.7406
10679TIP3   OH253451   5.108   4.381  11.701 -0.4781  0.1174 -0.3515
10679TIP3    H153452   5.033   4.323  11.714 -1.1236  0.4177 -2.4611
10679TIP3    H253453   5.183   4.323  11.693 -0.7783 -0.3004 -0.1494
10680TIP3   OH253454   5.456   4.601  16.680 -0.8122  0.3267  0.1669
10680TIP3    H153455   5.432   4.684  16.721 -1.4348  0.8133 -1.1434
10680TIP3    H253456   5.551   4.600  16.679 -0.7889  1.8417 -1.3690
10681TIP3   OH253457   0.784   3.126   4.941 -0.0640  0.0215  0.4958
10681TIP3    H153458   0.759   3.183   4.868 -0.5714 -0.4739  0.2803
10681TIP3    H253459   0.877   3.108   4.927 -0.2056 -0.2147 -0.1199
10682TIP3   OH253460   5.858   3.327   6.255 -0.1177 -0.5281 -1.0232
10682TIP3    H153461   5.873   3.258   6.320 -1.1570  0.5750  0.4324
10682TIP3    H253462   5.793   3.385   6.296  0.9614  1.4889 -2.0474
10683TIP3   OH253463   0.956   4.364  15.884 -0.2670  0.4668  0.2060
10683TIP3    H153464   0.898   4.346  15.810 -1.0978  0.1310  0.9261
10683TIP3    H253465   0.912   4.323  15.959 -0.4325  2.4958  1.2451
10684TIP3   OH253466   2.912   2.165   2.356 -0.2675  0.1481 -0.0601
10684TIP3    H153467   2.872   2.238   2.403  1.1881  1.1142 -0.3048
10684TIP3    H253468   2.841   2.129   2.302 -0.2697  3.2936 -2.2430
10685TIP3   OH253469   4.761   0.005  16.503 -0.1002 -0.5355 -0.2352
10685TIP3    H153470   4.719   0.008  16.418 -2.0482 -3.5310  0.5484
10685TIP3    H253471   4.711   0.066  16.558 -0.2222 -0.2736 -0.6374
10686TIP3   OH253472   3.627   5.867  16.466  0.4354  0.6404  0.4543
10686TIP3    H153473   3.579   5.895  16.388  0.6796 -0.2272 -0.0053
10686TIP3    H253474   3.561   5.824  16.521  0.8956 -1.5492 -0.6692
10687TIP3   OH253475   3.932   1.625   2.089  0.3648  0.3903  0.1863
10687TIP3    H153476   3.908   1.715   2.066 -0.6203  0.0588 -0.1002
10687TIP3    H253477   3.877   1.570   2.033 -0.0874 -0.4077  1.3722
10688TIP3   OH253478   6.123   4.360   5.611 -0.3156 -0.0416  0.1084
10688TIP3    H153479   6.184   4.421   5.569 -2.1523  1.6248 -0.2658
10688TIP3    H253480   6.053   4.417   5.646 -0.6053 -1.6980  2.3559
10689TIP3   OH253481   2.363   2.198   2.333 -0.1466 -0.2899 -0.7477
10689TIP3    H153482   2.443   2.175   2.285  0.5439 -1.9230  1.0906
10689TIP3    H253483   2.357   2.293   2.326  0.8885 -0.3302 -2.5435
10690TIP3   OH253484   2.297   4.763   1.529  0.1347  0.6214 -0.0128
10690TIP3    H153485   2.221   4.822   1.527  1.0190  1.7362 -1.8992
10690TIP3    H253486   2.260   4.677   1.511 -0.9527  0.8243  1.1111
10691TIP3   OH253487   6.288   4.542   1.949 -0.3054 -0.5721  0.3331
10691TIP3    H153488   6.277   4.467   2.007 -0.7738 -1.2557 -0.6370
10691TIP3    H253489   6.201   4.560   1.914 -0.2936  0.7327  0.9157
10692TIP3   OH253490   3.636   0.799  15.336  0.0202 -0.4739  0.3681
10692TIP3    H153491   3.690   0.722  15.319 -0.7599 -0.5928 -1.6397
10692TIP3    H253492   3.559   0.763  15.381 -1.5930 -1.2939 -2.9070
10693TIP3   OH253493   0.779   3.648   4.504  0.0049  0.0287  0.1903
10693TIP3    H153494   0.707   3.707   4.528 -0.6571 -0.5741 -0.3019
10693TIP3    H253495   0.749   3.603   4.426  1.2711  0.3701 -0.5077
10694TIP3   OH253496   0.447   2.435  16.512 -0.3309  0.3121  0.0726
10694TIP3    H153497   0.405   2.497  16.571  1.3656  1.5751 -0.0150
10694TIP3    H253498   0.404   2.450  16.427  0.0549  1.3745  0.0568
10695TIP3   OH253499   2.357   4.567  11.337 -0.3055  0.0032  0.3163
10695TIP3    H153500   2.406   4.571  11.255  0.5949 -0.5747  0.8110
10695TIP3    H253501   2.354   4.658  11.367  0.8956 -0.0119  0.5199
10696TIP3   OH253502   3.037   4.463   3.851  0.3503  0.6573  0.8471
10696TIP3    H153503   2.996   4.423   3.775  0.4762  1.3010  0.4317
10696TIP3    H253504   2.966   4.474   3.914  0.7985 -2.5187  1.9490
10697TIP3   OH253505   4.720   2.148  11.873  0.1356  0.0063  0.5152
10697TIP3    H153506   4.778   2.080  11.837  1.6542  0.8171  1.3490
10697TIP3    H253507   4.632   2.122  11.846  0.9227 -1.0433 -1.1478
10698TIP3   OH253508   2.469   3.355   2.772  0.4003  0.0162  0.1557
10698TIP3    H153509   2.446   3.433   2.823  0.6238  0.4476 -0.4047
10698TIP3    H253510   2.562   3.342   2.790  0.3823 -0.0752  0.1834
10699TIP3   OH253511   3.164   6.506   3.549  0.4783  1.3372  0.2218
10699TIP3    H153512   3.136   6.544   3.632 -2.4028  0.5776 -0.3485
10699TIP3    H253513   3.163   6.412   3.565  0.9330  1.2324 -0.3769
10700TIP3   OH253514   3.312   1.882  13.822 -0.4408  0.3990  0.3256
10700TIP3    H153515   3.321   1.873  13.727  1.4869 -1.9348  0.7036
10700TIP3    H253516   3.220   1.904  13.834 -0.2850  2.8609 -2.2022
10701TIP3   OH253517   1.276   5.072   3.941 -0.1133  0.0433 -0.1517
10701TIP3    H153518   1.241   5.115   4.019  0.0379  2.1918 -1.2441
10701TIP3    H253519   1.217   4.998   3.926 -1.6513  1.1307  0.4975
10702TIP3   OH253520   5.991   2.627   5.486  0.1557 -0.5929 -0.2876
10702TIP3    H153521   5.896   2.640   5.488  0.4007  1.2303 -0.0821
10702TIP3    H253522   6.004   2.557   5.422 -1.3841 -1.4365  0.2845
10703TIP3   OH253523   1.255   1.831   2.846  0.1249  0.2872  0.0164
10703TIP3    H153524   1.299   1.782   2.777  0.3399 -0.2428  0.5183
10703TIP3    H253525   1.294   1.918   2.843 -1.0960  0.7960 -1.6571
10704TIP3   OH253526   4.333   6.415   1.018  0.1076  0.3981 -0.2693
10704TIP3    H153527   4.388   6.356   1.069 -0.2309 -0.1472 -0.5292
10704TIP3    H253528   4.307   6.363   0.942 -1.2713  0.4388  0.1653
10705TIP3   OH253529   3.513   3.703   1.672  0.1851  0.0384  0.4784
10705TIP3    H153530   3.533   3.681   1.763  0.4385  1.5492  0.8081
10705TIP3    H253531   3.436   3.760   1.678  1.5309  1.9750 -0.0590
10706TIP3   OH253532   3.280   4.599   1.763 -0.3038 -0.7908  0.0090
10706TIP3    H153533   3.207   4.537   1.766  0.3427 -1.5380  0.4336
10706TIP3    H253534   3.325   4.580   1.681  1.0715 -2.2558  1.0703
10707TIP3   OH253535   3.432   4.561  15.170 -0.2266 -0.1020  0.3898
10707TIP3    H153536   3.468   4.510  15.098  0.2578  1.1115 -0.2506
10707TIP3    H253537   3.470   4.522  15.249 -0.3780 -1.1216 -0.0364
10708TIP3   OH253538   4.808   2.939   1.009  0.1506  0.7196  0.5014
10708TIP3    H153539   4.719   2.917   0.981  0.5417  0.5783 -0.6335
10708TIP3    H253540   4.798   2.966   1.100 -1.0658  0.7470  0.3676
10709TIP3   OH253541   5.461   3.842   2.631  0.2163  0.2224 -0.0732
10709TIP3    H153542   5.379   3.890   2.635  0.3529  0.5963 -1.5627
10709TIP3    H253543   5.527   3.903   2.664 -0.2980 -0.6194  2.6871
10710TIP3   OH253544   1.241   1.616  11.703 -0.0688 -0.6897  0.2569
10710TIP3    H153545   1.189   1.658  11.634 -0.2681 -1.3128  0.0221
10710TIP3    H253546   1.332   1.626  11.674 -0.1036 -0.2636  0.2932
10711TIP3   OH253547   6.445   3.328  15.283  0.4099  0.2952  0.8910
10711TIP3    H153548   6.391   3.393  15.328  0.0804  0.5646  0.1209
10711TIP3    H253549   6.435   3.248  15.334 -0.1142  0.5465  1.1815
10712TIP3   OH253550   1.244   1.177  15.998  0.4259  0.3914  0.0774
10712TIP3    H153551   1.155   1.198  15.969  0.8185  3.2676  0.7743
10712TIP3    H253552   1.232   1.112  16.066 -0.9816 -0.8990 -1.3452
10713TIP3   OH253553   2.084   5.091   0.684  0.4434 -0.1853  0.1750
10713TIP3    H153554   2.083   5.135   0.769  1.1331  1.6227 -0.7385
10713TIP3    H253555   2.111   5.001   0.704  0.4957  0.1987  1.8815
10714TIP3   OH253556   5.094   0.924  16.774  0.0933  0.2558 -0.1816
10714TIP3    H153557   5.034   0.866  16.726 -0.2308  0.3980  0.0474
10714TIP3    H253558   5.065   1.012  16.751 -1.0157  0.3329  1.4357
10715TIP3   OH253559   0.397   4.958   5.050  0.1062  0.2739 -0.0175
10715TIP3    H153560   0.422   4.866   5.043  0.5029  0.3299  0.6409
10715TIP3    H253561   0.467   4.998   5.100 -0.1024  0.9245 -0.2426
10716TIP3   OH253562   1.262   5.486   3.946  0.2347 -0.0817  0.1913
10716TIP3    H153563   1.288   5.469   4.036  0.5730  0.9368  0.2810
10716TIP3    H253564   1.337   5.459   3.893 -0.1059 -1.0397  0.1746
10717TIP3   OH253565   0.660   6.127   0.533  0.2764 -0.5461 -0.2138
10717TIP3    H153566   0.600   6.202   0.533 -1.1602 -1.6716  0.5077
10717TIP3    H253567   0.617   6.062   0.587  1.4352 -1.9835 -0.9804
10718TIP3   OH253568   0.098   1.310  11.801 -0.1121  0.1972 -0.7809
10718TIP3    H153569   0.018   1.259  11.807 -1.8671  2.9936  0.8642
10718TIP3    H253570   0.129   1.297  11.712 -2.3192 -1.0470 -1.3964
10719TIP3   OH253571   5.163   1.469   0.948  0.3644 -0.0035 -0.0898
10719TIP3    H153572   5.085   1.495   0.998  0.3950 -0.6069  0.2749
10719TIP3    H253573   5.142   1.493   0.858 -0.5914 -0.9419 -0.1318
10720TIP3   OH253574   5.352   0.813   4.983 -0.1379 -0.3912 -0.0815
10720TIP3    H153575   5.300   0.809   5.063  2.1092 -0.8502  1.4039
10720TIP3    H253576   5.436   0.772   5.006  0.1021 -1.7235 -3.0355
10721TIP3   OH253577   6.712   0.671   0.269 -0.1184  0.1979  0.2913
10721TIP3    H153578   6.619   0.663   0.288 -0.2535 -1.4217 -0.9353
10721TIP3    H253579   6.755   0.613   0.332  0.0256  0.5608  0.5293
10722TIP3   OH253580   1.371   3.422   3.507 -0.5960 -0.1236 -0.0414
10722TIP3    H153581   1.315   3.429   3.429  0.2289  0.2213 -0.6127
10722TIP3    H253582   1.313   3.386   3.575 -1.1235 -1.1276 -1.0083
10723TIP3   OH253583   2.601   0.628   2.712  0.1633 -0.2055 -0.4638
10723TIP3    H153584   2.599   0.585   2.797  0.2573  0.6261 -0.0380
10723TIP3    H253585   2.552   0.709   2.725 -0.5061 -0.4562 -1.4089
10724TIP3   OH253586   4.219   0.478  13.575 -1.0377  0.3161 -0.3216
10724TIP3    H153587   4.141   0.454  13.624 -1.3385 -0.3380 -1.1001
10724TIP3    H253588   4.291   0.469  13.637 -1.4810  0.0466  0.1492
10725TIP3   OH253589   0.593   3.441   1.658  0.0053  0.0820 -0.7125
10725TIP3    H153590   0.679   3.401   1.641  0.3333 -0.6753  2.5385
10725TIP3    H253591   0.531   3.376   1.627  0.5929 -0.6616 -0.3620
10726TIP3   OH253592   3.855   5.799  16.638 -0.5489 -0.2158 -0.3275
10726TIP3    H153593   3.930   5.836  16.590 -0.3360  1.0189  0.9525
10726TIP3    H253594   3.779   5.829  16.589 -0.3064  0.4921 -0.2796
10727TIP3   OH253595   2.499   0.022  15.537 -0.2961 -0.2843  0.3274
10727TIP3    H153596   2.470   0.066  15.457 -0.1941 -0.7820  0.0134
10727TIP3    H253597   2.450   0.064  15.607  1.9497  2.3863  0.3859
10728TIP3   OH253598   5.354   5.510  14.583  0.2182  0.2791 -1.1110
10728TIP3    H153599   5.374   5.586  14.637  0.0271 -0.5774  0.2072
10728TIP3    H253600   5.326   5.546  14.499 -1.7121  1.7271  0.0969
10729TIP3   OH253601   1.427   2.737   5.436 -0.3907 -0.1169  0.1848
10729TIP3    H153602   1.352   2.678   5.440 -0.2570 -0.4716 -2.2153
10729TIP3    H253603   1.408   2.797   5.364  0.8849  0.8371  0.6158
10730TIP3   OH253604   6.473   6.040  15.660 -0.7292 -0.1050  0.2185
10730TIP3    H153605   6.552   6.094  15.657  1.2761 -2.9639 -1.1974
10730TIP3    H253606   6.479   5.994  15.744  0.0800 -1.6296 -0.6453
10731TIP3   OH253607   6.421   3.649  10.635 -0.3694 -0.0603 -0.1673
10731TIP3    H153608   6.346   3.633  10.578  0.4622  0.3709 -1.4050
10731TIP3    H253609   6.434   3.566  10.681 -1.3346 -0.2705 -0.2623
10732TIP3   OH253610   1.874   1.966  13.378  0.5583 -0.0714 -0.2038
10732TIP3    H153611   1.796   1.990  13.427  0.6349  1.5279 -0.8446
10732TIP3    H253612   1.847   1.971  13.286  1.5048  0.8808 -0.4440
10733TIP3   OH253613   4.842   4.392   2.818 -0.6466  0.8724  0.0319
10733TIP3    H153614   4.889   4.455   2.765  3.1074 -0.8478  1.1578
10733TIP3    H253615   4.786   4.345   2.756  0.8818  1.4007 -1.7790
10734TIP3   OH253616   1.294   5.264   0.115 -0.1375 -0.0790 -0.6863
10734TIP3    H153617   1.339   5.179   0.114 -0.8689 -0.4683 -1.0553
10734TIP3    H253618   1.364   5.328   0.128  0.1391 -0.9499  2.8729
10735TIP3   OH253619   5.226   3.988   3.584  0.3847 -0.3415  0.6307
10735TIP3    H153620   5.238   3.916   3.646 -2.7393 -0.0744  1.6698
10735TIP3    H253621   5.297   4.049   3.602  1.8676 -2.1941  1.1443
10736TIP3   OH253622   3.103   5.944   4.303  0.1930  0.3745  0.1211
10736TIP3    H153623   3.183   5.996   4.303 -0.1214  0.8657 -1.2692
10736TIP3    H253624   3.033   6.006   4.326  0.0280  0.2443 -0.0226
10737TIP3   OH253625   6.029   1.667  14.980 -0.1859  0.1304  0.3364
10737TIP3    H153626   6.035   1.718  14.899 -0.0560  0.1310  0.3461
10737TIP3    H253627   5.944   1.624  14.976 -0.2725  0.3048  0.3001
10738TIP3   OH253628   0.937   6.350  12.308 -0.3721  0.7086  0.6321
10738TIP3    H153629   0.955   6.299  12.387 -1.2074 -0.6868 -0.0415
10738TIP3    H253630   1.018   6.397  12.291  0.8547 -1.3020  0.6454
10739TIP3   OH253631   4.609   5.379  16.604 -0.1764 -0.3330  0.4728
10739TIP3    H153632   4.634   5.324  16.678 -1.6729 -1.7295 -0.0424
10739TIP3    H253633   4.528   5.422  16.633  0.9765  1.6201  0.8650
10740TIP3   OH253634   4.845   5.702  15.356 -0.5137  0.3039 -0.2700
10740TIP3    H153635   4.878   5.786  15.388 -2.5113  1.7988 -2.0144
10740TIP3    H253636   4.924   5.652  15.337  0.7104  1.7718  0.8070
10741TIP3   OH253637   2.812   5.019  16.636  0.3429 -0.0122 -0.0458
10741TIP3    H153638   2.763   4.985  16.711  0.6629  1.1822  0.7112
10741TIP3    H253639   2.784   4.964  16.563  0.9500 -1.9971  1.1742
10742TIP3   OH253640   6.139   4.463   6.001 -0.3135  0.1332 -0.3347
10742TIP3    H153641   6.106   4.374   5.996 -1.8672  0.6780 -0.1437
10742TIP3    H253642   6.107   4.505   5.921 -0.1554  0.6956 -0.1061
10743TIP3   OH253643   6.611   0.367  12.283 -0.1720 -0.0512 -0.0208
10743TIP3    H153644   6.647   0.359  12.372  0.2958  0.0761 -0.1944
10743TIP3    H253645   6.578   0.280  12.262 -1.5733  0.2554  0.8204
10744TIP3   OH253646   6.324   6.284  15.060 -0.2889 -0.0247 -0.3678
10744TIP3    H153647   6.257   6.347  15.035 -0.1790  0.1241 -0.2919
10744TIP3    H253648   6.343   6.235  14.980 -0.7542 -0.3175 -0.2989
10745TIP3   OH253649   0.754   4.629   0.216  0.5222  0.2186  0.0945
10745TIP3    H153650   0.761   4.540   0.249 -0.1319  0.2740  0.3938
10745TIP3    H253651   0.845   4.661   0.213  0.6302  0.0923  1.5407
10746TIP3   OH253652   6.738   5.575   5.434  0.5372 -0.5076 -0.6675
10746TIP3    H153653   6.726   5.516   5.509 -2.0687 -1.7743 -2.0413
10746TIP3    H253654   6.725   5.663   5.471 -0.1546 -1.0735  0.4695
10747TIP3   OH253655   5.112   6.042   2.855  0.1835  0.5259 -0.1155
10747TIP3    H153656   5.025   6.068   2.824  0.7387  0.7302 -1.5417
10747TIP3    H253657   5.146   5.985   2.786  0.5043 -0.9508  1.2278
10748TIP3   OH253658   4.757   0.027  12.913  0.2810  0.9719 -0.3042
10748TIP3    H153659   4.784  -0.007  12.827  0.1082 -2.0822  0.7944
10748TIP3    H253660   4.840   0.043  12.959  0.4066 -1.9817  0.6298
10749TIP3   OH253661   4.507   2.579   0.693  0.0662 -0.3144 -0.3163
10749TIP3    H153662   4.443   2.588   0.622 -3.7862 -0.8792  2.8890
10749TIP3    H253663   4.538   2.489   0.687  0.3417 -0.1369 -1.6938
10750TIP3   OH253664   5.026   2.136   3.606  0.3089 -0.4221 -0.5142
10750TIP3    H153665   5.104   2.164   3.654 -0.6204 -0.9346  1.3764
10750TIP3    H253666   4.967   2.212   3.610  0.2155 -0.4777 -0.8227
10751TIP3   OH253667   6.510   4.903  13.809 -0.0894 -0.5477 -0.8114
10751TIP3    H153668   6.456   4.959  13.754  0.0316  0.1110 -0.2651
10751TIP3    H253669   6.577   4.961  13.845  1.1119 -1.3884 -1.6394
10752TIP3   OH253670   1.980   2.471  15.257  0.8919  0.4709  0.4739
10752TIP3    H153671   1.927   2.550  15.249  1.0248  0.5040 -0.0721
10752TIP3    H253672   1.981   2.452  15.351  0.8410  1.0991  0.5996
10753TIP3   OH253673   6.507   5.064  10.639  0.1297  0.2964  0.0960
10753TIP3    H153674   6.565   5.021  10.703 -1.1824  0.5853  1.5082
10753TIP3    H253675   6.566   5.098  10.572  1.5093 -0.3254  0.9764
10754TIP3   OH253676   0.904   4.787  11.324 -0.3495  0.3839 -0.3416
10754TIP3    H153677   0.836   4.731  11.286  1.8032 -2.3291 -0.3266
10754TIP3    H253678   0.942   4.735  11.394  0.0889  2.8658  1.3498
10755TIP3   OH253679   0.651   2.837  12.197 -0.1200  0.7405  0.2650
10755TIP3    H153680   0.564   2.871  12.174  0.2313  1.0835 -0.5722
10755TIP3    H253681   0.670   2.771  12.130  0.4635  1.0032  0.1686
10756TIP3   OH253682   5.800   4.661  14.257 -0.4260  0.3361 -0.0401
10756TIP3    H153683   5.871   4.608  14.294 -0.5436 -0.6495 -1.1882
10756TIP3    H253684   5.750   4.600  14.203 -1.2352  1.3783 -0.4933
10757TIP3   OH253685   4.660   0.645   5.685  0.1710 -0.0380 -0.1973
10757TIP3    H153686   4.614   0.727   5.667 -1.6633 -0.7718  1.0143
10757TIP3    H253687   4.667   0.642   5.780  0.3830 -1.2022 -0.2431
10758TIP3   OH253688   3.380   1.794  16.598  0.0801  0.4605  0.5138
10758TIP3    H153689   3.314   1.849  16.556  0.3661  0.6731  0.3433
10758TIP3    H253690   3.330   1.736  16.656 -0.3179  0.1519 -0.1371
10759TIP3   OH253691   3.865   0.643  12.592 -0.6333  0.2073  0.1910
10759TIP3    H153692   3.841   0.636  12.684 -0.1696  0.9854  0.3793
10759TIP3    H253693   3.814   0.717  12.559 -0.7887 -0.0598 -0.1734
10760TIP3   OH253694   1.976   3.975  13.440 -0.3478 -0.2499 -0.1335
10760TIP3    H153695   1.922   4.053  13.444  1.6563  1.1731 -0.2640
10760TIP3    H253696   1.923   3.906  13.481 -2.2420  1.0879 -0.3039
10761TIP3   OH253697   3.764   5.294  13.397  0.0929 -0.3329 -0.6210
10761TIP3    H153698   3.782   5.300  13.491  0.1518 -1.3083 -0.5604
10761TIP3    H253699   3.850   5.281  13.357  0.1290  0.6315 -0.8664
10762TIP3   OH253700   2.690   4.117  12.180 -0.7300  0.4569  0.3078
10762TIP3    H153701   2.748   4.109  12.256 -0.8734 -2.3258  0.1641
10762TIP3    H253702   2.607   4.146  12.216 -0.4964  0.1716  1.0794
10763TIP3   OH253703   0.632   6.553   4.880 -0.4364  0.3161 -0.1180
10763TIP3    H153704   0.629   6.633   4.827 -0.9842  1.0819  1.0679
10763TIP3    H253705   0.546   6.550   4.923  0.2679  0.0761  1.2753
10764TIP3   OH253706   4.803   4.569  13.726 -0.6408 -0.0117  0.3038
10764TIP3    H153707   4.864   4.539  13.659  0.3447  2.1291  0.2072
10764TIP3    H253708   4.811   4.506  13.796 -0.9321 -1.7177 -1.1555
10765TIP3   OH253709   3.068   0.247   5.196 -0.0688  0.1931 -0.0739
10765TIP3    H153710   3.139   0.203   5.148  1.4267  1.1216  1.2263
10765TIP3    H253711   3.097   0.338   5.202 -1.8658  0.7939 -0.3910
10766TIP3   OH253712   2.517   1.383   2.827  0.1204 -0.4478  0.2071
10766TIP3    H153713   2.515   1.467   2.872 -1.1739  0.1565 -0.9266
10766TIP3    H253714   2.590   1.336   2.867 -1.1404 -0.0625  3.0888
10767TIP3   OH253715   6.160   6.159   3.183  0.4028 -0.3162 -0.5134
10767TIP3    H153716   6.097   6.105   3.231  1.0538 -0.2866  0.3965
10767TIP3    H253717   6.128   6.159   3.093 -1.3168  0.2974  0.0682
10768TIP3   OH253718   5.635   1.722   5.518  0.6826  0.7164  0.8413
10768TIP3    H153719   5.728   1.702   5.525  0.3814 -1.5883 -0.8238
10768TIP3    H253720   5.617   1.722   5.424 -0.8889  1.6524  1.1141
10769TIP3   OH253721   4.814   2.650  12.425 -0.0463  0.3304  0.8394
10769TIP3    H153722   4.867   2.573  12.445 -1.0342 -0.4631  0.4361
10769TIP3    H253723   4.837   2.672  12.334 -1.2549 -0.7102  0.2766
10770TIP3   OH253724   0.137   1.696   3.480  0.4132 -0.5404  0.5065
10770TIP3    H153725   0.167   1.622   3.532 -1.7420 -1.7808  0.0273
10770TIP3    H253726   0.194   1.697   3.404  0.3730 -1.7936  0.4496
10771TIP3   OH253727   2.277   5.621   0.266  0.2744 -0.2023 -0.2168
10771TIP3    H153728   2.361   5.582   0.242  0.7396 -0.4476  1.7240
10771TIP3    H253729   2.252   5.576   0.347 -1.8895 -0.3605 -0.9654
10772TIP3   OH253730   0.090   1.114   5.117  0.2104  0.6591 -0.0638
10772TIP3    H153731   0.034   1.072   5.052 -0.3575  0.7878  0.3417
10772TIP3    H253732   0.103   1.048   5.185  1.3867  0.2781 -0.6388
10773TIP3   OH253733   1.895   1.462   1.578 -0.1647 -0.2290  0.5182
10773TIP3    H153734   1.872   1.524   1.509  0.7706  0.8660  1.1746
10773TIP3    H253735   1.987   1.481   1.597  0.4351 -2.5177  0.0052
10774TIP3   OH253736   3.492   2.117  12.085 -0.4928 -0.0316  0.2394
10774TIP3    H153737   3.458   2.036  12.124 -1.3000 -0.7530 -1.9112
10774TIP3    H253738   3.473   2.184  12.151 -0.3967 -1.4711  1.7708
10775TIP3   OH253739   4.073   5.584   5.816  0.6232  0.0532 -0.0763
10775TIP3    H153740   4.146   5.549   5.867 -1.2221 -2.4038  0.9773
10775TIP3    H253741   4.024   5.638   5.878 -0.1871 -0.8662  0.1052
10776TIP3   OH253742   2.102   5.312  15.063  0.1916 -0.2025  0.7064
10776TIP3    H153743   2.189   5.315  15.022 -0.4165 -0.0322 -0.5858
10776TIP3    H253744   2.107   5.239  15.124  1.4172  0.1463  1.0462
10777TIP3   OH253745   6.005   0.805   5.302  0.0905 -0.1474  0.3894
10777TIP3    H153746   6.065   0.744   5.345  0.8772 -0.6117 -1.2933
10777TIP3    H253747   6.054   0.887   5.296  0.1225 -0.1893  0.0625
10778TIP3   OH253748   0.197   0.427  15.691  0.2183 -0.3345  0.2997
10778TIP3    H153749   0.231   0.441  15.603 -0.8075  2.9231  0.3591
10778TIP3    H253750   0.102   0.427  15.681  0.0790  0.7519  1.4789
10779TIP3   OH253751   5.030   0.827   0.574 -0.4234  0.3170 -0.2497
10779TIP3    H153752   4.998   0.754   0.520 -0.4146 -0.3769  0.6676
10779TIP3    H253753   5.104   0.862   0.525  0.0896 -0.8196 -0.3195
10780TIP3   OH253754   3.782   2.357  13.101  0.2496  0.3821  0.1139
10780TIP3    H153755   3.811   2.376  13.012  1.2279 -0.7452  0.1847
10780TIP3    H253756   3.691   2.329  13.091  1.2465 -2.7031 -0.9028
10781TIP3   OH253757   4.003   5.956  11.802  0.7486 -0.2779 -0.3117
10781TIP3    H153758   4.091   5.973  11.768  0.6724  0.6189 -0.0723
10781TIP3    H253759   3.957   6.039  11.794 -0.2066 -0.8412 -0.7870
10782TIP3   OH253760   3.961   3.862  14.118 -0.3256 -0.3711 -0.3259
10782TIP3    H153761   3.953   3.767  14.111 -1.0545 -0.3402 -0.0077
10782TIP3    H253762   3.967   3.892  14.027 -0.4280 -0.6960 -0.4399
10783TIP3   OH253763   4.269   5.833   4.921 -0.1471 -0.0971  0.0210
10783TIP3    H153764   4.232   5.919   4.901  0.3407 -0.0931 -0.8798
10783TIP3    H253765   4.212   5.771   4.875  0.9475 -0.0936 -1.3541
10784TIP3   OH253766   3.591   3.360  15.356  0.4458 -0.1710  0.5288
10784TIP3    H153767   3.625   3.337  15.443  0.6092  0.6843  0.6961
10784TIP3    H253768   3.496   3.354  15.365  0.4841 -0.7437  0.5761
10785TIP3   OH253769   2.028   6.660  16.978 -0.7299  0.9431 -0.6105
10785TIP3    H153770   2.053   6.673  17.070  2.4595 -0.2420 -1.2285
10785TIP3    H253771   1.934   6.642  16.981 -0.7054  1.0487  2.4075
10786TIP3   OH253772   3.724   5.576   1.063  0.1769  0.7079 -0.5402
10786TIP3    H153773   3.640   5.532   1.080 -0.1036  0.7659 -1.7795
10786TIP3    H253774   3.701   5.651   1.009  0.9012  1.3450  0.0205
10787TIP3   OH253775   2.140   2.387  13.326 -0.4886 -0.1454 -0.0925
10787TIP3    H153776   2.068   2.398  13.263 -0.7845  1.6548  0.5310
10787TIP3    H253777   2.217   2.367  13.272 -0.7489  1.3233 -1.0198
10788TIP3   OH253778   3.627   1.278   5.751 -0.2548 -0.0061 -0.0538
10788TIP3    H153779   3.665   1.272   5.838 -0.2367 -0.2689 -0.0799
10788TIP3    H253780   3.700   1.305   5.695  0.1764 -1.6365 -0.2990
10789TIP3   OH253781   2.787   4.141   2.118  0.0881 -0.3554 -0.5133
10789TIP3    H153782   2.741   4.080   2.061  0.3745  0.3033 -1.4654
10789TIP3    H253783   2.850   4.185   2.060 -0.0111  0.7261  0.1863
10790TIP3   OH253784   1.788   1.376  15.921 -0.1523 -0.0023  0.0215
10790TIP3    H153785   1.734   1.356  15.998  0.0777  0.0982  0.2093
10790TIP3    H253786   1.877   1.384  15.956  0.4470 -2.9877 -0.7049
10791TIP3   OH253787   4.536   3.954  11.827  0.4195 -0.2354 -0.6483
10791TIP3    H153788   4.536   3.963  11.732  1.5755 -0.7241 -0.7088
10791TIP3    H253789   4.625   3.980  11.853 -0.0705  0.4561  0.3532
10792TIP3   OH253790   4.030   1.713  14.589  0.9802 -0.3489  0.1919
10792TIP3    H153791   4.059   1.755  14.508 -1.5530 -1.7533 -1.5138
10792TIP3    H253792   3.961   1.772  14.623  2.0334  0.2374  1.3588
10793TIP3   OH253793   5.907   5.740  16.061  0.3985 -1.2990  0.1648
10793TIP3    H153794   5.823   5.721  16.104 -0.2601 -1.6460 -1.2549
10793TIP3    H253795   5.971   5.736  16.132 -0.9357  0.2135  1.5035
10794TIP3   OH253796   1.205   5.211   0.862 -0.4928 -0.0775  0.0463
10794TIP3    H153797   1.240   5.221   0.951  1.3758  0.7141 -0.7452
10794TIP3    H253798   1.124   5.261   0.862 -1.1524 -1.1009  1.6434
10795TIP3   OH253799   3.355   3.745   0.115  0.3689 -0.3781  0.1098
10795TIP3    H153800   3.406   3.788   0.184  0.8752  1.0868 -1.1700
10795TIP3    H253801   3.320   3.667   0.158  0.8525  0.3909  1.9722
10796TIP3   OH253802   5.776   2.206  11.188  0.1483 -0.2517 -0.4244
10796TIP3    H153803   5.758   2.192  11.095  0.2958 -1.3369 -0.2969
10796TIP3    H253804   5.756   2.298  11.203 -0.1602 -0.1467 -1.4669
10797TIP3   OH253805   2.323   1.706  14.106  0.2785 -0.3058 -0.0452
10797TIP3    H153806   2.326   1.656  14.024  0.5902  0.4751 -0.5193
10797TIP3    H253807   2.276   1.649  14.167  0.3221 -1.0308 -0.6746
10798TIP3   OH253808   5.029   5.043   0.470 -0.1582  0.3933 -0.5842
10798TIP3    H153809   4.971   5.070   0.399 -0.2320  1.3893 -0.1499
10798TIP3    H253810   4.972   5.000   0.534 -0.2116  0.2141 -0.7506
10799TIP3   OH253811   6.066   6.436   2.421  0.2725 -0.0132 -0.4668
10799TIP3    H153812   5.989   6.492   2.427  0.7428  0.5428  0.5459
10799TIP3    H253813   6.138   6.491   2.452  1.0266 -0.6227 -1.1174
10800TIP3   OH253814   0.990   4.715   2.516  0.1600  0.2734  0.5409
10800TIP3    H153815   0.930   4.790   2.519 -3.7648 -2.6798 -1.0628
10800TIP3    H253816   1.003   4.692   2.608 -1.0369  1.0441  0.9191
10801TIP3   OH253817   5.108   2.877   0.665 -0.6022  0.3328  0.4126
10801TIP3    H153818   5.078   2.905   0.751 -1.2141  2.1221 -0.3389
10801TIP3    H253819   5.074   2.788   0.655  0.2873 -0.2494  2.3819
10802TIP3   OH253820   4.201   2.152   3.653  0.5217 -0.0744 -0.1703
10802TIP3    H153821   4.250   2.156   3.735 -0.2818  0.4874  0.2881
10802TIP3    H253822   4.150   2.233   3.651 -1.1077 -1.0817 -0.1819
10803TIP3   OH253823   3.683   1.368   3.427 -0.4662 -0.1689  0.2719
10803TIP3    H153824   3.720   1.355   3.514  1.4927 -1.4797 -0.7037
10803TIP3    H253825   3.647   1.283   3.403  0.7938 -0.3754 -0.9764
10804TIP3   OH253826   1.635   6.764   2.191  0.2923 -0.6804  0.2334
10804TIP3    H153827   1.680   6.680   2.194  0.5899 -0.4950  0.8997
10804TIP3    H253828   1.544   6.741   2.172  0.4022 -1.1417  0.2592
10805TIP3   OH253829   3.397   1.955  15.994 -0.3567 -0.6599 -0.2115
10805TIP3    H153830   3.337   1.913  16.055 -1.1065  0.5134 -0.1222
10805TIP3    H253831   3.380   2.049  16.004  1.0791 -0.3420 -0.6103
10806TIP3   OH253832   2.728   5.740  13.922  0.2620 -0.4520  0.2941
10806TIP3    H153833   2.720   5.694  13.838  0.8810  0.6379 -0.3793
10806TIP3    H253834   2.742   5.832  13.898 -0.5702  0.0357  1.6070
10807TIP3   OH253835   2.305   3.667  16.481 -0.6334  0.8224  0.8660
10807TIP3    H153836   2.289   3.597  16.544 -1.0830  0.1310 -0.0038
10807TIP3    H253837   2.388   3.705  16.508 -0.4433  0.0319  1.4192
10808TIP3   OH253838   6.243   3.362  15.718  0.0250 -0.7789  0.5913
10808TIP3    H153839   6.188   3.420  15.771  0.8316 -0.1850  0.7849
10808TIP3    H253840   6.306   3.420  15.677  2.5628 -1.7939  2.9177
10809TIP3   OH253841   5.650   4.587   1.884 -0.2663 -0.1988  0.4349
10809TIP3    H153842   5.620   4.581   1.794 -0.3814 -0.4085  0.4876
10809TIP3    H253843   5.722   4.524   1.890 -0.9426 -0.9517  0.7663
10810TIP3   OH253844   0.169   1.273   6.728  0.0574  0.2889  0.1044
10810TIP3    H153845   0.210   1.334   6.667  0.6989  1.0335  1.2628
10810TIP3    H253846   0.116   1.328   6.785 -0.8710 -0.4498 -0.0416
10811TIP3   OH253847   5.128   2.955  12.098  0.4904 -0.0512 -0.4901
10811TIP3    H153848   5.219   2.972  12.074  0.5732  2.6229  1.4975
10811TIP3    H253849   5.133   2.923  12.188 -0.4094 -1.9689 -1.0932
10812TIP3   OH253850   3.024   3.581   0.664 -0.0294 -0.5150  0.9611
10812TIP3    H153851   3.065   3.527   0.597  0.6194  0.8068  0.2698
10812TIP3    H253852   3.096   3.632   0.701 -1.0366  2.0893 -0.5162
10813TIP3   OH253853   0.133   4.504  15.816 -0.0077  0.2067  0.1051
10813TIP3    H153854   0.063   4.566  15.797 -1.4582 -1.4718 -0.2459
10813TIP3    H253855   0.208   4.558  15.840 -1.6256  2.0457  1.1704
10814TIP3   OH253856   2.526   4.254  11.337  0.0485 -0.0460  0.0071
10814TIP3    H153857   2.593   4.309  11.378  0.9436 -1.4650  0.4661
10814TIP3    H253858   2.537   4.270  11.243  1.9616 -1.2836 -0.0147
10815TIP3   OH253859   4.982   5.002   5.048 -0.3526  0.4521 -0.5874
10815TIP3    H153860   5.018   5.086   5.019  0.4133  0.6634  0.9267
10815TIP3    H253861   4.975   5.011   5.143  0.1514 -1.3528 -0.3721
10816TIP3   OH253862   2.806   2.289   5.980  0.6006 -0.2562  0.9986
10816TIP3    H153863   2.732   2.230   5.965  0.6296  0.2040 -1.2013
10816TIP3    H253864   2.771   2.357   6.038 -0.1865 -0.9873  1.3995
10817TIP3   OH253865   5.831   0.877  12.214  0.1713 -0.4585  0.1347
10817TIP3    H153866   5.838   0.793  12.167  2.0882 -0.3730  0.2349
10817TIP3    H253867   5.904   0.875  12.276 -0.4007  0.8496  0.8520
10818TIP3   OH253868   5.433   5.405  15.009  0.2390  0.1532  0.0608
10818TIP3    H153869   5.473   5.428  15.093  0.7769  0.2751 -0.2250
10818TIP3    H253870   5.504   5.366  14.959  0.4327  1.8801 -1.0552
10819TIP3   OH253871   2.681   0.940   2.861  0.4290  0.3513  0.4321
10819TIP3    H153872   2.601   0.985   2.890 -0.6375 -1.1196 -0.1709
10819TIP3    H253873   2.746   0.962   2.928 -1.0675 -0.1817  2.1128
10820TIP3   OH253874   2.502   1.813   4.841 -0.1942  0.0070  0.2278
10820TIP3    H153875   2.410   1.835   4.856 -0.7614 -2.8266  1.3440
10820TIP3    H253876   2.502   1.769   4.756  0.7571  3.1696 -1.4970
10821TIP3   OH253877   2.969   3.558   4.568  0.3379  0.1838  0.0502
10821TIP3    H153878   2.907   3.592   4.632 -0.0669 -1.3833  0.5027
10821TIP3    H253879   2.993   3.472   4.601 -0.7754 -1.1681 -2.5029
10822TIP3   OH253880   6.663   4.601  13.163  0.7006 -0.2117  0.0215
10822TIP3    H153881   6.631   4.520  13.125  0.6137 -0.8253  1.3659
10822TIP3    H253882   6.753   4.582  13.191  1.0799  0.4971 -0.6828
10823TIP3   OH253883   0.901   1.262   2.554 -0.2500 -0.1615 -0.4849
10823TIP3    H153884   0.902   1.167   2.562  0.3054 -0.0779  0.4933
10823TIP3    H253885   0.809   1.286   2.565 -0.3243 -0.5489 -0.2410
10824TIP3   OH253886   5.500   3.534  13.695  0.6097  0.2490 -0.5802
10824TIP3    H153887   5.555   3.509  13.621 -0.9345  0.3077 -1.7850
10824TIP3    H253888   5.420   3.570  13.654 -0.3399  0.0944  1.1041
10825TIP3   OH253889   4.669   5.033  15.103  0.4145 -0.5663 -0.2367
10825TIP3    H153890   4.681   5.084  15.023  0.9854  0.9858  0.8132
10825TIP3    H253891   4.601   5.079  15.152  0.8791 -0.8488  0.6914
10826TIP3   OH253892   1.919   4.732  14.427  0.2596 -0.0768  0.8882
10826TIP3    H153893   1.953   4.643  14.434 -0.3537 -0.4552 -0.6763
10826TIP3    H253894   1.869   4.745  14.507  1.0558 -0.8389  1.5131
10827TIP3   OH253895   3.930   5.261  16.746  0.0071  1.1498  0.0645
10827TIP3    H153896   3.968   5.202  16.680 -0.3311  0.8486  0.1335
10827TIP3    H253897   3.875   5.203  16.799 -2.3875  1.9625 -1.4365
10828TIP3   OH253898   3.469   3.674  17.117 -0.5017 -0.3126  0.3869
10828TIP3    H153899   3.513   3.754  17.144 -2.7430  2.0956 -2.7904
10828TIP3    H253900   3.388   3.672  17.168  0.3552 -1.4724  1.7153
10829TIP3   OH253901   2.987   2.253   0.293  0.1222 -0.0391 -0.3849
10829TIP3    H153902   3.015   2.161   0.290  1.5160  0.3341  0.9238
10829TIP3    H253903   2.892   2.249   0.282  0.1814 -1.6236 -0.4875
10830TIP3   OH253904   5.937   2.200   1.928  0.5135  0.1475  0.4255
10830TIP3    H153905   6.004   2.163   1.870 -0.4381  0.4717 -0.9088
10830TIP3    H253906   5.973   2.284   1.955  1.1371 -0.1780  0.6246
10831TIP3   OH253907   3.036   1.225   0.186 -0.0073  0.0383  0.4150
10831TIP3    H153908   2.989   1.145   0.162  1.1253 -0.5865  0.2197
10831TIP3    H253909   3.049   1.217   0.281  1.6641 -0.8996  0.1406
10832TIP3   OH253910   5.757   2.977  13.377 -0.5622 -0.1329  0.0555
10832TIP3    H153911   5.754   3.073  13.373  0.4385 -0.1398 -1.5126
10832TIP3    H253912   5.689   2.949  13.316  0.5586 -0.3988 -1.0920
10833TIP3   OH253913   0.467   0.286  14.110  0.4578 -0.1814 -0.0148
10833TIP3    H153914   0.376   0.311  14.123  0.3206 -0.7238  0.0644
10833TIP3    H253915   0.463   0.209  14.053  0.9574  1.0718 -1.8067
10834TIP3   OH253916   6.644   4.694   4.866 -0.8854 -0.0088 -0.4639
10834TIP3    H153917   6.640   4.653   4.780  0.1838 -0.2307 -0.4214
10834TIP3    H253918   6.631   4.787   4.849 -0.4357 -0.0210 -0.9008
10835TIP3   OH253919   5.169   4.922  13.027  0.3471  0.4157  0.0039
10835TIP3    H153920   5.249   4.873  13.009 -1.1904 -1.9339 -0.5942
10835TIP3    H253921   5.192   4.979  13.101  2.9751  0.8580 -1.1113
10836TIP3   OH253922   5.667   5.005   4.634  0.2189  0.4426  0.1588
10836TIP3    H153923   5.591   5.061   4.649  0.0999  0.1695  0.5958
10836TIP3    H253924   5.741   5.054   4.672  0.2943  0.7892 -0.4259
10837TIP3   OH253925   4.501   4.637  13.315 -0.0451 -0.4765 -0.3794
10837TIP3    H153926   4.423   4.652  13.262  0.7236 -0.5020 -1.5387
10837TIP3    H253927   4.542   4.723  13.322 -0.8261 -0.2236  1.2890
10838TIP3   OH253928   4.699   0.511  16.031  0.3816 -0.4054  0.3154
10838TIP3    H153929   4.740   0.434  16.072 -0.1116 -0.0135  1.5518
10838TIP3    H253930   4.641   0.546  16.098 -2.0366 -0.9552 -1.4058
10839TIP3   OH253931   5.547   4.365  14.318 -0.0730 -0.3375 -0.1269
10839TIP3    H153932   5.590   4.302  14.376 -0.3488  0.3073  0.7968
10839TIP3    H253933   5.613   4.385  14.252  0.8534  0.1830  0.9262
10840TIP3   OH253934   5.342   2.090  17.209 -1.3743  0.0846 -0.3883
10840TIP3    H153935   5.301   2.082  17.295  1.5412  2.6987  1.3541
10840TIP3    H253936   5.353   2.184  17.196  1.7216 -0.4047 -1.8538
10841TIP3   OH253937   3.476   5.162   5.303 -0.1588  0.2583  0.1867
10841TIP3    H153938   3.489   5.132   5.393 -0.5630 -0.7159 -0.0706
10841TIP3    H253939   3.396   5.215   5.307 -0.1688  0.2262  0.3967
10842TIP3   OH253940   2.165   0.683  11.028  0.4787  0.2566  0.1841
10842TIP3    H153941   2.227   0.645  10.964 -0.4889 -0.2236 -0.4784
10842TIP3    H253942   2.160   0.775  11.004  0.1405  0.0841 -0.4188
10843TIP3   OH253943   1.588   3.352  11.980  0.0289 -0.1238 -0.0328
10843TIP3    H153944   1.564   3.437  12.017 -0.0252 -0.6272  1.1091
10843TIP3    H253945   1.610   3.298  12.056 -0.5696 -1.3280 -0.6929
10844TIP3   OH253946   0.890   5.724  11.873 -0.3449 -0.0020 -0.0162
10844TIP3    H153947   0.963   5.678  11.832 -0.2261 -0.8920  1.2022
10844TIP3    H253948   0.897   5.813  11.839  1.3581 -0.0502  0.1679
10845TIP3   OH253949   1.946   2.923  10.763  0.1481 -0.0353 -0.1605
10845TIP3    H153950   1.922   2.926  10.670  0.4531  1.2872 -0.2012
10845TIP3    H253951   2.020   2.861  10.766  1.9704  2.0147 -1.2376
10846TIP3   OH253952   6.167   1.510   4.630 -0.2989 -0.1357 -0.0907
10846TIP3    H153953   6.213   1.427   4.616  0.8372  0.7985 -2.2204
10846TIP3    H253954   6.229   1.563   4.679 -0.8436 -0.3518  0.8540
10847TIP3   OH253955   1.608   1.684   2.888  0.0828 -0.0685 -0.3980
10847TIP3    H153956   1.645   1.760   2.843  0.5831 -0.4283 -0.6055
10847TIP3    H253957   1.683   1.642   2.929 -0.3002 -0.0332  0.3523
10848TIP3   OH253958   6.744   0.749  14.661 -0.2171 -0.1170 -0.1486
10848TIP3    H153959   6.756   0.656  14.639  4.0332 -0.2556  2.1721
10848TIP3    H253960   6.833   0.784  14.663 -1.5177  3.2382  2.2154
10849TIP3   OH253961   6.536   3.568  12.004  0.7614 -0.3583 -0.3087
10849TIP3    H153962   6.456   3.520  11.985 -0.0845  1.0474 -0.3044
10849TIP3    H253963   6.584   3.569  11.920  1.3002 -2.1146 -0.0557
10850TIP3   OH253964   5.584   5.229  15.781 -0.0268 -0.0913 -0.0030
10850TIP3    H153965   5.646   5.190  15.719  0.8285  1.7032 -0.2979
10850TIP3    H253966   5.551   5.307  15.737  2.0469  2.2873  2.5034
10851TIP3   OH253967   4.262   3.964   0.354 -0.1886 -0.1974 -0.3723
10851TIP3    H153968   4.221   3.941   0.271 -1.2071  0.1278  0.0397
10851TIP3    H253969   4.192   3.958   0.418  0.6821 -0.8346  0.5325
10852TIP3   OH253970   3.827   1.980  11.906  0.2032 -0.5172 -0.2202
10852TIP3    H153971   3.806   1.889  11.884 -1.0784 -0.2640 -0.0593
10852TIP3    H253972   3.868   2.015  11.827  0.8170 -1.2701 -0.2376
10853TIP3   OH253973   1.637   4.076   4.082  0.4520  0.1276 -0.0053
10853TIP3    H153974   1.586   4.030   4.149  0.2503  0.3542  0.0013
10853TIP3    H253975   1.573   4.097   4.013  0.2574  1.5309  0.5745
10854TIP3   OH253976   5.393   2.768   3.765 -0.2900 -0.4037 -0.1283
10854TIP3    H153977   5.368   2.827   3.694 -1.2138  1.3373  1.6130
10854TIP3    H253978   5.488   2.759   3.756 -0.0904  1.5672 -0.2765
10855TIP3   OH253979   3.094   0.023  16.173 -0.0230 -0.1681  0.8315
10855TIP3    H153980   3.109   0.028  16.267  2.1501 -0.9965  0.5739
10855TIP3    H253981   3.167   0.071  16.135  0.5903 -2.0510 -0.4799
10856TIP3   OH253982   0.396   1.867   5.624 -0.0682 -0.5416  0.0778
10856TIP3    H153983   0.373   1.922   5.699  2.0273 -1.7312  1.6617
10856TIP3    H253984   0.314   1.855   5.577 -2.1017 -2.0207  3.7414
10857TIP3   OH253985   3.067   1.735   0.015  0.3902  0.0504  0.0066
10857TIP3    H153986   3.087   1.662   0.074  2.1555  0.4190 -0.1152
10857TIP3    H253987   3.025   1.693  -0.060 -0.7413 -0.5658  0.9629
10858TIP3   OH253988   0.811   6.563  15.488  0.0481  0.1682  0.4213
10858TIP3    H153989   0.740   6.601  15.435  0.7290  0.2952 -0.4129
10858TIP3    H253990   0.860   6.508  15.427  0.4794 -0.1811  1.0731
10859TIP3   OH253991   1.989   1.653  16.030  0.4993  0.3330 -0.1922
10859TIP3    H153992   2.013   1.731  16.079  1.1977  0.0340 -0.0480
10859TIP3    H253993   1.996   1.679  15.938  1.1554  0.3161 -0.1490
10860TIP3   OH253994   2.184   0.090   3.613  0.6172  0.3442  0.7422
10860TIP3    H153995   2.272   0.120   3.636  0.4600 -0.0693  1.9043
10860TIP3    H253996   2.133   0.171   3.606  1.2760  0.6413 -0.7650
10861TIP3   OH253997   1.748   2.248   5.479 -0.1553 -0.0918 -0.2239
10861TIP3    H153998   1.738   2.155   5.461 -2.2075 -0.0752  0.7277
10861TIP3    H253999   1.827   2.255   5.533 -0.2470 -1.3139  0.0634
10862TIP3   OH254000   6.154   4.528   5.064 -0.4685 -0.4079 -0.1981
10862TIP3    H154001   6.073   4.489   5.031  0.6763 -1.0458 -2.3428
10862TIP3    H254002   6.220   4.461   5.049  0.9230  1.0794 -0.8024
10863TIP3   OH254003   1.412   0.196   3.231  0.1052 -0.5251  0.0496
10863TIP3    H154004   1.319   0.216   3.225  0.1243 -0.3512  0.3552
10863TIP3    H254005   1.416   0.102   3.247 -0.0224 -0.5008  0.2235
10864TIP3   OH254006   6.122   1.382   1.784  0.1861  0.5749 -0.1071
10864TIP3    H154007   6.161   1.464   1.754  1.1860  0.4786  0.8653
10864TIP3    H254008   6.191   1.342   1.837 -0.9481 -0.0083  0.9465
10865TIP3   OH254009   0.816   4.451   1.103 -0.6975 -0.5848 -0.1432
10865TIP3    H154010   0.792   4.378   1.160  0.7036  0.9137  2.4325
10865TIP3    H254011   0.909   4.438   1.085 -0.6607  0.0474 -0.4347
10866TIP3   OH254012   0.012   2.528  14.732  0.0956  0.0292 -0.0795
10866TIP3    H154013  -0.063   2.481  14.696  0.1308 -0.4705  0.4811
10866TIP3    H254014   0.087   2.497  14.682  0.0923 -0.3757  0.1637
10867TIP3   OH254015   5.529   6.035  12.830 -0.3207  0.1831 -0.4227
10867TIP3    H154016   5.465   5.971  12.800  0.2579 -0.7354  0.2669
10867TIP3    H254017   5.477   6.101  12.875 -0.7480 -0.9216  0.7534
10868TIP3   OH254018   5.474   1.066   2.452 -0.4415  0.2555 -0.1773
10868TIP3    H154019   5.549   1.024   2.411 -0.2873 -1.0679  1.4150
10868TIP3    H254020   5.512   1.123   2.520 -0.8485 -0.1850  0.4279
10869TIP3   OH254021   6.093   3.115   2.116 -0.1171  0.0685 -0.4113
10869TIP3    H154022   6.068   3.205   2.135  1.0322  0.6420 -1.5554
10869TIP3    H254023   6.144   3.120   2.035  0.9540 -1.4629  0.1408
10870TIP3   OH254024   3.202   4.255   1.180  0.1166 -0.1124  0.0447
10870TIP3    H154025   3.262   4.321   1.146  0.6516 -0.5298  0.1805
10870TIP3    H254026   3.178   4.288   1.267  1.4234 -0.7522  0.6614
10871TIP3   OH254027   0.913   0.767  17.004  0.2034 -0.0512 -0.1400
10871TIP3    H154028   0.971   0.843  16.999  0.8889 -0.6018 -0.7872
10871TIP3    H254029   0.953   0.711  17.070 -1.3629  1.0146  1.7521
10872TIP3   OH254030   5.375   1.192   4.320 -0.5256 -0.6547 -0.1954
10872TIP3    H154031   5.290   1.158   4.348 -0.2063 -1.1335  0.2047
10872TIP3    H254032   5.365   1.287   4.323  0.0298 -0.6472  3.2252
10873TIP3   OH254033   1.389   4.655   0.428  0.1077 -0.1403  0.3102
10873TIP3    H154034   1.352   4.666   0.340 -0.1546 -0.8247  0.3344
10873TIP3    H254035   1.440   4.574   0.422  0.5512  0.1151  0.6327
10874TIP3   OH254036   3.342   1.890  11.320  0.1752 -0.0637 -0.3123
10874TIP3    H154037   3.294   1.815  11.284 -1.4950 -0.3277  2.2806
10874TIP3    H254038   3.434   1.872  11.301 -0.1825 -2.9262  0.4925
10875TIP3   OH254039   4.936   1.473   3.355 -0.0871  0.2847  0.0390
10875TIP3    H154040   4.897   1.526   3.425  1.8507 -0.6518  1.8927
10875TIP3    H254041   4.881   1.395   3.350 -0.3026  0.4103  0.4402
10876TIP3   OH254042   2.456   1.619  14.651 -0.3132 -0.1916  0.1497
10876TIP3    H154043   2.381   1.662  14.611 -1.8831 -2.3530  0.6447
10876TIP3    H254044   2.475   1.670  14.729  0.8723  2.3043 -1.7264
10877TIP3   OH254045   4.704   6.722  10.714  0.0305  0.0215 -0.0353
10877TIP3    H154046   4.699   6.817  10.715  0.4375  0.0422  1.4810
10877TIP3    H254047   4.751   6.700  10.794  0.5109 -1.4257 -0.6982
10878TIP3   OH254048   0.829   5.114   4.111  0.8155 -0.2223  0.0021
10878TIP3    H154049   0.892   5.048   4.083  1.3520 -0.5764  1.9220
10878TIP3    H254050   0.807   5.162   4.032  3.4919 -0.1120 -0.7125
10879TIP3   OH254051   5.810   0.758  13.609 -0.1789  0.2605 -0.0815
10879TIP3    H154052   5.766   0.784  13.690  0.1657 -0.6381  0.3902
10879TIP3    H254053   5.739   0.748  13.546 -0.4582  0.8447  0.1310
10880TIP3   OH254054   3.623   0.801   2.924  0.7947 -0.3323 -0.2482
10880TIP3    H154055   3.658   0.743   2.992  0.6732 -0.6722 -0.4731
10880TIP3    H254056   3.700   0.837   2.881  0.8766 -0.9133 -0.6014
10881TIP3   OH254057   1.931   2.278   3.738 -0.8536  0.3386 -0.9405
10881TIP3    H154058   1.975   2.220   3.676  2.1728  0.0086  1.4124
10881TIP3    H254059   1.982   2.359   3.735  0.9148 -0.5170  2.8444
10882TIP3   OH254060   5.848   2.570  16.762  0.3883 -0.5036  0.0792
10882TIP3    H154061   5.869   2.663  16.761  1.9820 -0.8498 -0.3544
10882TIP3    H254062   5.807   2.554  16.677  0.0576 -0.1971  0.1795
10883TIP3   OH254063   1.943   3.470  16.733  0.4180 -0.0154 -0.0543
10883TIP3    H154064   2.027   3.461  16.689  0.4753  2.3996 -0.5379
10883TIP3    H254065   1.962   3.455  16.825  1.5462  1.2094 -0.0701
10884TIP3   OH254066   3.630   1.050   2.628  0.1631 -0.2582  0.7197
10884TIP3    H154067   3.559   0.990   2.608  1.1577 -1.9275  2.0633
10884TIP3    H254068   3.624   1.064   2.722  1.3162 -0.0341  0.7652
10885TIP3   OH254069   6.543   2.249   3.058  0.1509  0.7999  0.2378
10885TIP3    H154070   6.549   2.165   3.103  0.0492  0.8999  0.4367
10885TIP3    H254071   6.500   2.228   2.975  1.9576  0.3132 -0.5981
10886TIP3   OH254072   5.324   0.770   0.526 -0.0357  0.4405  0.2800
10886TIP3    H154073   5.370   0.693   0.492 -1.6021  0.3684 -1.7830
10886TIP3    H254074   5.287   0.740   0.609 -0.0539 -0.8465 -0.1760
10887TIP3   OH254075   1.830   1.082  11.969 -0.0742 -0.1953 -0.3512
10887TIP3    H154076   1.824   0.999  12.016 -0.2656 -0.5475 -1.0096
10887TIP3    H254077   1.766   1.138  12.013 -0.5456 -0.6514 -0.4563
10888TIP3   OH254078   4.034   0.687  11.021  0.6209 -0.3849 -0.1387
10888TIP3    H154079   4.047   0.736  11.102 -0.4349 -0.0163 -0.1891
10888TIP3    H254080   3.943   0.703  10.998  0.6397 -1.3160 -0.8599
10889TIP3   OH254081   5.826   6.014   2.980  0.2946 -0.3044 -0.0716
10889TIP3    H154082   5.915   6.003   3.014 -0.5449 -0.0290  2.2721
10889TIP3    H254083   5.779   5.936   3.010 -0.5126  0.0448 -0.4219
10890TIP3   OH254084   5.282   4.884   0.524 -0.3275  0.3108  0.2639
10890TIP3    H154085   5.228   4.846   0.455 -1.3171 -0.1613  1.2796
10890TIP3    H254086   5.293   4.975   0.498 -1.7618  0.4561  0.1168
10891TIP3   OH254087   3.619   5.765   4.551  0.2758  0.0949  0.1435
10891TIP3    H154088   3.573   5.823   4.612  0.1484 -0.5659  0.6942
10891TIP3    H254089   3.711   5.786   4.562  0.3460 -0.8067  1.4214
10892TIP3   OH254090   5.592   6.596  12.797  0.4489 -0.0016 -0.3290
10892TIP3    H154091   5.684   6.584  12.817  1.0078 -1.1671 -3.3781
10892TIP3    H254092   5.583   6.691  12.782  1.2072  0.0865 -0.2425
10893TIP3   OH254093   6.493   0.366   0.188 -0.2027  0.1489  0.2224
10893TIP3    H154094   6.401   0.362   0.162 -0.3582  0.4518  0.7159
10893TIP3    H254095   6.531   0.433   0.131 -1.1595  2.7845  2.5674
10894TIP3   OH254096   5.491   5.324   3.232 -0.0943  0.0637  0.5732
10894TIP3    H154097   5.451   5.278   3.158 -1.7953  2.7859 -0.3008
10894TIP3    H254098   5.421   5.328   3.298  0.5165  0.1041  1.2239
10895TIP3   OH254099   0.134   2.848  13.584  0.6735  0.1527  0.4199
10895TIP3    H154100   0.153   2.941  13.571  0.1148 -0.1096 -2.4655
10895TIP3    H254101   0.039   2.844  13.596  0.4481 -0.1988 -1.3051
10896TIP3   OH254102   0.716   1.352   4.585 -0.1858 -0.0503 -0.6539
10896TIP3    H154103   0.635   1.402   4.571 -0.1965 -0.2212 -1.2164
10896TIP3    H254104   0.786   1.414   4.562 -0.0602  0.7353  1.6621
10897TIP3   OH254105   6.265   1.510   0.493 -0.0502 -0.7348  0.2285
10897TIP3    H154106   6.173   1.484   0.493 -0.0706 -0.6658  0.0014
10897TIP3    H254107   6.284   1.533   0.584 -0.6179  0.5605  0.0259
10898TIP3   OH254108   5.667   2.033   0.634 -0.4201 -0.4715  0.4219
10898TIP3    H154109   5.701   1.957   0.680 -4.1626 -1.4704  1.7356
10898TIP3    H254110   5.659   2.100   0.702 -1.4057 -0.3926  0.2320
10899TIP3   OH254111   2.255   5.308  16.860  0.3257  0.3253  0.0106
10899TIP3    H154112   2.225   5.218  16.850 -0.9860  0.5867  1.4466
10899TIP3    H254113   2.290   5.311  16.949  0.5689  1.1810 -0.1122
10900TIP3   OH254114   5.499   6.744   5.488 -0.3057  0.1014 -0.0052
10900TIP3    H154115   5.522   6.664   5.537  1.7423  1.4374  1.2863
10900TIP3    H254116   5.404   6.749   5.496 -0.3675 -1.6605  0.7920
10901TIP3   OH254117   0.300   2.926  13.973 -0.3586  0.3649  0.1190
10901TIP3    H154118   0.357   2.956  14.043 -0.3163 -0.5427  0.4714
10901TIP3    H254119   0.336   2.966  13.894  1.0319 -0.5733  0.2746
10902TIP3   OH254120   6.563   2.237   5.516  0.6794  0.4877  0.3907
10902TIP3    H154121   6.477   2.221   5.555  0.8597  0.5884  0.8391
10902TIP3    H254122   6.565   2.331   5.500  0.3156  0.3317 -0.5614
10903TIP3   OH254123   0.288   0.075  13.253 -0.1444 -0.2535 -0.4349
10903TIP3    H154124   0.242   0.088  13.171 -0.8056 -0.7033 -0.1378
10903TIP3    H254125   0.222   0.039  13.312 -0.4683  2.7291  1.1407
10904TIP3   OH254126   1.420   4.295  12.400 -0.0885 -0.2141 -0.1489
10904TIP3    H154127   1.380   4.303  12.486  0.1643 -2.7021  0.2470
10904TIP3    H254128   1.511   4.271  12.418 -0.0930 -0.9954 -1.0783
10905TIP3   OH254129   5.470   2.320   5.345 -0.3414  1.2078 -0.0071
10905TIP3    H154130   5.397   2.371   5.308 -1.2034 -0.1802 -0.2609
10905TIP3    H254131   5.449   2.313   5.438 -0.0079  1.6396  0.1068
10906TIP3   OH254132   3.909   0.401  14.410 -0.4175  0.0585  0.3828
10906TIP3    H154133   3.969   0.359  14.472 -0.4464 -0.4944  0.0393
10906TIP3    H254134   3.879   0.330  14.353 -0.6610  0.4996 -0.0474
10907TIP3   OH254135   2.683   0.477  12.236  0.2031  0.0477 -0.1141
10907TIP3    H154136   2.612   0.415  12.253 -0.5337  1.0220  0.4553
10907TIP3    H254137   2.763   0.425  12.241 -0.5362 -1.3105 -1.9767
10908TIP3   OH254138   4.875   5.787  14.843 -0.4058  0.0302  0.2128
10908TIP3    H154139   4.787   5.752  14.830 -0.1993 -0.2497 -0.4551
10908TIP3    H254140   4.933   5.712  14.829  0.0582  0.6603 -1.4091
10909TIP3   OH254141   5.702   4.453   6.226  0.2711 -0.2126  0.3518
10909TIP3    H154142   5.733   4.522   6.285 -0.2634  0.8154 -0.5447
10909TIP3    H254143   5.609   4.471   6.215 -0.1590 -1.8947  1.1862
10910TIP3   OH254144   3.235   3.479   6.093  0.3346 -0.6177  0.0337
10910TIP3    H154145   3.207   3.454   6.181 -0.9993  1.1731  0.1428
10910TIP3    H254146   3.309   3.421   6.074  0.3862 -1.2947  2.1660
10911TIP3   OH254147   1.445   0.509   2.659  0.0046  0.5784  0.2709
10911TIP3    H154148   1.378   0.463   2.709  0.2353 -0.4857 -0.3800
10911TIP3    H254149   1.398   0.577   2.611 -0.2532  1.4401  1.7125
10912TIP3   OH254150   5.689   4.179   6.114  0.3470  0.2068  0.4874
10912TIP3    H154151   5.722   4.254   6.065  2.7293 -0.7701  0.5516
10912TIP3    H254152   5.765   4.144   6.160 -0.6625 -2.4262  0.2524
10913TIP3   OH254153   3.702   1.531   1.089  0.1744  0.3218 -0.1815
10913TIP3    H154154   3.720   1.558   0.999 -1.2529 -0.0271 -0.5800
10913TIP3    H254155   3.617   1.570   1.109 -0.9565 -2.1742 -0.0567
10914TIP3   OH254156   5.261   6.778   4.466 -0.1793 -0.8006 -0.4672
10914TIP3    H154157   5.228   6.756   4.379 -0.0302 -0.8124 -0.5226
10914TIP3    H254158   5.356   6.781   4.454 -0.2976  1.9939 -0.9745
10915TIP3   OH254159   1.393   1.914  10.745 -0.2196 -0.2111  0.3798
10915TIP3    H154160   1.407   1.997  10.700 -0.6119 -0.7608 -0.7722
10915TIP3    H254161   1.301   1.917  10.773 -0.8986 -1.1591 -1.6096
10916TIP3   OH254162   6.511   5.522  13.169  0.8583 -0.4184 -0.8214
10916TIP3    H154163   6.562   5.454  13.213  1.6745  0.8522  0.2663
10916TIP3    H254164   6.577   5.580  13.131  0.1887  0.2587 -0.9619
10917TIP3   OH254165   0.946   0.394  14.302 -0.1223  0.0183 -0.1200
10917TIP3    H154166   0.971   0.349  14.382 -1.4973 -1.5122 -0.5407
10917TIP3    H254167   0.866   0.351  14.273 -0.4111  1.4645 -1.5784
10918TIP3   OH254168   1.466   2.729   0.612 -0.6145 -0.3766 -0.4579
10918TIP3    H154169   1.393   2.761   0.559 -1.4495 -2.1809 -0.4445
10918TIP3    H254170   1.438   2.642   0.641  2.0121 -1.5685 -1.3526
10919TIP3   OH254171   2.900   4.352   2.589 -0.5297  0.3677  0.3168
10919TIP3    H154172   2.826   4.377   2.533 -0.9573  0.2502  0.8318
10919TIP3    H254173   2.977   4.379   2.539 -0.9054  0.1535 -0.3898
10920TIP3   OH254174   1.696   3.505   1.179  0.1875  0.0929  0.2088
10920TIP3    H154175   1.727   3.595   1.183  1.4627 -0.3118 -0.2260
10920TIP3    H254176   1.768   3.453   1.216 -0.5260 -0.7523  0.4417
10921TIP3   OH254177   3.312   6.167   4.071 -0.1779 -0.0634  0.7358
10921TIP3    H154178   3.392   6.182   4.121  0.5870 -0.2292 -0.4090
10921TIP3    H254179   3.295   6.250   4.028 -1.3412  0.3482  1.9767
10922TIP3   OH254180   2.730   3.647   2.330  0.2872  0.3622  0.1935
10922TIP3    H154181   2.782   3.613   2.404  1.1718  0.9415 -0.1619
10922TIP3    H254182   2.768   3.606   2.253 -0.1798  0.3161 -0.0143
10923TIP3   OH254183   4.936   1.953   5.630  0.0270  0.2832 -0.5462
10923TIP3    H154184   4.848   1.928   5.660  0.2097 -1.6084 -1.5316
10923TIP3    H254185   4.964   2.020   5.693 -2.8735  2.3344 -1.3105
10924TIP3   OH254186   6.493   0.593  11.701 -0.1757 -0.6463 -0.1455
10924TIP3    H154187   6.552   0.658  11.741  0.3614 -0.0190 -1.8863
10924TIP3    H254188   6.526   0.509  11.731  2.4269 -0.3739 -2.0522
10925TIP3   OH254189   2.778   1.449  11.479  0.1955  0.4070  0.1706
10925TIP3    H154190   2.825   1.397  11.544 -0.4357 -0.4312 -0.0317
10925TIP3    H254191   2.721   1.386  11.435 -1.7386  1.5557  0.9808
10926TIP3   OH254192   0.171   5.936  13.718 -0.3886  0.1024 -0.6666
10926TIP3    H154193   0.217   5.932  13.634  0.2384 -1.8223 -0.2787
10926TIP3    H254194   0.240   5.923  13.783 -0.8445  1.7510  0.1743
10927TIP3   OH254195   2.957   0.939   2.430  0.7662  0.4219 -0.1551
10927TIP3    H154196   2.906   0.895   2.497  1.1561 -0.4950 -0.4585
10927TIP3    H254197   2.991   1.017   2.473 -0.4442  0.7642  0.2050
10928TIP3   OH254198   3.883   3.866   5.365  0.4333 -0.5874  0.4421
10928TIP3    H154199   3.822   3.941   5.360  0.5705 -0.3747  1.6463
10928TIP3    H254200   3.935   3.884   5.444  0.9745 -1.5832  0.3109
10929TIP3   OH254201   3.324   3.014  16.356 -0.5970 -0.0689  0.4107
10929TIP3    H154202   3.262   2.977  16.294 -0.0206 -0.4304  0.0450
10929TIP3    H254203   3.314   3.109  16.346  0.9221 -0.0840 -1.7193
10930TIP3   OH254204   6.023   4.214  17.124 -0.2066 -0.5262 -0.1210
10930TIP3    H154205   5.992   4.156  17.194 -1.3094 -1.1395 -1.1122
10930TIP3    H254206   6.108   4.245  17.156 -0.7649 -0.6623  1.5702
10931TIP3   OH254207   1.562   1.244   5.617  0.5358 -0.0751  0.1505
10931TIP3    H154208   1.625   1.303   5.659  0.4038 -0.3630  0.7556
10931TIP3    H254209   1.595   1.156   5.635  0.5065 -0.2036 -0.3978
10932TIP3   OH254210   5.934   4.955  16.847  0.1951  0.1237  0.3823
10932TIP3    H154211   5.971   4.932  16.932  0.0591 -1.5435  0.0192
10932TIP3    H254212   5.853   5.001  16.867 -0.7615 -1.8489  1.1808
10933TIP3   OH254213   6.085   3.837  12.732 -0.5427 -0.1745 -0.1912
10933TIP3    H154214   6.032   3.900  12.782 -0.6856 -0.5549  0.1348
10933TIP3    H254215   6.141   3.795  12.797  0.9585  1.0126 -0.6946
10934TIP3   OH254216   5.654   1.326  12.647 -0.3137 -0.1448  0.1463
10934TIP3    H154217   5.658   1.325  12.552  1.4940 -0.0465  0.1924
10934TIP3    H254218   5.692   1.410  12.672  0.9596 -0.9451  0.9815
10935TIP3   OH254219   4.408   0.934  12.899 -0.0004  1.0051  0.0726
10935TIP3    H154220   4.487   0.962  12.853  1.0294 -0.3952  0.9618
10935TIP3    H254221   4.338   0.986  12.859  1.0407  0.6699 -2.2667
10936TIP3   OH254222   2.242   0.607  14.235  0.7094  0.5273  0.2760
10936TIP3    H154223   2.237   0.600  14.140 -0.7030 -2.3022  0.5042
10936TIP3    H254224   2.327   0.570  14.258  0.9183  0.9187  0.1206
10937TIP3   OH254225   5.144   6.088   1.426 -0.0805 -0.0569 -0.5827
10937TIP3    H154226   5.085   6.031   1.376  0.7777  0.0726 -1.7815
10937TIP3    H254227   5.155   6.165   1.371 -0.9910  1.1599  0.9033
10938TIP3   OH254228   0.967   0.771  12.558 -1.0663 -0.1663  0.5609
10938TIP3    H154229   1.034   0.815  12.610 -2.0602  1.9211  0.1246
10938TIP3    H254230   1.015   0.709  12.504  0.5279  1.3846  0.1757
10939TIP3   OH254231   6.123   0.555  16.962 -0.1521 -0.5666 -0.4791
10939TIP3    H154232   6.037   0.529  16.996  0.3388 -0.1166  1.1379
10939TIP3    H254233   6.186   0.510  17.018  0.6828  1.5413  0.3214
10940TIP3   OH254234   6.565   6.351   5.563 -0.4383  0.4456 -0.4763
10940TIP3    H154235   6.543   6.284   5.627 -1.6350  2.0681  0.8673
10940TIP3    H254236   6.584   6.302   5.483  0.0151 -1.5472  0.8153
10941TIP3   OH254237   1.375   2.519  12.847 -0.5059  0.5391  0.1114
10941TIP3    H154238   1.441   2.576  12.887  1.2471 -1.0413 -0.4711
10941TIP3    H254239   1.393   2.523  12.753  0.2387 -1.6983  0.1394
10942TIP3   OH254240   0.419   1.346  12.622 -0.4895 -0.5142 -0.3153
10942TIP3    H154241   0.370   1.419  12.658 -0.2370 -0.0477 -0.9143
10942TIP3    H254242   0.441   1.373  12.533  0.0825 -1.0864 -0.3524
10943TIP3   OH254243   1.855   1.369   0.241  0.0193  0.5975 -0.0962
10943TIP3    H154244   1.877   1.323   0.321  0.5520  0.1974 -0.4668
10943TIP3    H254245   1.764   1.397   0.253  0.1607  0.7126  0.7196
10944TIP3   OH254246   2.819   4.932   5.460  0.0635  0.2867 -0.4717
10944TIP3    H154247   2.829   4.888   5.545 -0.2013  0.5053 -0.3260
10944TIP3    H254248   2.881   4.887   5.402  0.9293  0.7569  0.0745
10945TIP3   OH254249   6.294   5.169  10.831 -0.4938  0.1938 -1.0193
10945TIP3    H154250   6.204   5.137  10.819 -0.3732 -0.1499 -1.0263
10945TIP3    H254251   6.340   5.139  10.752  0.0820 -1.2638 -0.1508
10946TIP3   OH254252   3.558   1.121   3.427  0.1469  0.6964 -0.3827
10946TIP3    H154253   3.527   1.045   3.476  0.5958  0.4503 -0.4884
10946TIP3    H254254   3.481   1.178   3.421 -0.2481  0.1506 -0.5027
10947TIP3   OH254255   0.848   5.176  11.528  0.2353  0.2471 -0.1163
10947TIP3    H154256   0.925   5.222  11.561  0.7796 -0.3788 -0.5060
10947TIP3    H254257   0.860   5.172  11.433  0.4396 -1.1206 -0.0464
10948TIP3   OH254258   1.693   3.889   5.104  0.1980 -0.4851 -0.1649
10948TIP3    H154259   1.632   3.958   5.077  0.1246 -0.5001 -0.0405
10948TIP3    H254260   1.780   3.927   5.090  0.1542 -0.1410  0.4633
10949TIP3   OH254261   2.658   4.439   1.552  0.1278 -0.3193 -0.0544
10949TIP3    H154262   2.591   4.437   1.621 -0.1997 -0.3698 -0.3666
10949TIP3    H254263   2.629   4.372   1.489 -0.7162  1.1560 -1.2758
10950TIP3   OH254264   2.462   0.525  14.388 -0.0287  0.0411 -0.4036
10950TIP3    H154265   2.476   0.615  14.418  0.6479 -0.3737  0.5674
10950TIP3    H254266   2.544   0.480  14.409 -0.1479 -0.6618 -1.4109
10951TIP3   OH254267   1.296   2.014   4.181 -1.0601 -0.4911  0.4140
10951TIP3    H154268   1.230   2.079   4.155 -0.2380  0.8490  1.6553
10951TIP3    H254269   1.357   2.012   4.107 -1.9912 -1.0772 -0.3500
10952TIP3   OH254270   0.256   6.013   0.695 -0.8651 -0.4056 -0.4063
10952TIP3    H154271   0.286   5.923   0.682 -1.5623 -0.5290 -1.2076
10952TIP3    H254272   0.323   6.053   0.749 -0.2845 -1.2614 -0.4859
10953TIP3   OH254273   5.973   5.676  15.625  0.2034 -0.2945  0.4421
10953TIP3    H154274   6.052   5.725  15.603 -1.2210  1.0548 -1.8033
10953TIP3    H254275   5.965   5.610  15.556 -0.3241 -0.8154  0.9923
10954TIP3   OH254276   1.521   1.686   4.208 -0.1921  0.2808 -0.6396
10954TIP3    H154277   1.551   1.734   4.131 -0.7403 -1.1227 -1.7688
10954TIP3    H254278   1.576   1.608   4.210 -1.3332 -0.5465 -0.6477
10955TIP3   OH254279   0.086   1.931  12.166 -0.5344  0.4378 -0.1196
10955TIP3    H154280   0.028   1.993  12.121 -0.4589 -0.1636 -1.0613
10955TIP3    H254281   0.032   1.896  12.237 -2.0903 -1.7156 -2.2805
10956TIP3   OH254282   5.719   1.966  11.965 -0.2741  0.1895 -0.2527
10956TIP3    H154283   5.750   1.984  12.054 -1.4951  3.1746 -0.3505
10956TIP3    H254284   5.625   1.988  11.968 -0.1035  1.3607 -2.5187
10957TIP3   OH254285   5.970   1.258   5.926  0.5993 -1.0490  0.1759
10957TIP3    H154286   5.994   1.185   5.870 -1.1444 -0.9703 -0.7037
10957TIP3    H254287   5.877   1.273   5.908  1.2103  2.1694 -0.5578
10958TIP3   OH254288   5.937   3.818  11.593 -0.1865  0.2070 -0.5233
10958TIP3    H154289   5.910   3.764  11.667  0.6305 -0.0940 -0.4407
10958TIP3    H254290   5.999   3.881  11.630  1.1763 -0.7340 -1.1594
10959TIP3   OH254291   2.981   1.751   3.380 -0.0085 -0.3467  0.4675
10959TIP3    H154292   3.015   1.752   3.290  0.0366  1.0443  0.4929
10959TIP3    H254293   2.973   1.658   3.401  1.6442 -0.6947 -0.3494
10960TIP3   OH254294   6.426   2.046  13.788 -0.0580  0.1421  1.1547
10960TIP3    H154295   6.507   2.019  13.833 -0.0733 -1.6175  0.1691
10960TIP3    H254296   6.445   2.134  13.756  1.3582 -0.1099  1.2583
10961TIP3   OH254297   3.114   0.205  14.134 -0.0716 -0.5881 -0.4387
10961TIP3    H154298   3.157   0.282  14.171  1.4986 -0.2637 -2.8101
10961TIP3    H254299   3.162   0.131  14.173 -0.9643 -0.3600  1.1152
10962TIP3   OH254300   0.955   5.964  13.003  0.0837  0.3783 -0.0799
10962TIP3    H154301   0.986   6.052  13.024  0.1741  0.4395 -0.4750
10962TIP3    H254302   0.974   5.913  13.082  0.8903  0.4956 -0.1952
10963TIP3   OH254303   1.535   3.885   2.071  0.0538 -0.1168 -0.1045
10963TIP3    H154304   1.534   3.814   2.008  0.5681  0.6394 -0.9782
10963TIP3    H254305   1.549   3.964   2.018 -2.3857  0.8581  0.6232
10964TIP3   OH254306   5.471   0.041  11.698  0.2859  0.2233  0.0047
10964TIP3    H154307   5.453   0.040  11.792  0.2384 -1.1707 -0.0134
10964TIP3    H254308   5.565   0.054  11.692  0.4063 -0.4878  0.2721
10965TIP3   OH254309   2.216   1.828   4.792  0.3284  0.2136  0.5152
10965TIP3    H154310   2.170   1.779   4.724 -1.3167  1.3439  0.7797
10965TIP3    H254311   2.257   1.901   4.745 -0.4512  0.7514  0.6546
10966TIP3   OH254312   6.405   4.018   1.761 -0.2283  0.0453 -0.1613
10966TIP3    H154313   6.455   4.079   1.816 -1.7471  0.4536  0.7891
10966TIP3    H254314   6.446   4.024   1.675  3.0746 -1.5991  1.2053
10967TIP3   OH254315   2.294   6.003  14.546 -0.0243  0.6014 -0.4307
10967TIP3    H154316   2.300   5.996  14.450 -1.0725  0.5794 -0.4938
10967TIP3    H254317   2.254   6.088  14.561 -3.4311 -1.0056 -0.1216
10968TIP3   OH254318   3.782   6.538  13.031 -0.5159 -0.5669 -0.3253
10968TIP3    H154319   3.786   6.629  13.001  1.1283 -0.7219 -0.5821
10968TIP3    H254320   3.738   6.491  12.960 -0.3839 -0.1703 -0.6677
10969TIP3   OH254321   3.097   0.642  11.795 -0.2241  0.5836 -0.3499
10969TIP3    H154322   3.058   0.637  11.707 -0.5347 -0.2753 -0.1728
10969TIP3    H254323   3.039   0.588  11.849  1.3893 -0.9711 -0.1430
10970TIP3   OH254324   0.381   3.601  16.526 -0.3686 -0.1394 -0.2383
10970TIP3    H154325   0.422   3.514  16.524  1.1754  0.5846 -0.5138
10970TIP3    H254326   0.366   3.622  16.434  2.5388  1.3807 -0.4305
10971TIP3   OH254327   1.679   6.369   1.808 -0.6746 -0.1743 -0.4356
10971TIP3    H154328   1.627   6.305   1.857 -1.5476  0.4238 -0.5596
10971TIP3    H254329   1.698   6.438   1.872  1.1781 -1.0474 -0.0136
10972TIP3   OH254330   2.758   6.257  13.200 -0.9392 -0.1196 -0.1520
10972TIP3    H154331   2.689   6.307  13.244  0.1943  1.0472  0.3074
10972TIP3    H254332   2.839   6.291  13.237 -0.1793 -3.3189  1.2943
10973TIP3   OH254333   0.285   1.796  13.773  0.1470  0.0248  0.3306
10973TIP3    H154334   0.241   1.881  13.776 -0.5327 -0.3620  1.5063
10973TIP3    H254335   0.367   1.810  13.821  0.4469  0.2461 -0.2398
10974TIP3   OH254336   3.679   0.940   1.523 -0.0044  0.0057  0.4650
10974TIP3    H154337   3.755   0.998   1.521  0.9427 -1.2359  0.1689
10974TIP3    H254338   3.664   0.917   1.431 -1.5435  1.2578  0.3723
10975TIP3   OH254339   4.383   3.394  13.304  0.0780  0.5523 -0.2711
10975TIP3    H154340   4.384   3.358  13.393 -0.6451 -0.8021 -0.7929
10975TIP3    H254341   4.439   3.472  13.309  2.4152 -1.1123  0.7118
10976TIP3   OH254342   1.306   4.686  15.102 -0.1648 -0.3036  0.0246
10976TIP3    H154343   1.302   4.709  15.194 -1.1362  1.0790 -0.3436
10976TIP3    H254344   1.249   4.610  15.093 -1.5191  0.6709  0.2520
10977TIP3   OH254345   4.263   0.933   3.889 -0.3326 -0.3076 -0.0051
10977TIP3    H154346   4.298   0.987   3.960 -1.6224 -0.6870  0.9273
10977TIP3    H254347   4.251   0.995   3.816  2.6928 -0.2571 -0.5292
10978TIP3   OH254348   5.443   1.486  14.438  0.5252 -0.2857  0.0931
10978TIP3    H154349   5.435   1.515  14.529  1.5398  1.8574 -0.4709
10978TIP3    H254350   5.377   1.417  14.429 -0.2068  0.1016  2.1947
10979TIP3   OH254351   5.636   6.227   3.018 -0.1342 -0.2700  0.2935
10979TIP3    H154352   5.642   6.212   3.112 -0.0206 -0.0309  0.3257
10979TIP3    H254353   5.676   6.150   2.978 -0.9673 -0.7708  0.4255
10980TIP3   OH254354   6.330   6.501   5.571 -0.2077  0.0599  0.2911
10980TIP3    H154355   6.355   6.591   5.551  1.0013  0.1339  2.1076
10980TIP3    H254356   6.406   6.449   5.545 -0.7081 -0.3975 -0.2745
10981TIP3   OH254357   3.154   5.495   6.001 -0.1559 -0.6694 -0.1481
10981TIP3    H154358   3.088   5.519   6.067 -0.2877 -0.2856 -0.4193
10981TIP3    H254359   3.103   5.456   5.930 -0.3360  1.5311 -1.2804
10982TIP3   OH254360   6.427   5.051   0.794  0.1032  0.1502 -0.1996
10982TIP3    H154361   6.424   5.132   0.844  3.6496  0.2159  0.0635
10982TIP3    H254362   6.520   5.026   0.795 -0.3103 -1.8448 -3.5418
10983TIP3   OH254363   1.425   1.403   6.294  0.4443 -0.5106  0.0407
10983TIP3    H154364   1.487   1.462   6.338 -0.4008  0.0058  0.5428
10983TIP3    H254365   1.340   1.426   6.331 -0.2562 -0.2337 -1.6969
10984TIP3   OH254366   1.898   1.831   5.095 -0.0805 -0.5977  0.0596
10984TIP3    H154367   1.930   1.744   5.119  1.0689 -0.8711 -2.3243
10984TIP3    H254368   1.976   1.886   5.092 -0.5157  0.0009 -0.5613
10985TIP3   OH254369   0.004   4.676  14.983  0.0956 -0.2900  0.1958
10985TIP3    H154370   0.005   4.694  14.889  0.7977  1.3914  0.5003
10985TIP3    H254371   0.087   4.713  15.016 -0.3479 -0.4517  1.5408
10986TIP3   OH254372   5.689   4.355   3.910  0.2528 -0.1505  0.3357
10986TIP3    H154373   5.751   4.283   3.917 -0.6755 -0.9461  0.5119
10986TIP3    H254374   5.728   4.426   3.960  0.5410 -0.9829  1.3004
10987TIP3   OH254375   2.421   4.901   2.063 -0.0782 -0.5862  0.8996
10987TIP3    H154376   2.432   4.978   2.118 -2.2166 -0.0213  0.5837
10987TIP3    H254377   2.406   4.829   2.124 -2.5560  0.0561  1.0924
10988TIP3   OH254378   5.462   3.207   0.070 -0.3254 -0.3102  0.1829
10988TIP3    H154379   5.417   3.282   0.110 -0.0637 -1.0021  1.8383
10988TIP3    H254380   5.498   3.241  -0.012  1.8244  2.0165  2.0203
10989TIP3   OH254381   0.076   3.067  15.423 -0.7530  0.0485 -0.1145
10989TIP3    H154382  -0.012   3.072  15.386 -1.1582 -0.5266  0.7675
10989TIP3    H254383   0.076   2.988  15.477  0.0869  0.4234  0.4538
10990TIP3   OH254384   5.918   3.613   6.529  0.6478  0.7268 -0.0828
10990TIP3    H154385   5.902   3.705   6.507 -0.2759  0.4487 -0.5957
10990TIP3    H254386   5.838   3.567   6.502  1.1105 -0.2326  0.1441
10991TIP3   OH254387   3.390   1.623  15.128  0.1520  0.1260 -0.5867
10991TIP3    H154388   3.377   1.549  15.188  0.1207 -0.4381 -1.2847
10991TIP3    H254389   3.335   1.602  15.053  0.6423  0.5536 -1.0615
10992TIP3   OH254390   1.529   2.090  10.970  0.1313 -0.6709 -0.2659
10992TIP3    H154391   1.533   1.999  10.940 -0.9729 -1.0644  0.7545
10992TIP3    H254392   1.498   2.139  10.894  0.8984 -1.1090 -0.8732
10993TIP3   OH254393   6.372   6.604  11.678  0.3356  0.0327 -0.1798
10993TIP3    H154394   6.399   6.515  11.700  0.2986  0.1022  0.1519
10993TIP3    H254395   6.399   6.616  11.587  0.0785 -0.4209 -0.3182
10994TIP3   OH254396   4.472   0.531   1.585 -0.2947 -0.1987  0.1053
10994TIP3    H154397   4.401   0.492   1.637 -0.8851 -1.6925 -1.7735
10994TIP3    H254398   4.551   0.486   1.617 -0.3690  0.3651  1.1204
10995TIP3   OH254399   6.694   0.919   5.005  0.1688  0.0127  0.0112
10995TIP3    H154400   6.676   0.844   5.061  1.8130  0.8184  1.6736
10995TIP3    H254401   6.615   0.930   4.953 -0.0916 -2.8521 -0.2640
10996TIP3   OH254402   5.565   0.739  11.180 -0.1961  0.3688 -0.4134
10996TIP3    H154403   5.615   0.777  11.108  1.2521  0.0405  0.3948
10996TIP3    H254404   5.553   0.647  11.155  0.7492  0.1312 -0.0068
10997TIP3   OH254405   1.087   4.250   3.993 -0.2157  0.4915  0.4043
10997TIP3    H154406   0.996   4.267   3.968 -0.6340 -0.7074  1.0550
10997TIP3    H254407   1.130   4.226   3.911 -0.0986  2.6336 -0.1690
10998TIP3   OH254408   4.976   4.041  14.876  0.3947  0.3772  0.0574
10998TIP3    H154409   5.067   4.064  14.894  0.5293 -0.6262  0.6857
10998TIP3    H254410   4.938   4.120  14.839  1.5314  0.7944 -0.2211
10999TIP3   OH254411   4.921   1.707   1.649  0.0908 -0.9289  0.1413
10999TIP3    H154412   4.977   1.739   1.579 -1.4067 -1.0625 -1.1410
10999TIP3    H254413   4.862   1.644   1.607 -0.5142 -1.3631  1.5963
11000TIP3   OH254414   2.104   0.974  10.737  0.1275 -0.0922 -0.0673
11000TIP3    H154415   2.090   0.924  10.656 -1.9472  1.1341 -0.4997
11000TIP3    H254416   2.174   1.036  10.715 -0.4922  0.3033 -0.9853
11001TIP3   OH254417   3.269   1.524   3.594 -0.6701 -0.0379  0.4353
11001TIP3    H154418   3.245   1.582   3.667 -1.4087  1.2288 -0.7773
11001TIP3    H254419   3.185   1.495   3.559 -0.3800  1.5614 -1.6257
11002TIP3   OH254420   3.041   4.531   4.594 -0.2628  0.0060  0.1446
11002TIP3    H154421   3.027   4.500   4.504 -1.4336  0.3934  0.1891
11002TIP3    H254422   3.079   4.456   4.639  3.4641  0.8222 -1.4796
11003TIP3   OH254423   0.900   4.669  14.542  0.4063 -0.2233  0.1463
11003TIP3    H154424   0.893   4.665  14.447  0.2895  2.1130  0.0270
11003TIP3    H254425   0.810   4.655  14.573  0.1860  0.4721 -0.1613
11004TIP3   OH254426   4.539   2.997   3.373  0.2622  0.1213 -0.6097
11004TIP3    H154427   4.600   2.923   3.367 -1.1935 -0.9511 -2.8036
11004TIP3    H254428   4.476   2.970   3.440  0.4869 -0.0371 -0.4583
11005TIP3   OH254429   5.008   2.820   4.260 -0.5908  0.0703 -0.0753
11005TIP3    H154430   5.098   2.804   4.231 -0.3916  0.5500  0.2709
11005TIP3    H254431   5.018   2.857   4.348 -1.2088 -1.9711  0.8764
11006TIP3   OH254432   5.666   2.965  11.609 -0.4534 -0.0970 -0.0098
11006TIP3    H154433   5.726   2.973  11.534 -0.1724  1.3974  0.3431
11006TIP3    H254434   5.696   2.888  11.656  0.5674  0.0475 -0.4049
11007TIP3   OH254435   1.271   6.011  14.879  0.4029  0.8022  0.5170
11007TIP3    H154436   1.297   6.010  14.971  0.8400 -3.2352  0.4410
11007TIP3    H254437   1.353   6.022  14.831  0.2918  1.8543  0.5473
11008TIP3   OH254438   2.755   5.262  12.404 -0.3082 -0.2874  0.0968
11008TIP3    H154439   2.756   5.299  12.315  1.9715 -1.5279 -0.4454
11008TIP3    H254440   2.728   5.171  12.391  0.5848 -0.6236  0.6061
11009TIP3   OH254441   0.341   1.174   2.795 -0.0015 -0.0673  0.2596
11009TIP3    H154442   0.410   1.121   2.835  0.3908  0.2200 -0.0305
11009TIP3    H254443   0.377   1.262   2.789 -0.6677  0.2472  0.7660
11010TIP3   OH254444   1.577   6.454   6.459  0.0309 -0.5577  0.0313
11010TIP3    H154445   1.553   6.362   6.445 -0.7138 -0.6445  1.7851
11010TIP3    H254446   1.541   6.500   6.383  1.5677 -1.8819 -1.5604
11011TIP3   OH254447   6.128   1.188  15.904  0.7726  0.0913 -0.3575
11011TIP3    H154448   6.192   1.212  15.837  0.9973  1.5191  0.3586
11011TIP3    H254449   6.054   1.247  15.889 -1.4040 -3.0449 -2.6355
11012TIP3   OH254450   2.656   2.422   4.595  0.1815  0.0307  0.2713
11012TIP3    H154451   2.666   2.507   4.638 -2.1566 -0.4928  1.9712
11012TIP3    H254452   2.722   2.366   4.636  2.6229  1.3230 -1.7895
11013TIP3   OH254453   3.903   5.039   5.357  0.7951 -0.9446 -0.1071
11013TIP3    H154454   3.876   4.982   5.430  0.2056  1.2552  1.4500
11013TIP3    H254455   3.820   5.072   5.321  1.1634 -0.2930 -0.3590
11014TIP3   OH254456   5.531   4.263   4.179  0.0984 -0.6110  0.5609
11014TIP3    H154457   5.570   4.211   4.109  0.6998 -0.4917  0.8046
11014TIP3    H254458   5.515   4.200   4.250  1.6032 -0.3216  1.1736
11015TIP3   OH254459   6.516   5.356  15.297 -0.0303 -0.9811 -0.1406
11015TIP3    H154460   6.498   5.381  15.388  3.2253  0.6612  0.1009
11015TIP3    H254461   6.483   5.429  15.245  0.0105 -0.9581 -0.1344
11016TIP3   OH254462   5.072   5.754  17.101  0.6896 -0.9555  0.1866
11016TIP3    H154463   5.057   5.848  17.111  0.6364 -0.7800 -1.4213
11016TIP3    H254464   4.987   5.719  17.074  0.6367 -1.5187  1.0693
11017TIP3   OH254465   2.126   0.295  14.600  0.0727 -0.1498  0.2464
11017TIP3    H154466   2.150   0.336  14.683 -1.1979 -1.4757  1.2840
11017TIP3    H254467   2.033   0.276  14.608  0.2666 -1.6746 -0.8665
11018TIP3   OH254468   1.750   3.777  16.932 -0.3061 -0.6723 -0.6161
11018TIP3    H154469   1.810   3.844  16.899  0.1359 -1.2281 -0.9485
11018TIP3    H254470   1.736   3.719  16.857 -2.4509  0.2862 -0.9887
11019TIP3   OH254471   0.015   0.501   1.175  0.4564 -0.0397 -0.1751
11019TIP3    H154472  -0.062   0.521   1.121  0.0578 -0.6410  0.1695
11019TIP3    H254473   0.035   0.410   1.155  0.2912 -0.2716  0.7174
11020TIP3   OH254474   5.686   4.283  16.983  0.3964  0.4830  0.1034
11020TIP3    H154475   5.763   4.253  16.937  0.7829 -0.1494  1.1555
11020TIP3    H254476   5.639   4.203  17.008  0.4125  0.7893  1.1643
11021TIP3   OH254477   3.650   0.380   5.301 -0.4020  0.0454  0.3187
11021TIP3    H154478   3.646   0.387   5.206  1.3967 -0.4057  0.2066
11021TIP3    H254479   3.701   0.456   5.329  0.9323 -1.0016  0.7528
11022TIP3   OH254480   3.586   2.782   4.991  0.3851  0.2126  0.2473
11022TIP3    H154481   3.601   2.696   5.031 -0.0067 -0.1433 -0.3612
11022TIP3    H254482   3.625   2.844   5.052  2.5170 -0.5488 -0.2900
11023TIP3   OH254483   5.863   0.814  12.707  0.0173 -0.1785  0.2960
11023TIP3    H154484   5.940   0.769  12.741  0.1725 -1.9707 -2.2599
11023TIP3    H254485   5.898   0.894  12.667  0.5205 -0.7928 -0.5054
11024TIP3   OH254486   4.821   1.835   1.021  0.4583 -0.0796 -0.0601
11024TIP3    H154487   4.896   1.804   1.072  0.9435 -1.2599 -1.4671
11024TIP3    H254488   4.856   1.849   0.933 -0.9844 -0.7397 -0.7536
11025TIP3   OH254489   1.155   5.719  11.387 -0.0204  0.2474  0.8050
11025TIP3    H154490   1.174   5.632  11.353 -0.2608  1.2965 -2.1373
11025TIP3    H254491   1.060   5.719  11.400 -0.2218  0.5449 -0.6152
11026TIP3   OH254492   3.598   2.157   5.219  0.0832  0.2142  0.0035
11026TIP3    H154493   3.535   2.087   5.203  0.6739 -1.0798  2.9646
11026TIP3    H254494   3.551   2.219   5.274 -0.0819  1.6430 -1.7013
11027TIP3   OH254495   2.070   0.497  11.198  0.1737  0.3932  0.4374
11027TIP3    H154496   2.094   0.585  11.226  1.6451  0.3575 -0.6334
11027TIP3    H254497   2.059   0.505  11.103 -0.5689 -0.3833  0.4533
11028TIP3   OH254498   5.498   6.548  14.197  0.0369 -0.3073 -0.0887
11028TIP3    H154499   5.406   6.560  14.170 -0.0409  1.5485  0.9046
11028TIP3    H254500   5.492   6.499  14.279 -0.0855 -0.0263  0.0733
11029TIP3   OH254501   3.724   4.276   3.149  0.4695 -0.3228 -0.0109
11029TIP3    H154502   3.728   4.242   3.238 -3.6151 -0.0322  0.3993
11029TIP3    H254503   3.662   4.218   3.104  3.0406 -0.9342 -2.9250
11030TIP3   OH254504   4.431   0.985   4.128 -0.0410  0.3703 -0.2228
11030TIP3    H154505   4.405   1.043   4.199  2.1503  0.9468  0.1605
11030TIP3    H254506   4.423   0.897   4.165 -1.8625  0.5056 -0.2858
11031TIP3   OH254507   5.708   3.184   4.586 -1.3009  0.6698  0.2993
11031TIP3    H154508   5.664   3.216   4.507 -0.8916 -0.1011 -0.2545
11031TIP3    H254509   5.713   3.089   4.573  0.5175  0.7344  0.3455
11032TIP3   OH254510   4.311   5.872  12.110  0.2340 -0.1738 -0.5499
11032TIP3    H154511   4.358   5.812  12.053  0.0057  0.5199 -1.4894
11032TIP3    H254512   4.359   5.955  12.102  0.8066 -0.3286  1.0681
11033TIP3   OH254513   2.929   6.196  10.706  0.3662  0.6241 -0.0100
11033TIP3    H154514   2.839   6.174  10.732  0.2223 -0.2749 -1.2247
11033TIP3    H254515   2.925   6.289  10.684 -0.3815  0.4965 -0.4597
11034TIP3   OH254516   6.673   0.382  12.580 -0.4128 -0.1908  0.5214
11034TIP3    H154517   6.674   0.333  12.662  1.6168  0.3912  0.8904
11034TIP3    H254518   6.636   0.467  12.603  0.0954 -0.0498  0.8379
11035TIP3   OH254519   4.583   4.169   3.136  0.1914 -0.2864  0.0553
11035TIP3    H154520   4.673   4.194   3.157 -0.2066  0.5119  0.8717
11035TIP3    H254521   4.572   4.083   3.175 -0.1006  0.5968  2.0014
11036TIP3   OH254522   1.347   2.291   0.434 -0.2593  0.2697 -0.2449
11036TIP3    H154523   1.407   2.356   0.398 -0.5075 -0.3080 -1.7467
11036TIP3    H254524   1.352   2.217   0.372  0.5710 -1.4489  1.7857
11037TIP3   OH254525   4.676   0.933  12.794  0.4093  0.3490 -0.1211
11037TIP3    H154526   4.637   0.911  12.709 -0.3829 -0.9096  0.5640
11037TIP3    H254527   4.755   0.880  12.798  0.4718  0.4443 -0.0829
11038TIP3   OH254528   4.566   2.000   1.798  0.2153  0.7295  0.0391
11038TIP3    H154529   4.583   2.046   1.716  0.0109 -1.0561 -1.0302
11038TIP3    H254530   4.616   1.919   1.791 -1.8313 -0.6205  0.5656
11039TIP3   OH254531   6.652   6.301  11.512  0.6232 -0.0428  0.1012
11039TIP3    H154532   6.695   6.240  11.572 -0.9749 -0.0781  1.2307
11039TIP3    H254533   6.644   6.253  11.430  0.4677 -0.9136  0.6255
11040TIP3   OH254534   0.741   2.428   2.824 -0.0113  0.0630 -0.4448
11040TIP3    H154535   0.814   2.368   2.810  1.5231  1.8438 -0.2505
11040TIP3    H254536   0.694   2.391   2.899  1.0193 -0.7814 -0.1970
11041TIP3   OH254537   3.317   0.687  14.204 -0.4359 -0.2641  0.6354
11041TIP3    H154538   3.294   0.629  14.132 -0.7870 -0.0135  0.5465
11041TIP3    H254539   3.411   0.702  14.193  0.3311 -3.3904  2.5326
11042TIP3   OH254540   2.136   3.210   5.849 -0.1090  0.5566 -0.6261
11042TIP3    H154541   2.196   3.199   5.776  0.6032  1.5830 -0.2115
11042TIP3    H254542   2.138   3.126   5.895  1.8258  0.9181 -0.0184
11043TIP3   OH254543   5.179   0.970  14.503 -0.2926 -0.0026 -0.7069
11043TIP3    H154544   5.241   0.929  14.564  0.1629  1.0517 -0.4492
11043TIP3    H254545   5.218   0.957  14.416 -0.7367 -1.1478 -0.7337
11044TIP3   OH254546   4.692   3.344   3.150 -0.1329  0.2626 -0.7811
11044TIP3    H154547   4.713   3.269   3.094  0.6467  0.4227 -0.7056
11044TIP3    H254548   4.666   3.306   3.233  3.4835  0.1230  0.3754
11045TIP3   OH254549   6.631   2.351   4.610  0.5202 -0.2929  0.1580
11045TIP3    H154550   6.661   2.378   4.697  0.3329 -0.7706  0.3666
11045TIP3    H254551   6.544   2.315   4.624  0.4319 -0.2449 -0.2511
11046TIP3   OH254552   3.515   6.731  16.909 -0.4354  0.3541 -0.3670
11046TIP3    H154553   3.589   6.764  16.859 -0.2167 -0.5021 -0.5999
11046TIP3    H254554   3.439   6.779  16.874 -0.1348  0.5238 -0.7807
11047TIP3   OH254555   5.136   4.807   0.284  0.2220 -0.8218 -0.4810
11047TIP3    H154556   5.112   4.753   0.209  1.7921 -0.7519 -1.0575
11047TIP3    H254557   5.118   4.897   0.257  1.5681 -0.7292 -1.0961
11048TIP3   OH254558   4.488   3.954  14.352 -0.2075  0.0985  0.3795
11048TIP3    H154559   4.459   3.952  14.261  1.3339 -0.0891 -0.1302
11048TIP3    H254560   4.409   3.974  14.402 -1.1722 -0.2923 -0.9530
11049TIP3   OH254561   1.813   1.528  10.753  0.4332 -0.0248  0.2365
11049TIP3    H154562   1.718   1.542  10.757  0.4654 -0.0825  1.5204
11049TIP3    H254563   1.843   1.583  10.681 -0.4597  0.7158  0.4207
11050TIP3   OH254564   2.388   0.392   3.654  0.5250  0.0507  0.2992
11050TIP3    H154565   2.293   0.402   3.646  0.5137  0.1768  0.5936
11050TIP3    H254566   2.410   0.436   3.736  0.7214 -0.7186  0.6617
11051TIP3   OH254567   4.329   5.058  15.171 -0.0587  0.3278  0.1601
11051TIP3    H154568   4.247   5.009  15.168 -0.8286  1.5633  0.4140
11051TIP3    H254569   4.348   5.079  15.080 -0.3857  0.6107  0.1550
11052TIP3   OH254570   3.736   2.998  11.742 -0.4623  0.3273  0.3469
11052TIP3    H154571   3.654   3.004  11.692 -1.3255  1.8717  1.8941
11052TIP3    H254572   3.803   3.029  11.682 -1.2584  0.6601 -0.3753
11053TIP3   OH254573   5.138   4.271  12.688 -0.0987 -0.1921 -0.1679
11053TIP3    H154574   5.127   4.195  12.746  0.4066  0.1242  0.3482
11053TIP3    H254575   5.222   4.308  12.713 -0.1244  0.2631 -0.7501
11054TIP3   OH254576   6.028   3.340   5.814  0.1316 -0.1801  0.2588
11054TIP3    H154577   5.990   3.405   5.873  0.5953 -0.4973  0.9044
11054TIP3    H254578   6.036   3.387   5.730 -1.4441 -0.0392  0.1731
11055TIP3   OH254579   5.031   4.105   1.135  0.3239  0.0128  0.4981
11055TIP3    H154580   4.989   4.160   1.201 -0.1065 -1.2449  1.2864
11055TIP3    H254581   5.052   4.165   1.063  0.6256  1.3542  1.6910
11056TIP3   OH254582   4.787   1.197   1.377  0.4433 -0.1809 -0.1204
11056TIP3    H154583   4.813   1.229   1.291  0.0954 -0.2696 -0.2625
11056TIP3    H254584   4.692   1.207   1.378  0.6234  1.5877  0.9816
11057TIP3   OH254585   4.787   3.653  11.921  0.0491  0.3827  0.2231
11057TIP3    H154586   4.811   3.583  11.983 -0.7905 -2.7525 -2.8580
11057TIP3    H254587   4.868   3.704  11.911  0.8602 -0.4870  2.0505
11058TIP3   OH254588   3.396   4.506  16.888 -0.4337 -0.0454  0.4217
11058TIP3    H154589   3.323   4.464  16.842 -0.0240 -2.1646  1.6549
11058TIP3    H254590   3.357   4.582  16.932 -1.4684  0.0635 -0.6601
11059TIP3   OH254591   5.465   0.651  11.488 -0.2107 -0.1461 -0.4725
11059TIP3    H154592   5.540   0.597  11.462 -1.2986 -1.8410 -0.2135
11059TIP3    H254593   5.460   0.719  11.421  1.8092  0.2441 -0.2609
11060TIP3   OH254594   3.222   0.227   5.848  0.2468  0.8976 -0.2566
11060TIP3    H154595   3.239   0.133   5.849 -1.0837  0.6459  0.0497
11060TIP3    H254596   3.262   0.258   5.766 -1.1057 -0.3044 -1.3887
11061TIP3   OH254597   6.632   2.311   3.583  0.6406  0.6430 -0.0966
11061TIP3    H154598   6.568   2.382   3.581  0.0527  0.1188 -0.1366
11061TIP3    H254599   6.637   2.285   3.675  2.4123  2.1168  0.2538
11062TIP3   OH254600   0.263   0.433  14.538 -0.1345 -0.2911 -0.3721
11062TIP3    H154601   0.288   0.481  14.617 -0.3318  0.9372 -1.0393
11062TIP3    H254602   0.343   0.390  14.509  0.4203  0.9036 -0.6310
11063TIP3   OH254603   3.304   0.008  17.209  0.7783  0.3449 -0.0050
11063TIP3    H154604   3.262   0.066  17.145  1.0768 -0.6809 -1.1352
11063TIP3    H254605   3.230  -0.031  17.257  0.3338 -1.9795 -2.4479
11064TIP3   OH254606   2.722   4.405   6.769  0.8403 -0.5596 -0.0510
11064TIP3    H154607   2.687   4.461   6.838 -0.1272 -0.3587 -0.7049
11064TIP3    H254608   2.807   4.376   6.803  1.9380  2.3024 -0.2283
11065TIP3   OH254609   6.056   3.581  11.914 -0.0577 -0.2032  0.9305
11065TIP3    H154610   6.047   3.587  12.010 -0.8934  0.4056  0.8149
11065TIP3    H254611   6.115   3.507  11.901 -0.1115 -0.4345  1.9111
11066TIP3   OH254612   1.780   0.501  12.442 -0.1895 -0.2689 -0.5721
11066TIP3    H154613   1.851   0.459  12.394 -1.0338  0.0970 -2.1764
11066TIP3    H254614   1.743   0.431  12.497  2.1926 -0.1484  1.2400
11067TIP3   OH254615   3.983   3.910   5.064 -0.2818 -0.0803 -0.0580
11067TIP3    H154616   4.005   3.997   5.031  0.0068 -0.9744 -2.3229
11067TIP3    H254617   3.916   3.926   5.131  0.4265  1.9292  0.2117
11068TIP3   OH254618   4.809   0.721   3.382 -0.1034 -0.1949  0.1856
11068TIP3    H154619   4.895   0.762   3.390  0.0522 -0.1938 -1.3194
11068TIP3    H254620   4.808   0.684   3.294 -1.0444 -1.6045  0.7711
11069TIP3   OH254621   3.024   0.072   4.836  0.4943  0.2028 -0.1282
11069TIP3    H154622   3.110   0.035   4.813  0.3864 -0.4063  0.4180
11069TIP3    H254623   2.967  -0.004   4.843  0.3612  0.4184  1.4230
11070TIP3   OH254624   6.518   0.074  15.568 -0.2177  0.4261 -0.3200
11070TIP3    H154625   6.520   0.076  15.472 -0.7150 -1.1300 -0.3706
11070TIP3    H254626   6.547   0.161  15.594  2.1973  0.1327 -1.8610
11071TIP3   OH254627   5.766   2.570   5.117  0.3026 -0.5766 -0.3361
11071TIP3    H154628   5.850   2.572   5.071  0.2810 -0.0381 -0.3620
11071TIP3    H254629   5.701   2.558   5.047  0.2652  0.2975 -0.4665
11072TIP3   OH254630   3.627   2.032   4.945  0.2451  0.1318 -0.0959
11072TIP3    H154631   3.595   1.984   4.868 -1.3460  0.8538  0.0977
11072TIP3    H254632   3.570   2.004   5.016  1.3695 -0.1160  0.7104
11073TIP3   OH254633   5.693   5.415   5.269 -0.1314 -0.0073 -0.8383
11073TIP3    H154634   5.765   5.400   5.330 -2.2279  1.1613  2.0483
11073TIP3    H254635   5.717   5.496   5.223 -0.0646  0.9900  0.8974
11074TIP3   OH254636   5.244   6.556   5.921  0.1008  0.0885  0.0509
11074TIP3    H154637   5.218   6.519   6.005  0.9819 -2.0184 -0.5618
11074TIP3    H254638   5.321   6.505   5.895  1.6496  2.6576 -0.6511
11075TIP3   OH254639   3.340   4.814   3.693  0.3412 -0.5542  0.2717
11075TIP3    H154640   3.341   4.905   3.666 -1.0689 -0.4320  0.5882
11075TIP3    H254641   3.274   4.810   3.763  0.6775 -1.7302  0.5418
11076TIP3   OH254642   2.464   2.174  12.911 -0.2832  0.4534  0.7435
11076TIP3    H154643   2.449   2.113  12.839  0.0875  0.6256  0.5192
11076TIP3    H254644   2.480   2.258  12.869  1.3546  0.2681  0.9590
11077TIP3   OH254645   0.520   2.340   3.497 -0.1712  0.1350 -0.6178
11077TIP3    H154646   0.425   2.354   3.503 -0.0084  1.9494 -1.9327
11077TIP3    H254647   0.544   2.299   3.580 -2.0409  0.0188 -0.1207
11078TIP3   OH254648   6.742   4.652  14.099  0.5796  0.0907  0.2158
11078TIP3    H154649   6.674   4.585  14.098  1.0862 -0.4650  1.7755
11078TIP3    H254650   6.748   4.682  14.008 -0.7654 -0.8417 -0.1837
11079TIP3   OH254651   2.935   2.906  12.378  0.8332 -0.4130  0.3207
11079TIP3    H154652   2.896   2.869  12.457  1.5061 -2.0164 -0.0793
11079TIP3    H254653   2.863   2.904  12.314  0.5468  0.0456  0.6217
11080TIP3   OH254654   3.578   3.005   2.660  0.4085  0.6137  0.3937
11080TIP3    H154655   3.618   3.086   2.628 -0.0298 -0.2030 -2.3492
11080TIP3    H254656   3.633   2.935   2.622 -0.2047 -0.3945  1.3438
11081TIP3   OH254657   6.723   2.853   6.708 -0.2676  0.5971  0.5974
11081TIP3    H154658   6.818   2.845   6.718 -0.2324 -0.0357 -0.1703
11081TIP3    H254659   6.711   2.929   6.652  0.0035 -1.6620 -2.6995
11082TIP3   OH254660   5.707   2.944   1.965 -0.1164 -0.0878  0.2792
11082TIP3    H154661   5.784   2.968   1.913 -0.5454  0.7961  0.0364
11082TIP3    H254662   5.734   2.957   2.055  1.2473 -3.4055  0.4292
11083TIP3   OH254663   6.419   1.265   2.690 -0.0130  0.0697 -0.8762
11083TIP3    H154664   6.410   1.193   2.753 -0.9362  0.3969 -0.6337
11083TIP3    H254665   6.507   1.300   2.707 -0.1032 -0.0965 -0.0401
11084TIP3   OH254666   5.002   6.279   6.221 -0.3780 -0.3180  0.2849
11084TIP3    H154667   4.924   6.333   6.211 -1.1674 -1.5051 -0.0783
11084TIP3    H254668   4.978   6.195   6.181  0.6468 -1.1063  1.3051
11085TIP3   OH254669   5.176   4.627  12.718  0.0951  0.5645 -0.2491
11085TIP3    H154670   5.143   4.614  12.629  0.5154 -2.0998 -0.0384
11085TIP3    H254671   5.113   4.583  12.775  1.1996  0.0064  0.5660
11086TIP3   OH254672   0.051   4.445   2.260  0.1420  0.2685  0.8790
11086TIP3    H154673   0.076   4.357   2.230 -2.5507  0.2858 -1.7241
11086TIP3    H254674   0.120   4.502   2.227  0.3403 -0.5110 -0.0818
11087TIP3   OH254675   2.276   1.431   5.406  0.0138  0.1362 -0.0064
11087TIP3    H154676   2.238   1.454   5.321 -2.2459 -1.0762  0.6298
11087TIP3    H254677   2.292   1.336   5.400  0.3312  0.1336  0.7508
11088TIP3   OH254678   6.761   3.222   0.296  0.0690  0.0048  0.7972
11088TIP3    H154679   6.776   3.291   0.231 -0.6713 -0.2221  0.3732
11088TIP3    H254680   6.756   3.267   0.380  0.5503  0.3568  0.6346
11089TIP3   OH254681   3.133   6.647  12.542 -0.7578 -0.1233 -0.3800
11089TIP3    H154682   3.170   6.574  12.492  0.4295  0.7265 -0.7663
11089TIP3    H254683   3.209   6.698  12.570 -1.3645 -0.8756  2.7963
11090TIP3   OH254684   2.803   4.495   4.042 -0.0210 -0.0598 -0.4424
11090TIP3    H154685   2.782   4.403   4.029 -1.6464  0.5303 -2.2252
11090TIP3    H254686   2.724   4.533   4.080  0.4872  0.6869 -0.1048
11091TIP3   OH254687   5.467   4.083   0.007  0.7774  0.2336  0.1517
11091TIP3    H154688   5.531   4.150   0.032  2.4339 -0.6507 -1.5887
11091TIP3    H254689   5.519   4.017  -0.040 -0.8486 -2.1785  1.6454
11092TIP3   OH254690   2.483   5.184   4.377  0.6471  0.2251  0.1353
11092TIP3    H154691   2.427   5.126   4.428  1.9381 -0.7460  0.4731
11092TIP3    H254692   2.429   5.210   4.302  0.0473 -1.4073 -0.0217
11093TIP3   OH254693   4.243   6.643  15.248 -0.6041  0.3948  0.0309
11093TIP3    H154694   4.258   6.595  15.329 -1.4024  0.1734  0.0586
11093TIP3    H254695   4.184   6.714  15.273  0.6849  1.4766  0.0227
11094TIP3   OH254696   0.789   5.808  12.847 -0.6550 -0.0304  0.5081
11094TIP3    H154697   0.775   5.745  12.918  2.0852 -1.2317  0.0294
11094TIP3    H254698   0.846   5.875  12.885 -0.4388  0.1472 -0.1288
11095TIP3   OH254699   5.815   1.674   5.836  0.1047  0.4805  0.0641
11095TIP3    H154700   5.780   1.611   5.900  0.3511 -0.9691 -1.1962
11095TIP3    H254701   5.792   1.759   5.872  1.9104 -0.2226  3.0888
11096TIP3   OH254702   4.033   3.168   0.821  0.1286  0.3349  0.1174
11096TIP3    H154703   3.960   3.215   0.861 -0.2999  0.4724 -0.8154
11096TIP3    H254704   4.010   3.163   0.729  2.4355  2.4759 -0.6180
11097TIP3   OH254705   5.339   2.951  14.559  0.2639  0.3119 -0.1270
11097TIP3    H154706   5.387   3.032  14.544 -2.7788  2.5150  1.4883
11097TIP3    H254707   5.289   2.937  14.479  1.7587 -0.7093 -0.9028
11098TIP3   OH254708   5.325   3.366  12.759  0.2455  0.1940 -0.3611
11098TIP3    H154709   5.239   3.326  12.744 -0.2192  0.6323  0.9779
11098TIP3    H254710   5.334   3.431  12.689 -1.1435  1.1080  0.2811
11099TIP3   OH254711   3.641   2.720   2.254 -0.0299 -0.1768  0.1911
11099TIP3    H154712   3.577   2.792   2.252 -1.0228 -1.0668 -2.3598
11099TIP3    H254713   3.607   2.660   2.319 -0.1962  0.7746  0.9954
11100TIP3   OH254714   1.491   3.580  13.681  0.1564 -0.0655  0.6212
11100TIP3    H154715   1.412   3.528  13.698  1.2631 -1.9880  0.0209
11100TIP3    H254716   1.536   3.582  13.766  0.1087 -0.0770  0.6459
11101TIP3   OH254717   2.143   3.331  11.726 -0.2635  0.0428  0.0331
11101TIP3    H154718   2.208   3.350  11.658  1.0530 -0.7752  1.0371
11101TIP3    H254719   2.059   3.337  11.681  0.4093  2.5429 -0.9728
11102TIP3   OH254720   0.077   2.194  12.018  0.9844  0.5027 -0.1589
11102TIP3    H154721   0.063   2.232  12.104  1.1504 -1.1840  0.6296
11102TIP3    H254722   0.139   2.253  11.975  0.4135  1.6884  0.6299
11103TIP3   OH254723   0.474   4.706  11.037 -0.1943 -0.4472 -0.0154
11103TIP3    H154724   0.544   4.688  11.100  0.2039  0.6877 -0.1137
11103TIP3    H254725   0.418   4.771  11.081  0.5137  0.9357 -1.1167
11104TIP3   OH254726   2.506   3.570   0.649  0.5328 -0.3770  0.0519
11104TIP3    H154727   2.486   3.554   0.557  1.9172 -0.2941 -0.2710
11104TIP3    H254728   2.516   3.482   0.687 -1.5586 -0.4573  0.4904
11105TIP3   OH254729   0.557   0.774  11.901 -0.0500 -0.5414 -0.0118
11105TIP3    H154730   0.591   0.752  11.815  0.2772  1.2722 -0.3745
11105TIP3    H254731   0.509   0.856  11.888  1.9725  1.0247  1.9458
11106TIP3   OH254732   0.019   3.518  12.141 -0.6051 -0.1447  0.7467
11106TIP3    H154733  -0.068   3.557  12.134  0.4238  2.3042  1.2766
11106TIP3    H254734   0.015   3.466  12.222 -2.2444 -1.9293 -0.4151
11107TIP3   OH254735   4.904   5.337   5.350  0.1435  0.2603 -0.1139
11107TIP3    H154736   4.851   5.387   5.412  1.6346  0.3009  1.1568
11107TIP3    H254737   4.991   5.377   5.354  0.8352 -1.1476 -0.5861
11108TIP3   OH254738   3.540   2.156   6.142  0.7492  0.5699 -0.3173
11108TIP3    H154739   3.583   2.120   6.220 -1.1759 -0.6673  0.1918
11108TIP3    H254740   3.483   2.225   6.176  1.8167  1.7749 -0.9286
11109TIP3   OH254741   2.452   0.280   2.151  0.0185  0.6512  0.3365
11109TIP3    H154742   2.418   0.366   2.178 -2.4949 -0.0292 -0.5085
11109TIP3    H254743   2.438   0.278   2.056 -0.9584 -1.1166  0.5059
11110TIP3   OH254744   1.297   5.341  14.641 -0.2558 -0.2679 -0.5276
11110TIP3    H154745   1.312   5.261  14.693 -0.1647  0.1395  0.0796
11110TIP3    H254746   1.228   5.317  14.579  0.6077 -1.1808 -1.1501
11111TIP3   OH254747   6.534   1.616   2.852 -0.2274  0.1161 -0.2722
11111TIP3    H154748   6.549   1.702   2.892 -3.1983 -0.5271  2.4132
11111TIP3    H254749   6.607   1.562   2.883 -0.7976  0.4893  1.8064
11112TIP3   OH254750   1.461   4.248  13.705  0.1979 -0.4039 -0.0667
11112TIP3    H154751   1.383   4.263  13.652  1.2707  0.8467 -1.3732
11112TIP3    H254752   1.529   4.227  13.641  1.2781  0.0591  0.9062
11113TIP3   OH254753   1.567   3.799  14.721  0.2858 -0.4084  0.4755
11113TIP3    H154754   1.611   3.829  14.642  1.0375 -0.4818  0.8588
11113TIP3    H254755   1.626   3.823  14.792 -0.9546  0.8032  1.1467
11114TIP3   OH254756   6.336   1.961   5.656  0.1600  0.0625  0.1967
11114TIP3    H154757   6.332   2.055   5.674 -1.4833  0.0618 -0.0784
11114TIP3    H254758   6.246   1.931   5.665  0.7063 -1.5331  0.4864
11115TIP3   OH254759   4.016   4.374  16.960  0.1427 -0.6900 -0.2640
11115TIP3    H154760   4.106   4.406  16.963 -0.8075  1.9001  2.7841
11115TIP3    H254761   3.980   4.412  16.880  1.3415 -0.5801 -0.7596
11116TIP3   OH254762   4.957   0.495  11.909 -0.4214 -0.0051 -0.2640
11116TIP3    H154763   4.951   0.528  11.999  0.1408 -0.5340 -0.0267
11116TIP3    H254764   5.045   0.521  11.880  0.7599 -2.8534  0.5750
11117TIP3   OH254765   2.009   0.445  12.318 -0.8051 -0.4797 -0.6351
11117TIP3    H154766   2.077   0.472  12.380 -0.7559 -0.0186 -0.8863
11117TIP3    H254767   2.056   0.423  12.238 -0.7382 -2.4162 -0.0925
11118TIP3   OH254768   5.805   5.652  14.451  0.3053 -0.1263  0.1935
11118TIP3    H154769   5.745   5.710  14.498  0.0231  0.2638 -0.6272
11118TIP3    H254770   5.839   5.706  14.379  2.4802  0.0007  1.2801
11119TIP3   OH254771   5.167   4.692  15.712 -0.2151 -0.1490 -0.3165
11119TIP3    H154772   5.206   4.652  15.789  1.5727  1.1735 -0.4995
11119TIP3    H254773   5.137   4.778  15.742 -0.4108 -0.0293 -0.8478
11120TIP3   OH254774   2.331   5.162  11.841 -0.4836 -0.1152  0.0014
11120TIP3    H154775   2.321   5.073  11.876 -2.6965  0.6565  1.4444
11120TIP3    H254776   2.259   5.172  11.780 -0.5431  0.8604  0.2185
11121TIP3   OH254777   2.016   0.745   2.715 -0.0580 -0.0484  0.1163
11121TIP3    H154778   2.049   0.810   2.777  0.8105 -1.7769  1.5198
11121TIP3    H254779   2.095   0.707   2.676 -0.5417 -0.4276 -0.4988
11122TIP3   OH254780   3.011   2.175   0.795 -0.3667 -0.0316  0.6106
11122TIP3    H154781   2.928   2.157   0.840  0.4760 -0.0874  2.1504
11122TIP3    H254782   3.072   2.199   0.865  1.0555 -0.4758 -0.4517
11123TIP3   OH254783   3.904   0.152  14.307 -0.1606 -0.2981 -0.3675
11123TIP3    H154784   3.847   0.088  14.350  2.4255 -2.2285  0.2849
11123TIP3    H254785   3.973   0.100  14.267  2.2089  2.0907  0.4716
11124TIP3   OH254786   5.499   3.582   3.429  0.5014 -0.5025  0.0593
11124TIP3    H154787   5.544   3.566   3.346  2.2295  0.7981  0.7213
11124TIP3    H254788   5.498   3.677   3.438 -0.0155 -0.6182  1.3601
11125TIP3   OH254789   5.394   0.496  15.704 -0.1464 -0.4308  0.0175
11125TIP3    H154790   5.307   0.537  15.703  0.2687  0.4678  0.2090
11125TIP3    H254791   5.445   0.546  15.641  0.7850  0.2825  1.3104
11126TIP3   OH254792   5.323   3.586   5.533 -0.4738 -0.2679 -0.0901
11126TIP3    H154793   5.245   3.557   5.484  0.7813 -0.2586 -2.1461
11126TIP3    H254794   5.365   3.650   5.476  1.3083 -0.6260  0.7892
11127TIP3   OH254795   6.296   2.656  12.628  0.4172 -0.4604  0.1065
11127TIP3    H154796   6.369   2.600  12.653  0.4440  0.3809  1.9957
11127TIP3    H254797   6.222   2.627  12.682 -0.6709 -1.3309 -1.8194
11128TIP3   OH254798   4.274   1.895   1.891  0.2417  0.5449  0.5142
11128TIP3    H154799   4.279   1.818   1.834  0.4813  0.3497  0.7961
11128TIP3    H254800   4.334   1.958   1.851 -0.3365  0.7742  0.0011
11129TIP3   OH254801   4.149   1.152  13.872 -0.9730  0.0962  0.1453
11129TIP3    H154802   4.057   1.132  13.893 -1.1261 -1.7394 -2.1238
11129TIP3    H254803   4.168   1.099  13.795  2.2008  0.0261  0.9284
11130TIP3   OH254804   0.993   2.308  14.358 -0.6646  0.1160  0.3616
11130TIP3    H154805   1.085   2.312  14.334 -0.7154 -0.3367  0.0664
11130TIP3    H254806   0.949   2.362  14.292 -0.8591 -1.5336 -0.8962
11131TIP3   OH254807   3.990   5.888  14.653  0.2410 -0.4357  0.4332
11131TIP3    H154808   3.933   5.896  14.729  0.2765 -0.5041  0.4679
11131TIP3    H254809   3.969   5.801  14.617 -0.6040  0.0648 -0.3053
11132TIP3   OH254810   6.687   5.235  16.402  0.0636  0.0027  0.3128
11132TIP3    H154811   6.702   5.173  16.331  2.3827 -1.5976  2.1544
11132TIP3    H254812   6.746   5.308  16.383 -1.3958  0.9268 -0.8892
11133TIP3   OH254813   5.363   1.223   3.123 -0.5101 -0.0978 -0.3348
11133TIP3    H154814   5.395   1.161   3.188  0.2129  2.5374  1.9089
11133TIP3    H254815   5.295   1.272   3.168  0.5337  2.3106 -1.2923
11134TIP3   OH254816   4.921   4.842   1.182 -0.7314  0.2984 -0.2955
11134TIP3    H154817   4.949   4.775   1.120 -2.2958  1.1006 -1.9150
11134TIP3    H254818   4.977   4.828   1.259 -1.5314 -3.3211 -0.2838
11135TIP3   OH254819   4.566   5.890  13.229 -0.0597 -0.6094 -0.2392
11135TIP3    H154820   4.654   5.924  13.211 -0.3232 -0.4950 -1.3625
11135TIP3    H254821   4.580   5.820  13.292  0.7732 -0.1728  0.0761
11136TIP3   OH254822   0.755   2.377  14.505 -0.1182  0.0786 -0.2925
11136TIP3    H154823   0.745   2.451  14.565  0.7631 -0.1997  0.2088
11136TIP3    H254824   0.798   2.414  14.427  3.1287 -0.4297  1.1466
11137TIP3   OH254825   0.144   4.511   2.815  0.5656  0.4704 -0.3515
11137TIP3    H154826   0.223   4.465   2.785  0.3146 -1.6515  2.0077
11137TIP3    H254827   0.138   4.489   2.908 -2.5851  0.9006 -0.3966
11138TIP3   OH254828   3.476   1.508   5.859  0.5078  0.0561  0.2192
11138TIP3    H154829   3.551   1.458   5.892 -0.0326 -0.6089  0.4321
11138TIP3    H254830   3.429   1.536   5.937 -0.9946 -1.8558  0.0259
11139TIP3   OH254831   4.590   0.312  14.253 -1.0614  0.4407  0.2889
11139TIP3    H154832   4.627   0.242  14.307 -2.9905 -1.4012 -0.7129
11139TIP3    H254833   4.499   0.288  14.240 -1.4963  2.5880 -1.0115
11140TIP3   OH254834   2.792   5.492  16.496  0.8379 -0.6498  0.0347
11140TIP3    H154835   2.808   5.511  16.404  0.5224 -0.2071  0.0703
11140TIP3    H254836   2.763   5.401  16.497  0.7467 -0.6233 -0.3099
11141TIP3   OH254837   4.434   2.105  11.846 -0.3898  0.2475  0.0539
11141TIP3    H154838   4.427   2.084  11.753 -0.8872  2.2680 -0.4070
11141TIP3    H254839   4.371   2.047  11.888 -2.2089  1.2266 -1.2248
11142TIP3   OH254840   4.083   5.754  13.550  0.1005  0.1993 -0.1178
11142TIP3    H154841   4.074   5.827  13.612  0.2766 -1.2304  1.6441
11142TIP3    H254842   4.008   5.698  13.569  1.2065 -1.2253  0.1496
11143TIP3   OH254843   3.370   0.991  16.596 -0.0042 -0.8165  0.4540
11143TIP3    H154844   3.283   0.991  16.555  0.1463  3.4769 -0.0445
11143TIP3    H254845   3.428   0.952  16.531 -1.4112 -3.3826  0.6495
11144TIP3   OH254846   0.390   5.112  13.885 -0.2447  0.4193  0.4664
11144TIP3    H154847   0.420   5.050  13.818 -0.0043 -0.5838  1.4784
11144TIP3    H254848   0.412   5.198  13.850  0.2857 -0.1167 -0.5486
11145TIP3   OH254849   2.890   2.163  12.288  0.0109  0.1998 -1.1000
11145TIP3    H154850   2.930   2.079  12.314 -0.2625  0.4641  0.2080
11145TIP3    H254851   2.796   2.150  12.304 -0.2656  0.1300 -2.6638
11146TIP3   OH254852   2.445   6.128  11.294  0.2779 -0.2794 -0.2503
11146TIP3    H154853   2.473   6.101  11.381  0.5719 -2.4573 -0.9888
11146TIP3    H254854   2.462   6.052  11.239  0.1534  1.0893 -2.2289
11147TIP3   OH254855   0.389   2.276  13.011 -0.1592 -0.1615 -0.6917
11147TIP3    H154856   0.386   2.183  12.987 -0.6380 -0.5272  0.7492
11147TIP3    H254857   0.480   2.290  13.039 -0.2311 -0.3363 -0.3673
11148TIP3   OH254858   5.312   1.256  15.681  0.3571 -0.2869  0.5903
11148TIP3    H154859   5.281   1.175  15.641  1.8245  0.3084 -1.8401
11148TIP3    H254860   5.406   1.257  15.664  0.5809  1.3039  1.7714
11149TIP3   OH254861   6.554   3.005   3.627  0.4857  0.1050  0.0047
11149TIP3    H154862   6.604   3.086   3.623  0.8647 -0.1940 -1.6474
11149TIP3    H254863   6.462   3.033   3.629  0.6079  0.5720 -0.7503
11150TIP3   OH254864   2.796   5.970   1.910  0.3004  0.4322  0.0505
11150TIP3    H154865   2.707   5.938   1.923 -0.2190  0.5186 -2.8685
11150TIP3    H254866   2.847   5.929   1.979 -1.7552 -0.6635  0.9606
11151TIP3   OH254867   1.805   2.997  15.069  0.2608  0.0945 -0.1874
11151TIP3    H154868   1.831   3.088  15.086  0.0921  0.0553  0.2660
11151TIP3    H254869   1.732   2.981  15.128 -0.3879 -0.0008 -1.0174
11152TIP3   OH254870   6.321   6.352  14.163 -0.2179  0.0163  0.5367
11152TIP3    H154871   6.236   6.361  14.118  0.1119  1.0789  0.1103
11152TIP3    H254872   6.349   6.442  14.178  1.7275 -0.3047 -1.0389
11153TIP3   OH254873   4.240   3.690   3.347 -0.7615  0.1475  0.5177
11153TIP3    H154874   4.211   3.772   3.308 -1.4516  0.7503  2.2776
11153TIP3    H254875   4.289   3.646   3.277 -2.6809  0.8248 -1.2772
11154TIP3   OH254876   0.047   1.405   0.570  0.2878  0.4104 -0.1259
11154TIP3    H154877  -0.043   1.432   0.588  0.1010  0.5169 -1.2058
11154TIP3    H254878   0.095   1.432   0.648 -0.2169  2.2952 -0.4380
11155TIP3   OH254879   0.738   0.582  14.613 -0.1230 -0.3177  0.1970
11155TIP3    H154880   0.703   0.610  14.529 -1.1588 -2.1657 -0.0295
11155TIP3    H254881   0.830   0.607  14.611 -0.3518  0.4306 -1.1266
11156TIP3   OH254882   1.861   5.269   1.382 -0.2598  0.7304  0.2929
11156TIP3    H154883   1.821   5.343   1.337 -3.8856  0.7178  3.2888
11156TIP3    H254884   1.913   5.308   1.451 -0.3339  0.5439  0.4536
11157TIP3   OH254885   0.664   4.027  13.889 -0.6283  0.0648 -0.0978
11157TIP3    H154886   0.722   3.962  13.929  0.6017  1.0502 -0.2450
11157TIP3    H254887   0.645   4.089  13.960 -0.6541  0.3232 -0.3301
11158TIP3   OH254888   5.305   1.536   1.177  0.2882  0.3035 -0.0184
11158TIP3    H154889   5.300   1.519   1.082 -1.9627 -1.5249  0.3746
11158TIP3    H254890   5.346   1.458   1.213 -1.5768 -0.3157  0.8156
11159TIP3   OH254891   5.898   3.523   0.546  0.8094 -0.0045 -0.1255
11159TIP3    H154892   5.922   3.471   0.623 -1.4878  0.6971  1.0918
11159TIP3    H254893   5.848   3.462   0.491 -0.3237  0.3885  0.4575
11160TIP3   OH254894   1.282   5.079   1.817  0.6286  0.0892  0.1773
11160TIP3    H154895   1.302   5.040   1.902  1.2266 -0.6127 -0.2804
11160TIP3    H254896   1.269   5.172   1.836  0.7864 -0.0596  1.0309
11161TIP3   OH254897   0.809   2.693  13.344  0.0932 -0.8126 -0.1589
11161TIP3    H154898   0.859   2.759  13.296 -0.3264 -0.7264 -0.4893
11161TIP3    H254899   0.784   2.630  13.277 -1.5984 -0.0218 -0.3071
11162TIP3   OH254900   4.985   6.179   3.945 -0.8025 -0.0154  0.6196
11162TIP3    H154901   4.974   6.084   3.943  1.0607 -0.2271 -0.8658
11162TIP3    H254902   5.048   6.195   4.014  1.4352 -0.1802 -1.3251
11163TIP3   OH254903   6.129   0.267  10.896  0.2515  0.1669 -0.5455
11163TIP3    H154904   6.218   0.279  10.862  1.5332 -0.2616  2.4717
11163TIP3    H254905   6.094   0.194  10.846  2.1175 -0.5211 -0.8815
11164TIP3   OH254906   0.677   5.349  15.436 -0.5675 -0.5040 -0.7540
11164TIP3    H154907   0.644   5.407  15.368 -1.0106  0.3172  0.1609
11164TIP3    H254908   0.668   5.261  15.399 -0.8794 -0.0689 -1.7187
11165TIP3   OH254909   5.452   5.786  13.077 -0.0769 -0.5620  0.2105
11165TIP3    H154910   5.454   5.702  13.032  1.8544  0.6643 -2.1093
11165TIP3    H254911   5.543   5.815  13.079 -0.6894  1.4147  1.0872
11166TIP3   OH254912   2.628   0.211   4.588  0.2722  0.3800  0.1732
11166TIP3    H154913   2.573   0.134   4.578 -0.5031  1.0217 -0.6223
11166TIP3    H254914   2.572   0.284   4.561  1.5026  1.0432 -0.6413
11167TIP3   OH254915   1.819   3.696  16.648  0.3906  0.0642 -0.3488
11167TIP3    H154916   1.894   3.750  16.619  1.3764 -0.6976  0.7445
11167TIP3    H254917   1.858   3.612  16.671 -0.7576 -0.2173  0.5936
11168TIP3   OH254918   0.504   0.506   0.960 -0.4469  0.1934  0.0303
11168TIP3    H154919   0.507   0.421   0.915  1.0909 -0.3492  1.1272
11168TIP3    H254920   0.416   0.539   0.942 -1.2993 -1.9265  0.1224
11169TIP3   OH254921   3.222   4.579  11.690  0.3770  0.5561 -0.4240
11169TIP3    H154922   3.186   4.499  11.653 -0.5140  0.6267  0.2411
11169TIP3    H254923   3.274   4.550  11.765 -1.5534  0.7118  1.0150
11170TIP3   OH254924   6.091   2.278  17.066  0.0924  0.2432  0.0866
11170TIP3    H154925   6.101   2.197  17.016 -1.8289  0.7532 -1.1740
11170TIP3    H254926   6.150   2.268  17.140  1.6981 -1.2678 -1.3647
11171TIP3   OH254927   4.407   2.916  14.632 -0.1746  0.3982  0.5324
11171TIP3    H154928   4.486   2.952  14.592  0.1685  1.3238  2.0233
11171TIP3    H254929   4.433   2.830  14.665 -0.4345 -0.3293 -1.1285
11172TIP3   OH254930   2.596   2.661  11.016  0.0869  0.3027 -0.3250
11172TIP3    H154931   2.652   2.610  10.958  0.8325 -2.0802  2.3760
11172TIP3    H254932   2.513   2.669  10.968  0.5001 -2.0288 -1.5041
11173TIP3   OH254933   1.933   3.442   1.658  0.1055  0.6362  0.6495
11173TIP3    H154934   1.995   3.516   1.657  0.0654  0.7154  2.1348
11173TIP3    H254935   1.920   3.420   1.566  0.4197  2.2374  0.2064
11174TIP3   OH254936   6.653   4.591   1.312 -0.0395  0.8154  0.0775
11174TIP3    H154937   6.729   4.544   1.279 -0.2118  1.1427 -0.7897
11174TIP3    H254938   6.582   4.569   1.251 -0.7648  0.1130  1.1600
11175TIP3   OH254939   2.164   2.174  12.903  0.7547  0.3444 -0.3094
11175TIP3    H154940   2.178   2.090  12.859  0.2038 -0.3463  0.8056
11175TIP3    H254941   2.092   2.157  12.964  1.2823  1.3742  0.6150
11176TIP3   OH254942   0.646   2.028   4.284  0.1269 -0.7617  0.5903
11176TIP3    H154943   0.621   2.053   4.194  0.5702  2.0755  1.2266
11176TIP3    H254944   0.569   1.981   4.317 -0.2281 -1.4214 -1.1018
11177TIP3   OH254945   2.465   1.041  17.050  0.5026 -0.0447 -0.4428
11177TIP3    H154946   2.502   0.986  17.119  0.3110  0.9134  0.4263
11177TIP3    H254947   2.427   1.116  17.096 -2.3925 -0.9094 -1.3046
11178TIP3   OH254948   6.011   4.913   1.866  0.0159 -0.1564 -0.0261
11178TIP3    H154949   6.032   4.828   1.906 -1.2948 -0.3084  0.3726
11178TIP3    H254950   6.083   4.970   1.892  0.2817 -0.8240  0.7333
11179TIP3   OH254951   6.278   0.832   5.479  0.5107  0.2706 -0.3539
11179TIP3    H154952   6.324   0.808   5.399  2.1751 -1.9432  1.2148
11179TIP3    H254953   6.333   0.900   5.518  0.7530 -0.0597 -0.1149
11180TIP3   OH254954   0.990   2.082   6.410  0.2755 -0.4042 -0.0803
11180TIP3    H154955   1.016   2.011   6.469  1.1181 -0.1439 -0.1287
11180TIP3    H254956   0.956   2.038   6.332  0.6135 -0.7571 -0.0298
11181TIP3   OH254957   6.391   5.728   0.792  0.1983 -0.2587 -0.2429
11181TIP3    H154958   6.456   5.659   0.808  1.3210  0.8267 -0.0558
11181TIP3    H254959   6.372   5.763   0.879  0.5288  0.4728 -0.4645
11182TIP3   OH254960   5.385   2.058   4.769 -0.5794  0.5848 -0.0727
11182TIP3    H154961   5.368   1.983   4.826 -1.2188  0.6470 -0.1783
11182TIP3    H254962   5.315   2.055   4.704  0.6253  0.0219 -1.3699
11183TIP3   OH254963   0.364   4.016  13.043 -0.0963 -0.1657 -0.5332
11183TIP3    H154964   0.276   3.989  13.068  0.2070  1.2111  2.2285
11183TIP3    H254965   0.365   4.111  13.056  2.4271 -0.4283  1.7343
11184TIP3   OH254966   3.693   4.541   4.825 -0.2770  0.4647 -0.1340
11184TIP3    H154967   3.648   4.619   4.791 -0.9036 -0.5721 -1.7808
11184TIP3    H254968   3.623   4.477   4.836  0.0726  0.4574  2.2628
11185TIP3   OH254969   5.121   5.810  11.888  0.1039 -1.0927  0.2964
11185TIP3    H154970   5.061   5.844  11.822 -0.2840  0.2640  1.3323
11185TIP3    H254971   5.093   5.720  11.901 -0.3456 -1.1201 -0.7746
11186TIP3   OH254972   4.019   6.332   1.641  0.0966  0.7136  0.2771
11186TIP3    H154973   4.083   6.265   1.667 -1.9529 -1.6045 -0.3743
11186TIP3    H254974   3.986   6.301   1.556 -1.2069  2.3354  0.1680
11187TIP3   OH254975   4.871   5.584   5.603  0.5461 -0.7608 -0.5008
11187TIP3    H154976   4.832   5.667   5.628  2.2537 -0.1486  0.1850
11187TIP3    H254977   4.818   5.518   5.648 -0.4633 -0.0216 -0.5986
11188TIP3   OH254978   4.797   2.988   2.174 -0.0855 -0.6138  0.1082
11188TIP3    H154979   4.790   3.043   2.096 -2.2463 -0.9974  0.0046
11188TIP3    H254980   4.761   3.042   2.245 -1.2054 -1.4586  0.2040
11189TIP3   OH254981   6.160   3.772   4.012  0.2266 -0.0503  0.7055
11189TIP3    H154982   6.229   3.839   4.009  1.6600 -1.5262  0.4567
11189TIP3    H254983   6.207   3.689   4.018 -1.5625 -1.0092  1.6357
11190TIP3   OH254984   4.112   1.448  12.495  0.0251 -0.2583  0.5936
11190TIP3    H154985   4.110   1.463  12.400  0.2878  2.0469  0.9350
11190TIP3    H254986   4.167   1.518  12.529  0.8002 -1.7069  2.3624
11191TIP3   OH254987   1.177   3.877   4.126 -0.5066 -0.1360 -0.2363
11191TIP3    H154988   1.093   3.895   4.168 -1.1871 -1.4755 -0.9986
11191TIP3    H254989   1.175   3.783   4.107  0.4760  0.1317 -1.7469
11192TIP3   OH254990   6.451   5.813  14.794 -0.7116  0.0305  0.3415
11192TIP3    H154991   6.425   5.721  14.797  0.5746 -0.3304  0.8021
11192TIP3    H254992   6.481   5.833  14.883  1.6281  0.0905 -0.4333
11193TIP3   OH254993   2.068   0.942   4.238 -0.0737 -0.2856  0.0349
11193TIP3    H154994   1.988   0.995   4.238  0.2288  0.1738 -0.3034
11193TIP3    H254995   2.132   0.997   4.283  0.5302  0.0690 -1.2430
11194TIP3   OH254996   2.265   3.809   1.230  0.4131  0.1122 -0.2593
11194TIP3    H154997   2.199   3.756   1.186  1.4920 -0.4264 -1.2694
11194TIP3    H254998   2.341   3.751   1.239  1.1248  1.0497 -0.1064
11195TIP3   OH254999   4.324   0.579  15.958  0.3685 -0.1234 -0.5662
11195TIP3    H155000   4.383   0.635  16.009  0.7050  1.2521 -2.4358
11195TIP3    H255001   4.275   0.640  15.903 -0.7751 -1.5107 -1.1103
11196TIP3   OH255002   5.793   1.279  16.702 -0.0796  0.2769 -0.1881
11196TIP3    H155003   5.853   1.291  16.629  0.9302  1.6178  0.8403
11196TIP3    H255004   5.794   1.363  16.748 -1.0005 -0.4218  1.1407
11197TIP3   OH255005   2.348   4.912   2.816  0.3030  0.2100 -0.0091
11197TIP3    H155006   2.415   4.920   2.748  0.5040 -2.5201 -0.1881
11197TIP3    H255007   2.394   4.931   2.897  0.8045  0.3724 -0.3304
11198TIP3   OH255008   0.771   1.783   5.839 -0.4656 -0.4903 -0.5691
11198TIP3    H155009   0.758   1.859   5.896  1.8932  0.9096 -1.8245
11198TIP3    H255010   0.699   1.724   5.862 -0.3229  0.5638  2.9481
11199TIP3   OH255011   5.856   5.510  13.892 -0.5407 -0.4460  0.2126
11199TIP3    H155012   5.851   5.432  13.948 -1.2950  1.1043  2.3948
11199TIP3    H255013   5.897   5.577  13.948 -1.8283  1.3135 -0.8872
11200TIP3   OH255014   6.212   1.204  16.597  0.7144 -0.0217 -0.4014
11200TIP3    H155015   6.178   1.209  16.687  0.4245  1.4986 -0.5736
11200TIP3    H255016   6.219   1.295  16.569  0.7397 -0.4787 -1.9523
11201TIP3   OH255017   1.440   3.209  14.937  0.0152 -0.0042  0.4307
11201TIP3    H155018   1.390   3.273  14.885 -0.0692  0.5214  1.1598
11201TIP3    H255019   1.375   3.172  14.997  0.2396 -0.1926  0.5541
11202TIP3   OH255020   4.374   0.273   5.947  0.1119 -0.3901 -0.2325
11202TIP3    H155021   4.294   0.222   5.945  0.1481 -0.4113 -1.8191
11202TIP3    H255022   4.384   0.306   5.858  1.3980  0.3371  0.1615
11203TIP3   OH255023   1.101   4.514  12.371  0.5024 -0.0365 -0.1739
11203TIP3    H155024   1.126   4.599  12.406 -0.2555  0.8699 -1.7710
11203TIP3    H255025   1.174   4.489  12.314 -0.5408  0.9164 -1.9760
11204TIP3   OH255026   5.239   2.798  12.276  0.1022  0.0968  0.3508
11204TIP3    H155027   5.308   2.794  12.342 -0.7357  1.0392  1.3339
11204TIP3    H255028   5.226   2.708  12.248  0.9933 -0.2149  0.9314
11205TIP3   OH255029   4.964   3.751   0.238 -0.1902  0.1717 -0.3950
11205TIP3    H155030   4.896   3.700   0.195 -0.2767  0.1412 -0.2208
11205TIP3    H255031   4.952   3.734   0.331 -0.3964  0.7300 -0.3186
11206TIP3   OH255032   4.279   1.118  12.738 -0.5735 -0.0399 -0.0677
11206TIP3    H155033   4.216   1.183  12.771 -1.5457 -2.1281  2.3175
11206TIP3    H255034   4.258   1.111  12.645 -1.6005  1.7929 -0.0241
11207TIP3   OH255035   4.910   2.462  14.839  0.4945  0.9742 -0.6325
11207TIP3    H155036   4.903   2.401  14.765  0.3475  0.6782 -0.3790
11207TIP3    H255037   4.992   2.438  14.882 -1.5455 -1.8766  1.9304
11208TIP3   OH255038   6.650   3.403   3.828 -0.0858  0.3661  0.1051
11208TIP3    H155039   6.590   3.376   3.759  1.6529 -0.9125 -0.9670
11208TIP3    H255040   6.646   3.498   3.828 -0.6906  0.3546 -1.2390
11209TIP3   OH255041   6.179   3.922   4.620  0.2154 -0.8722  0.0907
11209TIP3    H155042   6.228   3.932   4.538 -0.9162  0.1347 -0.4642
11209TIP3    H255043   6.099   3.971   4.607 -0.1975 -1.1027  1.6376
11210TIP3   OH255044   2.144   1.769  11.391 -0.6067  0.0466 -0.5828
11210TIP3    H155045   2.116   1.783  11.301  0.6625  0.6378 -0.8926
11210TIP3    H255046   2.064   1.778  11.443 -1.4689 -0.9445 -1.6946
11211TIP3   OH255047   4.823   0.072   2.583 -0.0679 -0.0062 -0.1876
11211TIP3    H155048   4.802   0.162   2.560  0.5192  0.2542  0.2773
11211TIP3    H255049   4.785   0.060   2.670  0.5919  0.0635  0.1115
11212TIP3   OH255050   3.585   1.293   1.334  0.2854 -0.4062 -0.1916
11212TIP3    H155051   3.544   1.273   1.249  0.6639 -0.4244 -0.3694
11212TIP3    H255052   3.668   1.246   1.333  1.4095  1.5129 -0.8182
11213TIP3   OH255053   1.489   3.708   5.032 -0.7698 -0.7766  0.2115
11213TIP3    H155054   1.578   3.742   5.027 -0.2929 -2.0749 -0.4573
11213TIP3    H255055   1.473   3.695   5.126 -0.1368 -0.8217  0.3113
11214TIP3   OH255056   1.314   0.710   1.920  0.0155  0.3759  0.4155
11214TIP3    H155057   1.347   0.620   1.915 -0.2048  0.2612  0.9685
11214TIP3    H255058   1.224   0.700   1.950 -0.0660  0.7707  0.2925
11215TIP3   OH255059   3.803   6.130  13.022  0.3856  0.0981 -0.0386
11215TIP3    H155060   3.765   6.053  13.066  1.1363 -0.2674 -0.0091
11215TIP3    H255061   3.729   6.175  12.983  0.0260 -1.1277 -0.7962
11216TIP3   OH255062   5.201   0.404  16.559  0.3489  0.5594 -0.2786
11216TIP3    H155063   5.112   0.375  16.538  1.3918 -0.7916 -3.0909
11216TIP3    H255064   5.211   0.487  16.511  0.6930  0.5810 -0.1745
11217TIP3   OH255065   4.468   6.530  15.426 -0.1256 -0.4033  0.0928
11217TIP3    H155066   4.560   6.505  15.436 -0.1705 -0.2181  1.0737
11217TIP3    H255067   4.468   6.626  15.435 -0.3449 -0.3553 -0.4339
11218TIP3   OH255068   1.193   5.019   0.598 -0.6675 -0.2613 -0.6770
11218TIP3    H155069   1.277   4.999   0.640 -0.9005 -1.0964 -0.6075
11218TIP3    H255070   1.153   5.085   0.654  0.2680  0.6984 -1.1081
11219TIP3   OH255071   3.368   3.522  15.043 -0.3304  0.2202 -0.1164
11219TIP3    H155072   3.442   3.550  15.097 -1.3109 -1.7348  2.3088
11219TIP3    H255073   3.292   3.565  15.082 -0.6448  1.4752 -2.0375
11220TIP3   OH255074   6.602   2.586   6.649  0.1332 -0.1889  0.3995
11220TIP3    H155075   6.627   2.675   6.672 -0.3295 -0.4514  1.9834
11220TIP3    H255076   6.675   2.532   6.680  0.8926 -0.2891 -1.4784
11221TIP3   OH255077   2.631   0.829  12.274  1.0561 -0.3839  0.6578
11221TIP3    H155078   2.645   0.889  12.200 -1.5415  1.3157  1.4997
11221TIP3    H255079   2.646   0.742  12.237 -0.1951  0.4251 -1.8799
11222TIP3   OH255080   1.776   1.304  11.311  0.4847  0.0796  0.6451
11222TIP3    H155081   1.756   1.376  11.251  2.0027  0.4163  0.5380
11222TIP3    H255082   1.798   1.231  11.254 -0.3308 -0.2682  0.7675
11223TIP3   OH255083   0.710   3.417   2.206  0.2571 -0.1050 -0.0944
11223TIP3    H155084   0.666   3.468   2.137  0.0988 -0.4278 -0.2330
11223TIP3    H255085   0.799   3.405   2.173  0.4636  0.5628  0.1936
11224TIP3   OH255086   0.789   1.535   0.960  1.0063  0.1080 -1.0605
11224TIP3    H155087   0.706   1.582   0.963  0.4159 -0.9892  0.5142
11224TIP3    H255088   0.771   1.458   0.906  0.3722 -1.2445  1.0188
11225TIP3   OH255089   3.252   0.090   5.053  0.4168  0.3824  0.4000
11225TIP3    H155090   3.220   0.029   4.987  0.3877  0.6943  0.1260
11225TIP3    H255091   3.318   0.143   5.008  0.3888  0.6032  0.6164
11226TIP3   OH255092   2.359   0.042   3.301  1.0645 -0.2452  0.1721
11226TIP3    H155093   2.297   0.114   3.307  0.4252 -0.7689 -0.1252
11226TIP3    H255094   2.428   0.064   3.364  0.0144 -0.2133  1.3245
11227TIP3   OH255095   6.562   5.058  15.459 -0.6842  0.2347  0.4550
11227TIP3    H155096   6.641   5.111  15.452 -0.3089  0.0788  3.1094
11227TIP3    H255097   6.595   4.968  15.467 -1.2350 -0.1046 -0.8515
11228TIP3   OH255098   2.771   0.396   0.014 -0.3235 -0.4838  0.7573
11228TIP3    H155099   2.837   0.332  -0.013  2.1859  2.4264 -0.2673
11228TIP3    H255100   2.691   0.369  -0.032  1.4352 -1.1948 -2.0055
11229TIP3   OH255101   5.807   1.044   5.199  0.0401  0.1307  0.5724
11229TIP3    H155102   5.868   1.005   5.136 -0.8623  0.4750 -0.5296
11229TIP3    H255103   5.724   1.002   5.179 -0.3228  0.5183  1.2939
11230TIP3   OH255104   4.689   0.225   4.619  0.0946 -0.4024  0.0441
11230TIP3    H155105   4.635   0.162   4.571 -0.1315 -1.2791  1.4295
11230TIP3    H255106   4.775   0.183   4.623  0.3216  0.0293 -0.2890
11231TIP3   OH255107   2.440   2.687  11.260  0.0784  0.2916 -0.0781
11231TIP3    H155108   2.406   2.776  11.266  1.2842  0.6612  1.3659
11231TIP3    H255109   2.491   2.685  11.179  1.8054  1.5139  0.9738
11232TIP3   OH255110   1.369   3.955  11.825 -0.7719 -0.2886 -0.0107
11232TIP3    H155111   1.364   3.882  11.887  0.9009  0.6399  1.2545
11232TIP3    H255112   1.453   3.943  11.781  0.2360  1.7243  1.3087
11233TIP3   OH255113   5.146   3.543   0.026  0.8731  0.1522 -0.2133
11233TIP3    H155114   5.219   3.602   0.043  0.5571 -0.1654  2.4975
11233TIP3    H255115   5.117   3.515   0.113 -2.0390 -0.2653 -1.2608
11234TIP3   OH255116   0.102   2.366  11.153 -0.4633  0.1242 -0.3695
11234TIP3    H155117   0.090   2.448  11.106  1.5521  0.3975 -0.4368
11234TIP3    H255118   0.060   2.381  11.237  1.2381  1.8204  0.2326
11235TIP3   OH255119   1.795   5.221   3.900  0.3328  0.0041  0.4334
11235TIP3    H155120   1.776   5.286   3.968 -1.1186  0.0380  0.0241
11235TIP3    H255121   1.734   5.149   3.917 -0.9030  0.5310 -1.5222
11236TIP3   OH255122   2.455   3.158   3.414 -0.2814  0.8737 -0.3242
11236TIP3    H155123   2.525   3.158   3.350  1.8974  1.0333  1.9640
11236TIP3    H255124   2.429   3.249   3.423 -1.5006  0.6972 -1.8933
11237TIP3   OH255125   6.076   0.209   2.923 -1.1934 -0.0783 -0.3266
11237TIP3    H155126   6.112   0.127   2.890 -0.6173 -0.7088  1.8432
11237TIP3    H255127   6.129   0.277   2.880  1.1463 -0.9428  1.1224
11238TIP3   OH255128   0.891   2.102  13.735 -0.5589  0.2659 -0.2129
11238TIP3    H155129   0.814   2.153  13.761 -0.9212  0.2532 -1.2520
11238TIP3    H255130   0.862   2.011  13.737 -0.2145  0.1691  0.6021
11239TIP3   OH255131   2.500   1.409   3.203  0.1259 -0.1634  1.2658
11239TIP3    H155132   2.582   1.423   3.251  2.1603 -1.9043 -1.5430
11239TIP3    H255133   2.502   1.475   3.134 -1.0172 -0.0176  1.3700
11240TIP3   OH255134   4.884   1.996  10.862  0.3844 -0.1408 -0.2372
11240TIP3    H155135   4.851   1.977  10.774  0.9401  3.7156 -1.3781
11240TIP3    H255136   4.934   2.076  10.851 -0.2961  0.9094  3.7909
11241TIP3   OH255137   2.311   1.819   4.227 -0.1548 -0.1948  0.1264
11241TIP3    H155138   2.256   1.800   4.303 -1.4762  0.9534 -0.5109
11241TIP3    H255139   2.347   1.734   4.202  0.6180 -0.5095  2.2635
11242TIP3   OH255140   1.623   5.778   4.274  0.2945  0.0390 -0.0216
11242TIP3    H155141   1.556   5.710   4.262 -0.0183  0.4242 -0.4940
11242TIP3    H255142   1.680   5.769   4.197  0.7854 -0.2918  0.3848
11243TIP3   OH255143   1.813   4.283  12.754 -0.0942 -0.0225 -0.0643
11243TIP3    H155144   1.886   4.261  12.695 -0.2813  0.0488 -0.3263
11243TIP3    H255145   1.813   4.378  12.757 -1.3355  0.0448 -1.5573
11244TIP3   OH255146   2.347   3.509  12.544  0.2822 -0.3532 -0.5819
11244TIP3    H155147   2.441   3.524  12.550  0.0477  0.6816  0.9549
11244TIP3    H255148   2.308   3.593  12.570 -1.0492 -1.2933  0.5441
11245TIP3   OH255149   2.363   2.842   1.899 -0.0661 -0.6268 -0.1363
11245TIP3    H155150   2.450   2.862   1.865  0.5879  0.7532  2.2656
11245TIP3    H255151   2.376   2.824   1.992 -2.2917 -0.7019  0.1962
11246TIP3   OH255152   2.483   1.735   4.579  0.6738  0.6227 -0.7668
11246TIP3    H155153   2.512   1.685   4.502  1.9054 -0.8103  0.5885
11246TIP3    H255154   2.408   1.786   4.548 -1.0261 -2.5380 -2.0613
11247TIP3   OH255155   1.225   3.837   2.009 -0.0771  0.4194  0.5428
11247TIP3    H155156   1.270   3.852   1.925  0.2930  0.9106  0.8230
11247TIP3    H255157   1.276   3.769   2.052  0.7453  1.3642  1.1012
11248TIP3   OH255158   4.831   6.721  12.650 -0.1176 -0.4258  0.2883
11248TIP3    H155159   4.878   6.638  12.660 -1.8016 -1.3479  0.6753
11248TIP3    H255160   4.797   6.718  12.560 -2.9236 -1.6517  1.3228
11249TIP3   OH255161   3.316   1.764   0.164  0.2479 -0.0182  0.2056
11249TIP3    H155162   3.259   1.794   0.094 -0.7535 -0.3860  0.8507
11249TIP3    H255163   3.381   1.833   0.174 -0.7708  0.9386  0.2489
11250TIP3   OH255164   6.229   5.132  13.974 -0.4641  0.5091  0.5196
11250TIP3    H155165   6.293   5.095  14.035 -1.9075  0.2563  1.9068
11250TIP3    H255166   6.187   5.202  14.024 -2.0697 -0.0852  0.0229
11251TIP3   OH255167   5.571   4.801  12.002  0.8767 -0.1018  0.7393
11251TIP3    H155168   5.576   4.831  11.911 -2.0737 -0.8278  0.2691
11251TIP3    H255169   5.550   4.880  12.052 -0.3767 -0.1727  0.3636
11252TIP3   OH255170   5.003   4.223   0.875 -0.1508 -0.1218  0.4156
11252TIP3    H155171   5.073   4.266   0.826 -0.7727 -1.2582 -1.4964
11252TIP3    H255172   4.954   4.173   0.810 -2.4612  0.2508  1.8047
11253TIP3   OH255173   5.117   2.607   2.803 -0.0097  0.0826 -1.0512
11253TIP3    H155174   5.082   2.695   2.791 -0.8929 -0.0916  0.0774
11253TIP3    H255175   5.212   2.619   2.803 -0.0725  0.7339 -2.9449
11254TIP3   OH255176   2.148   3.152   4.614 -0.3258  0.1205  0.4851
11254TIP3    H155177   2.203   3.200   4.676  0.6379 -0.8554  0.4003
11254TIP3    H255178   2.146   3.208   4.536  0.5743  0.1541  0.4772
11255TIP3   OH255179   6.236   0.416   3.511 -0.4363  0.3200  0.2829
11255TIP3    H155180   6.202   0.349   3.570 -1.2882  0.7182  0.2509
11255TIP3    H255181   6.222   0.499   3.557 -0.6086  0.5890 -0.2433
11256TIP3   OH255182   5.664   2.341   0.075  0.4864 -0.9682  0.3618
11256TIP3    H155183   5.722   2.278   0.032  1.1904 -1.0702  1.4456
11256TIP3    H255184   5.723   2.399   0.123 -0.2435 -0.3236  0.4876
11257TIP3   OH255185   6.489   1.704   6.208 -0.5446 -0.1410 -0.1248
11257TIP3    H155186   6.471   1.786   6.163  0.4140 -1.1062 -2.3720
11257TIP3    H255187   6.556   1.726   6.273 -0.2369  0.8565 -0.7607
11258TIP3   OH255188   0.523   5.626   0.774  0.0046  0.4302  0.0148
11258TIP3    H155189   0.469   5.610   0.851 -0.5984  2.0841 -0.0441
11258TIP3    H255190   0.570   5.544   0.760 -1.6478 -0.6613  0.7417
11259TIP3   OH255191   1.178   3.434  16.308 -0.3674 -0.4626 -0.1997
11259TIP3    H155192   1.232   3.457  16.232 -0.4826  0.2814 -0.0568
11259TIP3    H255193   1.213   3.350  16.338  0.5585 -0.0955 -0.2504
11260TIP3   OH255194   5.150   0.943  10.709 -0.3199  0.1289 -0.1064
11260TIP3    H155195   5.179   0.896  10.788 -2.2689 -1.7482 -0.4593
11260TIP3    H255196   5.220   1.005  10.691  0.5251  0.0687  2.6759
11261TIP3   OH255197   4.282   2.543  12.216 -0.9225  0.0714 -0.7907
11261TIP3    H155198   4.341   2.536  12.141  0.4090  0.1877  0.2431
11261TIP3    H255199   4.243   2.456  12.224  1.1700 -0.7879  0.2090
11262TIP3   OH255200   5.204   2.616   5.469  0.8782  0.2782  0.0697
11262TIP3    H155201   5.212   2.572   5.384 -2.0684 -1.8291  0.7946
11262TIP3    H255202   5.216   2.709   5.450 -2.0523  0.0823 -3.0354
11263TIP3   OH255203   2.166   0.802   2.246 -0.1289  0.0368 -0.0611
11263TIP3    H155204   2.094   0.740   2.235 -0.7929  0.6439  0.8546
11263TIP3    H255205   2.228   0.779   2.176 -0.4623 -1.5294  0.1408
11264TIP3   OH255206   6.606   3.979  11.862 -0.2791  0.4702  0.3104
11264TIP3    H155207   6.658   4.010  11.788  0.9440 -1.0892  0.4976
11264TIP3    H255208   6.662   3.915  11.906 -0.1287  2.9070  3.8632
11265TIP3   OH255209   5.046   6.023  17.129  0.1014  0.3787  0.3285
11265TIP3    H155210   5.021   6.104  17.083 -0.8459 -0.4364 -0.6195
11265TIP3    H255211   4.976   6.010  17.193  1.7148  1.8303  2.4767
11266TIP3   OH255212   3.061   3.049   1.159 -0.2850  0.4283  0.7835
11266TIP3    H155213   3.012   3.090   1.087 -0.0933  1.4790  1.2343
11266TIP3    H255214   3.133   3.004   1.116  0.7378  2.3542  0.3951
11267TIP3   OH255215   2.864   2.260   5.325  0.1283  0.3885 -0.2599
11267TIP3    H155216   2.890   2.235   5.237 -1.3926 -3.2140  0.2045
11267TIP3    H255217   2.792   2.323   5.313  1.3236  1.5202 -1.5439
11268TIP3   OH255218   6.769   1.216  13.160  0.1387 -0.3820  0.2342
11268TIP3    H155219   6.753   1.199  13.067 -0.2609 -1.4117  0.4824
11268TIP3    H255220   6.780   1.129  13.199  0.7297  0.0567  1.0770
11269TIP3   OH255221   0.071   6.486   2.319 -0.2895  0.0710 -0.1853
11269TIP3    H155222  -0.001   6.445   2.366 -1.5954 -0.0628 -2.2653
11269TIP3    H255223   0.033   6.565   2.280  0.8190  0.2907 -0.8638
11270TIP3   OH255224   0.985   0.644  11.646 -0.3977 -0.3291  0.7021
11270TIP3    H155225   1.018   0.561  11.613  0.7620  0.2431  0.4173
11270TIP3    H255226   0.896   0.650  11.612  0.4314 -0.2105 -1.4781
11271TIP3   OH255227   5.386   5.166  11.608 -0.5617  0.3431  0.1781
11271TIP3    H155228   5.368   5.072  11.611 -0.4559  0.2897 -0.8937
11271TIP3    H255229   5.481   5.172  11.613 -0.6000  0.4272  0.8761
11272TIP3   OH255230   0.013   3.900  14.539 -0.6680  0.1588 -0.4723
11272TIP3    H155231   0.064   3.822  14.563  0.3136  1.5309  2.0762
11272TIP3    H255232   0.078   3.969  14.530 -1.6458  0.9442 -1.6915
11273TIP3   OH255233   2.407   5.797  15.183  0.0101  0.1603 -0.2729
11273TIP3    H155234   2.473   5.861  15.210  0.6663 -0.0509 -1.3538
11273TIP3    H255235   2.424   5.721  15.238 -0.0861  0.5330  0.2709
11274TIP3   OH255236   5.457   5.728   5.577 -0.3854 -0.3341 -0.2087
11274TIP3    H155237   5.420   5.761   5.659  0.9823  0.2541  0.1708
11274TIP3    H255238   5.491   5.805   5.532  0.2757 -0.8505 -0.6124
11275TIP3   OH255239   4.848   0.534  15.501 -0.2680  0.2388  0.3257
11275TIP3    H155240   4.758   0.530  15.532 -0.2670 -1.2267  0.1601
11275TIP3    H255241   4.861   0.452  15.453  1.1580  0.4167  0.3797
11276TIP3   OH255242   4.007   1.241   0.299 -0.0460 -0.1242  0.4397
11276TIP3    H155243   4.004   1.170   0.235  0.8944 -0.0363  0.2910
11276TIP3    H255244   4.048   1.314   0.252  0.4047  0.0234  1.0615
11277TIP3   OH255245   6.561   2.879  15.968 -0.7640 -0.1487  0.6872
11277TIP3    H155246   6.635   2.934  15.940  0.3152 -1.1647  1.5120
11277TIP3    H255247   6.542   2.908  16.057 -2.3176  1.0865 -0.0119
11278TIP3   OH255248   5.762   3.650  15.223 -0.3815  0.5171 -0.0524
11278TIP3    H155249   5.845   3.692  15.201 -1.0145  1.9138  0.1678
11278TIP3    H255250   5.702   3.675  15.152 -0.7664 -0.0311  0.0701
11279TIP3   OH255251   4.405   2.867  15.834 -0.3986 -0.0705 -0.3130
11279TIP3    H155252   4.495   2.864  15.801  0.6243  0.1808  2.3472
11279TIP3    H255253   4.361   2.796  15.788  1.2444 -0.3859 -1.4444
11280TIP3   OH255254   0.459   0.379  15.567 -0.1166 -0.4028 -0.0118
11280TIP3    H155255   0.545   0.347  15.538  0.2553  0.3853  0.1936
11280TIP3    H255256   0.430   0.437  15.496  1.8490  3.3893  2.0694
11281TIP3   OH255257   3.415   1.928   3.908 -0.2645 -0.0528 -0.4111
11281TIP3    H155258   3.336   1.945   3.960  1.2521 -3.1960  3.2679
11281TIP3    H255259   3.382   1.884   3.829 -2.2923 -0.1010  0.4113
11282TIP3   OH255260   5.383   1.693  13.405  0.9064 -0.0665  0.0324
11282TIP3    H155261   5.388   1.662  13.495  0.6594  0.2031  0.1417
11282TIP3    H255262   5.474   1.705  13.378  0.9748  0.1130  0.3397
11283TIP3   OH255263   2.820   5.884  11.573 -0.1714 -0.5484 -0.1702
11283TIP3    H155264   2.866   5.901  11.491 -0.4079  1.3826  0.0682
11283TIP3    H255265   2.821   5.789  11.583  1.7639 -0.6575 -1.3092
11284TIP3   OH255266   5.125   4.971  15.337  0.2232  0.4009  0.4635
11284TIP3    H155267   5.031   4.972  15.353  0.1426  0.2652  0.0205
11284TIP3    H255268   5.160   5.042  15.390 -0.3443  1.5458 -0.6530
11285TIP3   OH255269   4.455   4.666  12.025 -0.3389 -0.5384 -0.4281
11285TIP3    H155270   4.544   4.651  12.056  1.2308 -0.2779 -4.5028
11285TIP3    H255271   4.431   4.584  11.981 -0.5918  0.6944 -2.6654
11286TIP3   OH255272   2.510   3.026  12.242  0.4703 -0.2338 -0.0523
11286TIP3    H155273   2.445   3.009  12.175  0.8991 -0.9844 -0.2865
11286TIP3    H255274   2.594   3.007  12.200  0.7274 -0.8899  0.7398
11287TIP3   OH255275   0.845   0.106   3.500 -0.0996  0.0335  0.3446
11287TIP3    H155276   0.803   0.104   3.586 -2.1694  1.3196 -0.5820
11287TIP3    H255277   0.927   0.153   3.514  0.1820 -0.9020  1.8586
11288TIP3   OH255278   0.442   2.606   6.443 -0.4860 -0.1789  0.1115
11288TIP3    H155279   0.383   2.623   6.370 -0.4054  0.3779  0.1750
11288TIP3    H255280   0.384   2.594   6.518 -0.5328  0.0315  0.1086
11289TIP3   OH255281   1.678   3.732   0.625 -0.1384 -0.0012  0.2215
11289TIP3    H155282   1.639   3.816   0.648 -0.2147  0.1408 -0.4104
11289TIP3    H255283   1.606   3.683   0.583  0.6590  0.7105 -2.0477
11290TIP3   OH255284   2.787   0.196  15.901 -0.2203 -0.8599 -0.0445
11290TIP3    H155285   2.740   0.159  15.976  0.8567 -0.4358  0.8451
11290TIP3    H255286   2.864   0.238  15.939  0.1507 -0.3380 -1.3559
11291TIP3   OH255287   6.230   0.447   2.803 -0.2014  1.0233 -0.3062
11291TIP3    H155288   6.254   0.534   2.833  0.2501  0.1048  2.1453
11291TIP3    H255289   6.313   0.407   2.776 -0.3801  1.2490 -1.2294
11292TIP3   OH255290   1.856   1.852  13.813  0.0525 -0.1627  0.2240
11292TIP3    H155291   1.845   1.885  13.902  1.9503  0.0341  0.4050
11292TIP3    H255292   1.918   1.780  13.821 -1.0162 -1.1965 -0.7247
11293TIP3   OH255293   4.069   4.735   6.721 -0.4202  0.4019  0.2071
11293TIP3    H155294   4.139   4.758   6.660 -1.5490 -0.2147 -1.3703
11293TIP3    H255295   4.087   4.644   6.745 -0.9374  0.0876 -0.5783
11294TIP3   OH255296   1.872   2.025  11.414  0.5663  0.6746  0.5966
11294TIP3    H155297   1.803   2.087  11.436 -0.4314 -0.3006  0.2304
11294TIP3    H255298   1.950   2.080  11.400 -0.4234  1.8864 -0.2331
11295TIP3   OH255299   4.662   3.394   1.399 -0.2288 -0.2035 -0.4318
11295TIP3    H155300   4.647   3.448   1.321 -1.7338 -0.9371 -0.6671
11295TIP3    H255301   4.756   3.403   1.417 -0.1361  1.0746 -1.5099
11296TIP3   OH255302   0.500   1.511  14.997  0.1084 -0.2893 -0.2389
11296TIP3    H155303   0.490   1.502  15.092  0.1014  1.8510 -0.0179
11296TIP3    H255304   0.580   1.561  14.985 -0.3109  0.1509 -1.3192
11297TIP3   OH255305   1.574   2.018   1.347  0.0788  0.2308  0.2192
11297TIP3    H155306   1.596   1.934   1.387  1.1589  0.8486  0.9421
11297TIP3    H255307   1.617   2.083   1.402 -1.9054  1.3594  0.4607
11298TIP3   OH255308   5.311   2.418   1.539  0.3700 -0.2580  1.1341
11298TIP3    H155309   5.330   2.470   1.461 -0.4164 -1.1113  0.3619
11298TIP3    H255310   5.303   2.328   1.507  2.0256 -0.9342  2.4827
11299TIP3   OH255311   2.784   5.391  12.169 -0.1136 -0.0234  0.0423
11299TIP3    H155312   2.702   5.437  12.152  0.1696  0.7812  0.7837
11299TIP3    H255313   2.780   5.313  12.114 -0.9107  0.5438 -0.7238
11300TIP3   OH255314   3.989   3.599   5.579  0.3725  0.1346 -0.1392
11300TIP3    H155315   3.987   3.695   5.580  1.6966  0.1559  0.5527
11300TIP3    H255316   3.904   3.574   5.615 -0.4184  1.0316 -1.3107
11301TIP3   OH255317   3.450   4.127   1.621  0.5604 -0.7807 -0.2697
11301TIP3    H155318   3.419   4.206   1.578  0.2048 -0.8461 -0.1420
11301TIP3    H255319   3.534   4.107   1.579 -0.4842 -1.7001 -2.0076
11302TIP3   OH255320   2.472   0.575  12.538 -0.4100  0.3638  0.3615
11302TIP3    H155321   2.444   0.622  12.459  0.2721  0.0347 -0.0845
11302TIP3    H255322   2.562   0.548  12.519 -0.5013 -0.3774  0.9522
11303TIP3   OH255323   1.531   6.185   6.048 -0.1337  0.3808 -0.7830
11303TIP3    H155324   1.531   6.090   6.061  2.0511  0.5722  0.8270
11303TIP3    H255325   1.440   6.206   6.025 -1.2384 -1.7548  1.4482
11304TIP3   OH255326   0.298   0.040  12.972 -0.4429  0.2134  0.4861
11304TIP3    H155327   0.344  -0.043  12.956 -0.3651  0.1308  1.1153
11304TIP3    H255328   0.358   0.107  12.941 -0.1164  0.0801  0.8318
11305TIP3   OH255329   6.587   5.490   1.744 -0.3861 -0.3897  0.5328
11305TIP3    H155330   6.572   5.482   1.838  0.2346  0.4069  0.7109
11305TIP3    H255331   6.625   5.406   1.718 -3.3173 -1.7162  0.4231
11306TIP3   OH255332   0.181   0.717   1.140 -0.1411 -1.1058 -0.0120
11306TIP3    H155333   0.146   0.628   1.144 -0.7444 -0.8344  0.7068
11306TIP3    H255334   0.219   0.732   1.226  0.7066 -0.9642 -0.4032
11307TIP3   OH255335   5.228   2.574   4.018 -0.3148 -0.2485  0.2260
11307TIP3    H155336   5.262   2.484   4.014  1.4550  0.3868  0.7007
11307TIP3    H255337   5.306   2.629   4.028 -1.3141  1.4300 -1.0669
11308TIP3   OH255338   5.328   4.819   2.822  0.0939 -0.3475 -0.1512
11308TIP3    H155339   5.297   4.825   2.912  0.7624 -1.6341  0.1857
11308TIP3    H255340   5.319   4.908   2.787  0.6777  0.3701  1.4664
11309TIP3   OH255341   4.787   4.008  11.903  0.4748  0.1147 -0.5123
11309TIP3    H155342   4.827   4.074  11.960  1.3271  0.7644 -1.8473
11309TIP3    H255343   4.801   3.925  11.950  1.4913  0.5902  0.0490
11310TIP3   OH255344   3.669   1.885  14.080  0.9013  0.1265  0.7785
11310TIP3    H155345   3.658   1.817  14.014  1.8365 -1.9272  2.6581
11310TIP3    H255346   3.580   1.918  14.096  0.6796  0.7433 -1.5278
11311TIP3   OH255347   2.104   1.318  14.223  0.3794  0.5440  0.1641
11311TIP3    H155348   2.152   1.237  14.239  0.2152  0.2364 -0.9031
11311TIP3    H255349   2.171   1.386  14.219  0.4458  0.6379  2.0521
11312TIP3   OH255350   5.132   1.587   2.477  0.3029  0.2852  0.1886
11312TIP3    H155351   5.051   1.557   2.518  0.1845  0.0310 -0.2382
11312TIP3    H255352   5.188   1.509   2.474 -1.0560 -0.6094 -3.5419
11313TIP3   OH255353   0.014   5.120  11.539  0.0982 -0.3445  0.2732
11313TIP3    H155354  -0.060   5.059  11.542  1.3512 -1.8158  2.3682
11313TIP3    H255355   0.055   5.112  11.625  2.2413  1.0377 -0.5872
11314TIP3   OH255356   3.931   6.203   3.914 -0.3309  0.2004  0.3083
11314TIP3    H155357   3.982   6.271   3.871 -3.0298  2.4053  0.3878
11314TIP3    H255358   3.917   6.237   4.003  1.2992 -2.1444  1.4798
11315TIP3   OH255359   0.819   2.637  16.997  0.3448 -0.0302  0.0211
11315TIP3    H155360   0.890   2.698  16.978 -0.1292  0.2724 -0.7803
11315TIP3    H255361   0.742   2.677  16.957 -0.3171 -0.2640  1.0428
11316TIP3   OH255362   6.166   5.440  10.815 -0.9280  0.6355 -0.7059
11316TIP3    H155363   6.230   5.373  10.796 -2.2598 -0.6419 -0.7727
11316TIP3    H255364   6.096   5.426  10.751 -1.3940  1.8345 -0.4797
11317TIP3   OH255365   1.886   1.919   0.725  0.0850 -0.4656 -0.0449
11317TIP3    H155366   1.974   1.888   0.745  0.5036  0.6795 -0.0793
11317TIP3    H255367   1.838   1.909   0.807  0.8250  0.8953  0.5625
11318TIP3   OH255368   0.519   4.097  11.649 -0.0189 -0.1757  0.5847
11318TIP3    H155369   0.601   4.052  11.672 -0.4539 -0.6686  1.1988
11318TIP3    H255370   0.478   4.041  11.583  0.7707  0.7551 -0.7258
11319TIP3   OH255371   6.625   1.684  15.299  0.2834  0.3034  0.0326
11319TIP3    H155372   6.635   1.775  15.327  0.9510  0.6130 -1.1919
11319TIP3    H255373   6.539   1.658  15.333  0.7979  0.8651  1.7905
11320TIP3   OH255374   4.562   4.809   1.781 -0.0579  0.0843 -0.2933
11320TIP3    H155375   4.494   4.872   1.805  0.7986  1.0355 -0.3105
11320TIP3    H255376   4.643   4.849   1.813  0.7325 -0.0997 -2.0001
11321TIP3   OH255377   3.227   4.353   5.160 -0.0054  0.3068  0.0186
11321TIP3    H155378   3.202   4.296   5.087 -1.1009  2.4364 -1.3211
11321TIP3    H255379   3.322   4.356   5.157  0.0440 -1.0021 -0.2176
11322TIP3   OH255380   5.105   2.865   5.199 -0.0329  0.2059 -0.0778
11322TIP3    H155381   5.089   2.850   5.105  1.0442  0.2575 -0.2693
11322TIP3    H255382   5.179   2.926   5.202  1.4998 -1.6581  0.8276
11323TIP3   OH255383   3.080   5.418   1.454  0.3337  0.2624  0.0480
11323TIP3    H155384   2.999   5.397   1.407  1.2375 -1.6063 -0.7402
11323TIP3    H255385   3.121   5.486   1.401  0.4973 -0.6022 -0.9731
11324TIP3   OH255386   3.560   2.369   4.594 -0.2877  0.1582  0.0993
11324TIP3    H155387   3.522   2.422   4.664 -1.6162 -0.4570 -0.1317
11324TIP3    H255388   3.573   2.283   4.634  0.3439  0.2066  0.0066
11325TIP3   OH255389   4.321   5.381  11.971 -0.3655 -0.2175 -0.3011
11325TIP3    H155390   4.243   5.406  11.921 -0.6823  1.1402  0.8404
11325TIP3    H255391   4.362   5.314  11.917 -1.6227 -0.0318 -1.5578
11326TIP3   OH255392   4.222   3.588  14.047 -0.3955  0.6767 -0.1241
11326TIP3    H155393   4.136   3.578  14.089  0.3504  0.4613  1.3570
11326TIP3    H255394   4.219   3.527  13.973 -0.9192 -0.5294  0.8675
11327TIP3   OH255395   5.812   6.619   5.421  0.5986 -0.1380  0.6784
11327TIP3    H155396   5.823   6.706   5.459  0.1831  0.3954 -0.4141
11327TIP3    H255397   5.740   6.581   5.471 -0.0957  0.6451  0.2863
11328TIP3   OH255398   6.332   3.584   0.874  0.2413 -0.4033 -0.3641
11328TIP3    H155399   6.274   3.534   0.816  1.8288 -0.8089 -1.6451
11328TIP3    H255400   6.320   3.544   0.960 -1.7861 -0.1067 -0.4959
11329TIP3   OH255401   4.730   1.874   1.619  0.5151  0.3323 -0.3301
11329TIP3    H155402   4.798   1.816   1.653  0.2717  0.7746  0.9256
11329TIP3    H255403   4.768   1.911   1.539  0.4112 -2.0646 -1.5196
11330TIP3   OH255404   1.185   0.945   5.366 -0.4971 -0.0465 -0.2724
11330TIP3    H155405   1.191   0.998   5.286 -0.3988 -0.3123 -0.4431
11330TIP3    H255406   1.095   0.957   5.396 -0.3444  0.5742 -0.0614
11331TIP3   OH255407   5.429   1.128   0.936 -0.0494  0.0666  0.2406
11331TIP3    H155408   5.431   1.061   0.868 -0.9663 -0.1695  0.4453
11331TIP3    H255409   5.521   1.152   0.948  0.1356 -0.0083 -0.9636
11332TIP3   OH255410   5.501   6.785   0.591 -0.2856 -0.0099  0.3805
11332TIP3    H155411   5.495   6.689   0.588  0.1061 -0.0199 -0.3531
11332TIP3    H255412   5.596   6.802   0.591 -0.3321  0.4311 -2.2453
11333TIP3   OH255413   4.219   6.067   6.000 -0.3431 -0.3709 -0.3240
11333TIP3    H155414   4.270   6.066   6.081 -1.7033 -0.5605  0.5347
11333TIP3    H255415   4.277   6.110   5.937  0.5965  0.0972  0.8253
11334TIP3   OH255416   3.133   2.134  13.710 -0.3346  0.9431 -0.3577
11334TIP3    H155417   3.057   2.078  13.695  0.5172 -0.4982  0.5106
11334TIP3    H255418   3.137   2.143  13.805 -0.5352  2.6053 -0.5045
11335TIP3   OH255419   5.651   4.786   3.832  0.1455  0.1006 -0.8431
11335TIP3    H155420   5.702   4.714   3.795  0.7201  0.1424 -0.1389
11335TIP3    H255421   5.600   4.820   3.758  0.1582 -0.7823 -1.2579
11336TIP3   OH255422   3.891   1.602  16.326 -0.0026  0.6546 -0.4054
11336TIP3    H155423   3.972   1.571  16.284 -1.0350  0.7443 -2.5536
11336TIP3    H255424   3.920   1.662  16.394  1.7586  0.3771 -0.8918
11337TIP3   OH255425   4.661   2.167  15.499  0.0702  0.6211  0.2119
11337TIP3    H155426   4.738   2.134  15.453  0.1915 -0.3859  1.1214
11337TIP3    H255427   4.655   2.113  15.578 -2.5559 -0.4002 -0.6721
11338TIP3   OH255428   0.286   0.125   4.721 -0.5561 -0.2241 -0.0457
11338TIP3    H155429   0.344   0.146   4.648 -0.1765  0.5892  0.4811
11338TIP3    H255430   0.252   0.210   4.750 -0.3017 -0.4861  1.0488
11339TIP3   OH255431   1.126   3.107   6.545  0.5434  0.5928 -0.2029
11339TIP3    H155432   1.166   3.020   6.549  0.7367  0.5003 -3.0589
11339TIP3    H255433   1.032   3.090   6.549  0.5688  0.7654  5.7998
11340TIP3   OH255434   3.399   6.177  14.367 -0.0378 -0.2740  0.4893
11340TIP3    H155435   3.484   6.168  14.324  0.4156  0.2707  1.2670
11340TIP3    H255436   3.419   6.207  14.456 -1.0455 -0.0782  0.6636
11341TIP3   OH255437   4.294   4.800  13.718 -0.1125 -0.2377  0.2802
11341TIP3    H155438   4.220   4.829  13.665  0.7741  2.7362  0.5639
11341TIP3    H255439   4.333   4.728  13.668 -0.4872  1.1811 -2.1550
11342TIP3   OH255440   2.162   5.702   1.759  0.3329  0.4192 -0.5703
11342TIP3    H155441   2.212   5.769   1.713  0.2626  0.0631 -1.1740
11342TIP3    H255442   2.180   5.621   1.711  1.0473 -0.1428  0.6357
11343TIP3   OH255443   2.402   5.624   1.141  0.1998 -0.2246 -0.2411
11343TIP3    H155444   2.451   5.549   1.175  2.4945  0.1479 -2.5848
11343TIP3    H255445   2.408   5.615   1.046  0.3311  2.7793 -0.5566
11344TIP3   OH255446   4.518   3.323  11.876 -0.1033  0.2415  0.4007
11344TIP3    H155447   4.570   3.357  11.804  0.8639  1.5286  1.6830
11344TIP3    H255448   4.464   3.254  11.836 -1.2607  2.4553 -2.0170
11345TIP3   OH255449   3.859   4.335  14.889  0.1404  0.1924  0.4238
11345TIP3    H155450   3.889   4.385  14.965  1.8306  1.1166 -0.8136
11345TIP3    H255451   3.887   4.388  14.813 -1.2152 -0.8656 -0.8501
11346TIP3   OH255452   3.299   5.891  12.074 -0.0476  0.2531 -0.2052
11346TIP3    H155453   3.364   5.909  12.142  1.2684 -0.2429 -1.2949
11346TIP3    H255454   3.350   5.857  12.000 -1.4484  0.6840 -1.4140
11347TIP3   OH255455   0.111   2.701   1.675  0.2859 -0.2879  0.0917
11347TIP3    H155456   0.043   2.763   1.651 -1.3023 -1.7990  0.5821
11347TIP3    H255457   0.070   2.615   1.667  1.7027 -1.1686  1.7445
11348TIP3   OH255458   4.348   4.502  14.056  0.1163 -0.4499 -0.5935
11348TIP3    H155459   4.430   4.552  14.061 -0.6823  1.2191 -3.2207
11348TIP3    H255460   4.360   4.443  13.983 -0.6048 -1.0202 -0.2549
11349TIP3   OH255461   4.694   0.333   5.962  0.6829 -0.2188 -0.1164
11349TIP3    H155462   4.604   0.307   5.982  0.0262 -0.5148 -3.0897
11349TIP3    H255463   4.692   0.429   5.959 -0.0059 -0.2643 -1.9391
11350TIP3   OH255464   1.126   0.749   3.767 -0.2989  0.2766  0.4065
11350TIP3    H155465   1.044   0.779   3.729 -0.5633 -1.4408 -0.4315
11350TIP3    H255466   1.194   0.792   3.715 -0.6396  1.4842  0.9286
11351TIP3   OH255467   6.064   2.264   1.400 -0.2628 -0.2358 -0.0035
11351TIP3    H155468   6.000   2.195   1.418 -1.0982  0.8036  1.1173
11351TIP3    H255469   6.070   2.313   1.483 -0.0243  1.3115 -0.9150
11352TIP3   OH255470   3.267   4.238   6.159 -0.4623  0.1816 -0.3364
11352TIP3    H155471   3.177   4.219   6.186 -0.6519  1.9067  0.3323
11352TIP3    H255472   3.276   4.333   6.170  1.0441  0.2118 -1.6048
11353TIP3   OH255473   1.023   5.045  13.341  0.1755 -0.3668  0.3553
11353TIP3    H155474   0.992   5.039  13.251  3.4430  1.0702 -0.9368
11353TIP3    H255475   1.058   4.958  13.361 -1.7434 -1.0720  0.7377
11354TIP3   OH255476   5.522   4.170   1.186 -0.7317  0.3680 -0.1122
11354TIP3    H155477   5.513   4.082   1.148 -2.1696  0.1391  0.7253
11354TIP3    H255478   5.483   4.162   1.273 -1.4732  2.0048 -0.2793
11355TIP3   OH255479   6.064   5.249  12.177  0.0990 -0.2155  0.0320
11355TIP3    H155480   5.993   5.216  12.232 -1.8507  3.0236 -0.4426
11355TIP3    H255481   6.034   5.237  12.088  0.9689 -0.5482 -0.2228
11356TIP3   OH255482   4.465   6.226  13.464  0.5255 -0.4362  0.0180
11356TIP3    H155483   4.526   6.264  13.527 -2.0663 -0.4117  2.6250
11356TIP3    H255484   4.472   6.132  13.478 -0.2196 -0.4192  0.5401
11357TIP3   OH255485   0.673   2.677   0.439 -0.5368 -0.3941  0.6317
11357TIP3    H155486   0.694   2.633   0.521  0.2712  0.8856  1.1317
11357TIP3    H255487   0.604   2.740   0.462 -0.3897 -0.1081  0.3021
11358TIP3   OH255488   3.572   3.594   2.059  0.1341 -0.8721  1.1673
11358TIP3    H155489   3.505   3.532   2.032  0.3518 -0.8849  0.6507
11358TIP3    H255490   3.529   3.680   2.053  0.8130 -0.6643 -1.3252
11359TIP3   OH255491   1.296   3.125  15.405  0.2353  0.0699 -0.0988
11359TIP3    H155492   1.311   3.073  15.484  0.7756 -1.3537 -1.1163
11359TIP3    H255493   1.201   3.133  15.399  0.2017  0.5893  0.9452
11360TIP3   OH255494   5.389   5.282  12.526 -0.4745  0.2700  0.0669
11360TIP3    H155495   5.448   5.241  12.589  0.1791  0.1635 -0.6152
11360TIP3    H255496   5.373   5.370  12.561  0.7715  0.6083 -0.1838
11361TIP3   OH255497   4.666   2.991  13.902 -0.2296 -0.1593 -0.0245
11361TIP3    H155498   4.614   3.069  13.919 -1.6897 -1.1989  0.4157
11361TIP3    H255499   4.738   3.021  13.846 -0.4167  1.5956  0.6547
11362TIP3   OH255500   3.453   6.164   0.181 -0.2387  0.1073  0.1133
11362TIP3    H155501   3.431   6.144   0.090  0.2809 -0.1296  0.0423
11362TIP3    H255502   3.376   6.210   0.214 -1.4549 -1.9826  0.2766
11363TIP3   OH255503   6.432   2.450   5.791 -0.1891 -0.0677 -0.5082
11363TIP3    H155504   6.408   2.504   5.866 -0.0788  0.9878 -1.2155
11363TIP3    H255505   6.492   2.504   5.740 -0.1421 -0.8225 -1.2784
11364TIP3   OH255506   6.065   1.103   2.931 -0.8471 -0.4621  0.8088
11364TIP3    H155507   6.028   1.072   3.013 -1.5168 -0.1847  0.6143
11364TIP3    H255508   6.136   1.162   2.957 -2.6425  1.6036  1.2455
11365TIP3   OH255509   2.432   0.367  11.573  0.8711 -0.4235 -0.0882
11365TIP3    H155510   2.445   0.376  11.478 -2.2578  0.8242 -0.4436
11365TIP3    H255511   2.446   0.455  11.608 -0.2673 -0.3933  0.3063
11366TIP3   OH255512   2.765   5.786   5.544  0.2445 -0.1121 -0.1625
11366TIP3    H155513   2.726   5.870   5.519 -0.9457 -0.9300 -1.0949
11366TIP3    H255514   2.742   5.727   5.472  0.4632 -1.4304  0.8419
11367TIP3   OH255515   3.968   1.948  12.358 -0.5746  0.1884 -0.1142
11367TIP3    H155516   3.996   1.889  12.428  0.3736  1.9249  0.9888
11367TIP3    H255517   3.875   1.927  12.344 -0.2507 -1.5563  0.2415
11368TIP3   OH255518   1.440   1.581  13.752 -0.0925  0.6984 -0.2105
11368TIP3    H155519   1.429   1.665  13.707  2.0898  0.6370 -0.9091
11368TIP3    H255520   1.496   1.601  13.827 -1.1303  0.2005  0.7173
11369TIP3   OH255521   6.127   6.708   6.021  0.6471 -0.4260 -0.6197
11369TIP3    H155522   6.221   6.718   6.037  0.1446  0.1619  2.3492
11369TIP3    H255523   6.101   6.788   5.977  1.1405  0.4606  0.6762
11370TIP3   OH255524   1.777   5.580  17.221  0.0242  0.9174  0.4162
11370TIP3    H155525   1.709   5.614  17.163 -1.0704 -0.9455  0.5502
11370TIP3    H255526   1.823   5.657  17.253 -1.9736  2.2196  0.2537
11371TIP3   OH255527   5.934   4.209  16.872  0.0502 -0.3856  0.0671
11371TIP3    H155528   5.985   4.147  16.820  0.4151  0.4071 -0.5353
11371TIP3    H255529   5.978   4.209  16.958  0.5948 -0.2944 -0.2044
11372TIP3   OH255530   4.175   6.335   1.276  0.1296  0.1395 -0.3235
11372TIP3    H155531   4.124   6.257   1.252 -0.0844 -0.0490  0.7120
11372TIP3    H255532   4.183   6.385   1.194  0.6414 -1.1748 -1.0930
11373TIP3   OH255533   2.728   5.038   4.854  0.1350  0.4807 -0.1470
11373TIP3    H155534   2.667   5.101   4.893 -0.8517  0.4755 -1.6196
11373TIP3    H255535   2.673   4.962   4.833  0.6971  0.3644 -1.2414
11374TIP3   OH255536   0.775   1.234  13.665  1.6192  0.2824 -0.2604
11374TIP3    H155537   0.812   1.283  13.739  1.2706  1.5560 -0.9130
11374TIP3    H255538   0.847   1.178  13.635  1.9306  0.1608  0.6893
11375TIP3   OH255539   4.479   0.694   2.211  0.4840  0.1667 -0.3804
11375TIP3    H155540   4.476   0.749   2.133 -0.5495  1.2413  0.3844
11375TIP3    H255541   4.403   0.636   2.202  1.7284 -1.3187 -1.3160
11376TIP3   OH255542   2.658   5.102   6.574  0.2051  0.4534 -0.3349
11376TIP3    H155543   2.568   5.111   6.605  0.4226  0.3249  0.3514
11376TIP3    H255544   2.703   5.181   6.607 -0.1266  1.5510 -2.4030
11377TIP3   OH255545   1.743   5.982   2.763 -0.0295  0.1845  0.2915
11377TIP3    H155546   1.677   5.979   2.832  0.9515  0.7675  1.2670
11377TIP3    H255547   1.749   5.893   2.730  1.2287 -0.6211  2.6119
11378TIP3   OH255548   6.336   5.377  12.172 -0.4011  0.2302  0.1780
11378TIP3    H155549   6.252   5.334  12.183 -0.4223 -0.0380 -0.9036
11378TIP3    H255550   6.360   5.408  12.259 -1.5741  0.2283  0.5054
11379TIP3   OH255551   1.148   0.257   3.174  0.2603  0.2088  0.0961
11379TIP3    H155552   1.056   0.239   3.154  0.9539 -1.4201 -1.7735
11379TIP3    H255553   1.145   0.327   3.240 -2.3649 -1.6781  2.0611
11380TIP3   OH255554   1.946   3.236   2.792 -0.3646  0.1235  0.5129
11380TIP3    H155555   1.899   3.216   2.711 -0.0844  1.2977  0.0577
11380TIP3    H255556   1.900   3.311   2.830 -0.0854  0.0044  1.1023
11381TIP3   OH255557   4.948   2.803   0.387  0.4826  0.0874 -0.4403
11381TIP3    H155558   4.997   2.793   0.306  1.6929 -0.8604  0.3842
11381TIP3    H255559   5.013   2.791   0.456 -0.8329 -0.7190  0.6814
11382TIP3   OH255560   2.243   1.747  14.526 -0.3529  0.1599  0.2553
11382TIP3    H155561   2.286   1.814  14.579  3.2164 -1.2577 -0.6818
11382TIP3    H255562   2.185   1.795  14.468  0.9841  2.3187  0.6443
11383TIP3   OH255563   1.292   2.570   3.493  0.1018  0.3251  0.4680
11383TIP3    H155564   1.254   2.528   3.415 -1.2442  2.0018  0.1830
11383TIP3    H255565   1.386   2.569   3.477 -0.0851 -0.3621 -0.6748
11384TIP3   OH255566   2.483   6.529   4.870 -0.4829 -0.8065 -0.0241
11384TIP3    H155567   2.513   6.532   4.961 -0.8886  1.1871  0.0504
11384TIP3    H255568   2.562   6.537   4.818 -0.2321 -2.1113  0.1386
11385TIP3   OH255569   1.149   3.039   4.591 -0.1431  0.5334 -0.4520
11385TIP3    H155570   1.144   2.949   4.622 -0.6593  1.1645  1.3747
11385TIP3    H255571   1.229   3.074   4.632 -1.0896  1.5282  0.5755
11386TIP3   OH255572   3.219   2.030   3.523  0.4616  0.0314  0.0888
11386TIP3    H155573   3.154   1.977   3.569 -1.1743  0.3691 -1.7172
11386TIP3    H255574   3.283   1.966   3.491 -1.0114 -0.8032 -1.3085
11387TIP3   OH255575   6.552   3.515  13.965  0.1137  0.7189  0.2981
11387TIP3    H155576   6.539   3.552  13.878 -0.5408  0.2400  0.1846
11387TIP3    H255577   6.620   3.449  13.954 -0.0841  0.5464  0.1169
11388TIP3   OH255578   4.166   5.787  14.146 -0.1012 -0.0825  0.4927
11388TIP3    H155579   4.182   5.881  14.157 -0.2736  0.1389 -1.0582
11388TIP3    H255580   4.169   5.773  14.052  0.7553 -1.7978  0.7645
11389TIP3   OH255581   6.104   4.732  16.040 -0.1236 -0.3036  0.0129
11389TIP3    H155582   6.025   4.711  16.089  0.2708 -1.0889  0.3236
11389TIP3    H255583   6.089   4.821  16.007 -1.2964 -0.5968 -0.2621
11390TIP3   OH255584   3.826   2.487  14.437 -0.2085 -0.0458 -0.5493
11390TIP3    H155585   3.847   2.444  14.520  0.7261 -0.0234 -0.7652
11390TIP3    H255586   3.732   2.475  14.427  0.1118 -2.5439 -0.8789
11391TIP3   OH255587   6.026   0.324   2.332  0.1772 -0.0074  0.0078
11391TIP3    H155588   5.934   0.321   2.307  0.4107 -0.6119 -0.8150
11391TIP3    H255589   6.073   0.344   2.251  0.7763  0.2594  0.4094
11392TIP3   OH255590   4.062   3.429  11.065  0.4671  0.0831 -0.0057
11392TIP3    H155591   4.090   3.376  11.139  1.3310 -0.5552 -0.7734
11392TIP3    H255592   3.983   3.385  11.032 -0.4955  0.9258  1.1204
11393TIP3   OH255593   3.715   4.608  12.125 -0.1770  0.1550  0.2598
11393TIP3    H155594   3.777   4.654  12.182  0.8278 -1.3107  0.3623
11393TIP3    H255595   3.733   4.641  12.038 -1.2177  1.8596  0.6605
11394TIP3   OH255596   5.005   6.102  11.276  0.1326  0.4842  0.1436
11394TIP3    H155597   4.979   6.194  11.280 -1.6556 -0.0672  1.7650
11394TIP3    H255598   4.925   6.053  11.294  1.0080 -1.4137 -0.9716
11395TIP3   OH255599   6.520   3.779  13.455  0.0725 -0.2972  0.2644
11395TIP3    H155600   6.473   3.845  13.505  0.2742 -0.0041  0.0619
11395TIP3    H255601   6.526   3.815  13.366  3.1266  0.9172  0.8981
11396TIP3   OH255602   2.085   2.417  13.592  0.2113  0.1024  0.2622
11396TIP3    H155603   2.095   2.414  13.497  0.2522 -0.1718  0.2762
11396TIP3    H255604   2.120   2.333  13.623  0.3627  0.2630  0.5334
11397TIP3   OH255605   0.720   4.661   2.629  0.0722 -0.2758  0.2059
11397TIP3    H155606   0.692   4.580   2.586  2.8668 -0.6654 -1.0215
11397TIP3    H255607   0.773   4.706   2.564  0.7708  1.2418  1.7789
11398TIP3   OH255608   3.321   3.714  11.790 -0.1414  0.5284 -0.7084
11398TIP3    H155609   3.370   3.763  11.724  1.7976 -1.1135 -0.5242
11398TIP3    H255610   3.284   3.782  11.848 -3.3589  2.0980 -4.3827
11399TIP3   OH255611   5.856   1.605  13.183  0.1235 -0.0966  0.0647
11399TIP3    H155612   5.795   1.535  13.207  0.1981 -0.1850 -0.0049
11399TIP3    H255613   5.935   1.586  13.234 -0.1569  0.4224  0.7021
11400TIP3   OH255614   4.916   5.653  16.702 -0.0116  0.3224 -0.3512
11400TIP3    H155615   4.978   5.620  16.767  0.2519 -1.8994 -1.7106
11400TIP3    H255616   4.894   5.578  16.648 -0.4422  2.0654 -2.6994
11401TIP3   OH255617   2.218   4.403   4.267 -0.1262  0.7037  0.2243
11401TIP3    H155618   2.124   4.423   4.268 -0.4241 -0.6211  0.0202
11401TIP3    H255619   2.223   4.313   4.299  0.9467  0.2339 -1.2279
11402TIP3   OH255620   1.407   6.500   3.777  0.2906  0.0486 -0.4584
11402TIP3    H155621   1.404   6.584   3.822  0.9725  0.4556 -1.1838
11402TIP3    H255622   1.458   6.443   3.836  0.1099  0.2266 -0.1284
11403TIP3   OH255623   5.997   5.251  11.001 -0.8807 -0.0943 -0.2432
11403TIP3    H155624   5.923   5.245  11.061 -1.7530  0.8154 -1.2006
11403TIP3    H255625   5.959   5.230  10.915 -0.4958  2.4333 -1.0688
11404TIP3   OH255626   4.584   1.880   4.874 -0.0179 -0.0206  0.5078
11404TIP3    H155627   4.520   1.812   4.854 -0.0557  0.3942 -0.8085
11404TIP3    H255628   4.629   1.847   4.952  0.6207 -2.0162 -0.6492
11405TIP3   OH255629   1.433   6.690  16.893 -0.2113  0.3297  0.2619
11405TIP3    H155630   1.460   6.760  16.833 -0.4744  1.1658  1.1053
11405TIP3    H255631   1.455   6.610  16.847  1.4482  0.9847 -0.1015
11406TIP3   OH255632   3.355   0.876  11.185  0.0751  0.2428 -0.3654
11406TIP3    H155633   3.300   0.914  11.116  2.2369  2.1154 -1.1187
11406TIP3    H255634   3.307   0.893  11.266 -2.8826 -2.6685 -1.3842
11407TIP3   OH255635   6.504   4.571  11.194 -0.0435  0.0077  0.2829
11407TIP3    H155636   6.439   4.548  11.260  0.7782  0.9663  1.4551
11407TIP3    H255637   6.453   4.594  11.117 -1.0007 -1.8435  0.3294
11408TIP3   OH255638   5.685   5.921  13.967 -0.4961  0.0477 -0.4202
11408TIP3    H155639   5.677   5.828  13.948 -0.3984  0.1770 -1.0983
11408TIP3    H255640   5.748   5.954  13.903 -0.4996  0.5706 -0.1598
11409TIP3   OH255641   1.149   5.333   6.123 -0.0873  0.5614 -0.0677
11409TIP3    H155642   1.175   5.295   6.208 -2.6589 -1.6199 -0.2148
11409TIP3    H255643   1.055   5.345   6.130  0.0245  2.7653 -1.7573
11410TIP3   OH255644   3.785   6.690  13.550  0.3122 -0.0346 -0.0335
11410TIP3    H155645   3.876   6.682  13.580  0.2964  1.9470  0.6780
11410TIP3    H255646   3.761   6.603  13.521  2.4958 -0.5676 -0.3373
11411TIP3   OH255647   6.778   1.042   4.443  0.0208 -0.1112 -0.8000
11411TIP3    H155648   6.828   0.963   4.422  1.4935  1.2015 -2.3502
11411TIP3    H255649   6.706   1.042   4.379  1.5100  1.1471 -2.4959
11412TIP3   OH255650   0.230   0.672   5.483 -0.3273 -0.1017  0.3468
11412TIP3    H155651   0.283   0.616   5.540  0.7752  1.6596  1.0947
11412TIP3    H255652   0.152   0.693   5.535 -1.7340 -2.5599 -0.6931
11413TIP3   OH255653   6.051   1.312   0.170  0.2830 -0.2711 -0.2080
11413TIP3    H155654   6.105   1.310   0.249 -0.8768  2.3390  0.7274
11413TIP3    H255655   6.109   1.349   0.103  0.6979 -0.7185 -0.0998
11414TIP3   OH255656   4.368   4.208   0.638 -0.1282  0.1247 -0.3228
11414TIP3    H155657   4.401   4.129   0.681 -0.2097  0.8279  1.0605
11414TIP3    H255658   4.275   4.212   0.661  0.1612  1.3067  0.6846
11415TIP3   OH255659   4.787   0.748  14.401  0.0615 -0.7388  0.3661
11415TIP3    H155660   4.736   0.772  14.479  1.6253  1.5070  0.7392
11415TIP3    H255661   4.728   0.692  14.350 -1.4707 -1.1268  2.4997
11416TIP3   OH255662   1.875   3.273  17.004 -0.4245 -0.0715 -0.4410
11416TIP3    H155663   1.913   3.322  17.077  0.4653  0.2513 -1.1127
11416TIP3    H255664   1.917   3.187  17.009  0.2640  0.2318 -1.0875
11417TIP3   OH255665   0.451   0.008   5.540 -0.2983 -0.1184 -0.3907
11417TIP3    H155666   0.406   0.048   5.614 -1.2058 -0.5647 -0.6944
11417TIP3    H255667   0.467   0.080   5.480 -1.9849 -0.1945 -0.9638
11418TIP3   OH255668   0.141   2.202   0.774 -0.3807 -0.4605  0.6873
11418TIP3    H155669   0.191   2.270   0.730  1.3168 -2.3676 -0.4270
11418TIP3    H255670   0.103   2.246   0.851 -1.6199  2.3707 -1.4471
11419TIP3   OH255671   0.057   6.448  13.811 -0.5686 -0.2132  0.4862
11419TIP3    H155672   0.088   6.476  13.725 -1.9319 -1.7401 -0.5284
11419TIP3    H255673  -0.030   6.413  13.795 -0.6040 -1.0765  2.3998
11420TIP3   OH255674   3.038   1.317   5.600 -0.2163  0.1507 -0.2208
11420TIP3    H155675   2.997   1.238   5.633 -1.3740  0.7696 -0.1660
11420TIP3    H255676   3.063   1.366   5.678 -1.3237  0.7743 -0.2553
11421TIP3   OH255677   2.074   6.631  13.014  0.8278  0.6355  0.2243
11421TIP3    H155678   1.992   6.588  13.040  0.3663  1.2287 -0.2388
11421TIP3    H255679   2.142   6.568  13.038  0.1897 -0.1530 -0.0001
11422TIP3   OH255680   5.068   4.280  16.359  0.1256 -0.0675  0.6060
11422TIP3    H155681   5.138   4.223  16.388  0.5968  0.6883  0.9850
11422TIP3    H255682   4.987   4.236  16.387  0.4563 -0.8569  0.3098
11423TIP3   OH255683   2.802   6.668   4.485  0.1661  0.0119  0.6297
11423TIP3    H155684   2.721   6.641   4.442 -0.1433  1.0071  0.5811
11423TIP3    H255685   2.822   6.753   4.447  0.8874  0.0639  1.1154
11424TIP3   OH255686   4.828   4.613  14.586 -0.2668  0.2129  0.1587
11424TIP3    H155687   4.860   4.613  14.677  1.3847 -0.7396 -0.4184
11424TIP3    H255688   4.860   4.695  14.550  0.2465 -0.0509  0.0208
11425TIP3   OH255689   0.684   1.439   1.457  0.0687 -0.1794  0.0722
11425TIP3    H155690   0.693   1.501   1.385  2.9182 -1.4402 -0.7421
11425TIP3    H255691   0.679   1.353   1.414 -2.5655 -0.6582  1.2233
11426TIP3   OH255692   5.160   6.757   4.766  0.0051  0.8123 -0.0514
11426TIP3    H155693   5.202   6.686   4.814  1.0194  1.0270 -0.6189
11426TIP3    H255694   5.215   6.770   4.689 -0.7809  1.4847 -0.5072
11427TIP3   OH255695   5.622   1.340  11.948  0.3978  0.0342  0.0531
11427TIP3    H155696   5.562   1.345  12.022 -0.0380 -1.4325 -0.1771
11427TIP3    H255697   5.700   1.296  11.983  0.8722  0.8821  0.0666
11428TIP3   OH255698   0.239   3.273   5.000  0.3259  0.5849  0.1166
11428TIP3    H155699   0.175   3.235   5.060  0.4781 -0.7043 -0.5212
11428TIP3    H255700   0.293   3.199   4.973  2.0545  1.6338  0.6045
11429TIP3   OH255701   5.077   6.686  15.140 -0.3650  0.0746  0.4262
11429TIP3    H155702   5.088   6.642  15.224 -0.6616 -0.1353  0.3567
11429TIP3    H255703   5.025   6.764  15.161  0.7084  0.7309  0.6519
11430TIP3   OH255704   1.369   3.508   4.036  0.9818 -0.0723 -0.5188
11430TIP3    H155705   1.409   3.522   4.122  0.7921 -1.4733 -0.1795
11430TIP3    H255706   1.438   3.468   3.984  0.4879 -1.1514 -0.3714
11431TIP3   OH255707   6.352   0.485  14.550 -0.1418 -0.6608  0.5821
11431TIP3    H155708   6.420   0.508  14.487  0.0228 -2.6241  0.0132
11431TIP3    H255709   6.389   0.509  14.635  0.0496  1.0331  0.0417
11432TIP3   OH255710   4.820   4.816  14.821 -0.2811  0.3222 -0.0575
11432TIP3    H155711   4.862   4.901  14.819  0.6338 -0.0716  1.4452
11432TIP3    H255712   4.730   4.834  14.849 -0.4270  0.9091 -0.8937
11433TIP3   OH255713   4.394   3.461  15.661 -0.5162  0.5998 -0.3911
11433TIP3    H155714   4.389   3.415  15.577 -1.1513  1.7967 -1.0141
11433TIP3    H255715   4.395   3.554  15.638 -1.7004  0.9655  0.9797
11434TIP3   OH255716   2.652   3.122   1.188 -0.3232 -0.1388  0.1396
11434TIP3    H155717   2.614   3.044   1.148 -1.5152  0.4888  0.0343
11434TIP3    H255718   2.672   3.179   1.114 -0.5284  0.1324  0.2938
11435TIP3   OH255719   2.683   5.609   4.944  0.5673 -0.5031  0.3233
11435TIP3    H155720   2.617   5.618   5.013 -0.4776 -3.0014 -0.2876
11435TIP3    H255721   2.634   5.618   4.862  1.8539  2.7523 -0.1734
11436TIP3   OH255722   1.809   0.810  15.454  0.3864  0.1836  0.1634
11436TIP3    H155723   1.718   0.836  15.438  0.6327  0.5636 -0.6553
11436TIP3    H255724   1.861   0.887  15.429  0.7803  1.0996  3.4828
11437TIP3   OH255725   6.132   0.870  11.256 -0.1254  0.1178  0.4696
11437TIP3    H155726   6.095   0.804  11.315  2.3515 -1.4067  0.3789
11437TIP3    H255727   6.058   0.895  11.200 -1.7331 -0.7013  2.1613
11438TIP3   OH255728   0.084   0.415  16.589  0.3962  0.3556  0.3459
11438TIP3    H155729   0.152   0.417  16.522  0.9597 -2.4524  0.7966
11438TIP3    H255730   0.124   0.456  16.666  0.9446  0.4100  0.0325
11439TIP3   OH255731   6.615   2.408   0.101  0.3745  0.5939  0.0467
11439TIP3    H155732   6.690   2.392   0.158  0.1673  0.3153  0.2439
11439TIP3    H255733   6.551   2.341   0.126  0.0792  0.7999 -0.1506
11440TIP3   OH255734   2.232   4.451   4.947 -0.0947 -0.2614 -0.6267
11440TIP3    H155735   2.246   4.538   4.910  2.7297  0.1539  1.2226
11440TIP3    H255736   2.150   4.420   4.908 -0.0383  2.3479 -2.9168
11441TIP3   OH255737   1.863   3.190  14.528  0.0296 -0.1216  0.3508
11441TIP3    H155738   1.912   3.129  14.583  0.5322 -0.0148  0.0262
11441TIP3    H255739   1.846   3.266  14.583  1.3544  0.3851  0.0755
11442TIP3   OH255740   0.524   6.444   5.820  0.6590 -0.0801  0.1599
11442TIP3    H155741   0.559   6.530   5.797 -0.7880  0.8156  1.2787
11442TIP3    H255742   0.565   6.422   5.904  1.2883 -0.6432 -0.2877
11443TIP3   OH255743   0.733   1.005  12.579 -0.2873 -0.2767 -0.5126
11443TIP3    H155744   0.745   1.099  12.565  1.0474 -0.2716  0.5821
11443TIP3    H255745   0.676   0.977  12.507 -0.7801  1.3801 -0.7808
11444TIP3   OH255746   3.250   1.915   4.897 -0.0844 -0.5562  0.4847
11444TIP3    H155747   3.236   1.969   4.819  2.2874  0.7279  0.9030
11444TIP3    H255748   3.209   1.965   4.968  2.9237  1.2328  1.0331
11445TIP3   OH255749   2.587   4.049   3.972 -0.3901 -0.6074  0.1243
11445TIP3    H155750   2.635   4.016   3.897  1.4832 -0.1444  1.1003
11445TIP3    H255751   2.506   4.085   3.935  0.3122 -0.7740 -1.6000
11446TIP3   OH255752   3.293   2.839   3.512 -0.1777 -0.0081  0.4505
11446TIP3    H155753   3.365   2.795   3.557 -0.7943  0.3832  1.8474
11446TIP3    H255754   3.277   2.785   3.435  0.0292 -1.4478  1.3824
11447TIP3   OH255755   4.957   3.226  14.852  0.2034 -0.5314  0.3792
11447TIP3    H155756   4.931   3.273  14.931  0.8545  0.1648  0.1837
11447TIP3    H255757   4.891   3.251  14.787  1.0852  0.8690  0.0096
11448TIP3   OH255758   1.272   1.000  15.349 -0.1151 -0.6836 -0.0010
11448TIP3    H155759   1.235   1.036  15.268 -1.7777 -0.7745  0.6916
11448TIP3    H255760   1.211   1.028  15.417  2.7190  1.8036  1.6764
11449TIP3   OH255761   5.178   1.397   4.375 -0.2134  0.3171  0.2111
11449TIP3    H155762   5.117   1.326   4.397  0.4528  0.0496  1.2298
11449TIP3    H255763   5.139   1.439   4.298 -0.8055 -0.9127 -0.1751
11450TIP3   OH255764   5.387   3.477  15.007  0.6544  0.4680 -0.0343
11450TIP3    H155765   5.474   3.470  15.046  1.4523 -1.1104 -1.9993
11450TIP3    H255766   5.396   3.435  14.922 -1.6617  1.6657 -0.8935
11451TIP3   OH255767   6.618   4.974   4.912 -0.6362 -0.1191 -0.3793
11451TIP3    H155768   6.663   4.953   4.994 -0.8403  1.8653  0.2471
11451TIP3    H255769   6.540   5.021   4.938 -0.9014  0.2036 -1.7108
11452TIP3   OH255770   5.289   2.815   2.076 -0.9277  0.6265 -0.3556
11452TIP3    H155771   5.338   2.883   2.030 -0.1214  0.2178 -0.1117
11452TIP3    H255772   5.333   2.734   2.051  0.8355  0.5636  2.7567
11453TIP3   OH255773   4.271   4.416  17.041  0.1851 -0.4343  0.2237
11453TIP3    H155774   4.330   4.354  17.084  0.5878 -0.2946 -0.1249
11453TIP3    H255775   4.259   4.486  17.105 -0.6455 -1.0990  0.8047
11454TIP3   OH255776   2.418   3.640   3.411  0.0762 -0.0365 -0.2407
11454TIP3    H155777   2.510   3.618   3.427  0.6160  1.1979 -1.5644
11454TIP3    H255778   2.413   3.735   3.421 -0.3276  0.3436 -3.4817
11455TIP3   OH255779   4.885   6.326  14.567 -0.0917  0.1883 -0.1008
11455TIP3    H155780   4.904   6.239  14.532 -1.4254 -0.4910  0.8403
11455TIP3    H255781   4.828   6.366  14.501 -0.4442 -0.0985  0.0282
11456TIP3   OH255782   3.794   3.231  15.228  0.2564  0.2877 -0.8345
11456TIP3    H155783   3.727   3.282  15.272  0.5092  0.2655 -0.4170
11456TIP3    H255784   3.748   3.183  15.160 -0.3345 -0.5684  0.1592
11457TIP3   OH255785   0.785   3.440  15.157 -0.5252 -0.3329 -0.0587
11457TIP3    H155786   0.703   3.393  15.173 -1.4002  0.6768 -1.4837
11457TIP3    H255787   0.829   3.441  15.242 -2.1111 -0.6467  0.7850
11458TIP3   OH255788   5.412   6.403  11.387 -0.1108  0.9660 -0.1347
11458TIP3    H155789   5.366   6.486  11.382  0.8673  1.5757  0.6895
11458TIP3    H255790   5.345   6.340  11.413 -0.6603  1.6738  0.1956
11459TIP3   OH255791   1.404   0.541  14.977 -0.4342 -0.1661 -0.0480
11459TIP3    H155792   1.447   0.473  14.925 -1.5455 -0.1823 -0.9633
11459TIP3    H255793   1.421   0.622  14.928 -0.1503  0.0482  0.3999
11460TIP3   OH255794   4.195   1.140  12.176  0.9008 -0.8275 -0.4797
11460TIP3    H155795   4.123   1.153  12.238  0.3346  1.4413 -1.5460
11460TIP3    H255796   4.172   1.195  12.101  2.9329 -1.3742 -1.5455
11461TIP3   OH255797   5.389   3.532   1.380  0.0771 -0.5127  0.1911
11461TIP3    H155798   5.444   3.462   1.415 -0.6523 -0.3653  1.6527
11461TIP3    H255799   5.361   3.500   1.295  1.1370 -1.2657  0.1110
11462TIP3   OH255800   2.751   6.562  15.562  0.5217 -0.4379 -0.6400
11462TIP3    H155801   2.725   6.597  15.647 -1.2556  1.0469 -1.7379
11462TIP3    H255802   2.846   6.574  15.559  0.3893  1.1174  0.4438
11463TIP3   OH255803   4.950   0.045   5.635 -0.2643 -0.4146 -0.3012
11463TIP3    H155804   5.019   0.080   5.578 -0.1261 -0.8621 -0.4125
11463TIP3    H255805   4.990   0.040   5.721 -0.3345 -0.1447 -0.2538
11464TIP3   OH255806   5.019   2.458   6.644  0.5040 -0.0303  0.1059
11464TIP3    H155807   4.969   2.531   6.680  1.1192  1.5463 -2.1632
11464TIP3    H255808   4.956   2.385   6.642 -0.2722  0.5646  1.8274
11465TIP3   OH255809   4.205   5.919  15.497  0.0068 -0.4368 -0.3167
11465TIP3    H155810   4.133   5.868  15.536 -0.2589 -0.0994 -0.3714
11465TIP3    H255811   4.205   5.895  15.405  1.0925 -1.7870  0.0066
11466TIP3   OH255812   5.259   0.964  12.024 -0.0562  0.4954 -0.8633
11466TIP3    H155813   5.214   0.884  11.997  0.6193 -0.2580  0.2188
11466TIP3    H255814   5.190   1.030  12.028 -1.1042 -0.6667  0.8773
11467TIP3   OH255815   4.204   6.748   0.232 -1.0683  0.1567 -0.2135
11467TIP3    H155816   4.265   6.787   0.170  0.8524 -0.6022  1.1372
11467TIP3    H255817   4.172   6.822   0.284  1.5022  0.1746  1.4374
11468TIP3   OH255818   3.457   4.406  12.586  0.2513  0.5975  0.2872
11468TIP3    H155819   3.414   4.474  12.533  2.2114  2.4821  1.0607
11468TIP3    H255820   3.423   4.420  12.675 -1.0765 -0.9293  0.0501
11469TIP3   OH255821   0.840   6.549   2.965 -0.1196  0.2642 -0.5682
11469TIP3    H155822   0.804   6.462   2.984  1.7163 -0.0304  1.8234
11469TIP3    H255823   0.790   6.580   2.890 -2.5471 -1.7983  0.1404
11470TIP3   OH255824   1.959   2.467   2.631 -0.4735 -0.4501 -0.4236
11470TIP3    H155825   1.936   2.461   2.724  2.1335 -1.2134  0.2299
11470TIP3    H255826   1.901   2.534   2.596 -0.9930  0.3864  1.9220
11471TIP3   OH255827   0.343   3.231  14.634 -0.4948 -0.4683  0.1393
11471TIP3    H155828   0.272   3.203  14.692 -0.3603 -0.6354  0.2259
11471TIP3    H255829   0.409   3.161  14.642 -0.0872 -0.0553  0.4768
11472TIP3   OH255830   0.407   5.330  17.184  0.2901 -0.0301 -0.4415
11472TIP3    H155831   0.447   5.407  17.223 -1.8899  0.2723  1.3181
11472TIP3    H255832   0.413   5.345  17.089  1.8805  1.2224 -0.1632
11473TIP3   OH255833   3.601   0.078  13.102  0.5075 -0.2198 -0.1755
11473TIP3    H155834   3.604   0.099  13.008 -1.2711 -1.4186 -0.5271
11473TIP3    H255835   3.561   0.155  13.142 -3.6048 -1.7206 -1.1262
11474TIP3   OH255836   4.155   1.229   1.482 -0.0887  0.2169 -0.1614
11474TIP3    H155837   4.067   1.235   1.520 -0.4174  1.0959 -1.0172
11474TIP3    H255838   4.203   1.172   1.541 -0.9250  0.6097  0.9189
11475TIP3   OH255839   1.010   4.984  15.907  0.1339 -0.4323 -1.0589
11475TIP3    H155840   0.955   5.050  15.864 -2.5761 -1.2732  1.0023
11475TIP3    H255841   0.993   4.996  16.001  1.8181 -2.1739 -0.4972
11476TIP3   OH255842   0.067   1.427  14.458 -0.5519 -0.2639  0.5840
11476TIP3    H155843   0.141   1.367  14.469  0.5299  1.0692  0.6847
11476TIP3    H255844   0.043   1.453  14.547 -1.2496 -0.8030  0.5609
11477TIP3   OH255845   3.507   0.447  15.111  0.0002 -0.1136 -0.7046
11477TIP3    H155846   3.456   0.375  15.148 -0.1704  0.2822 -0.1624
11477TIP3    H255847   3.542   0.412  15.029  0.7103 -1.1288  0.0174
11478TIP3   OH255848   6.004   2.809  16.779 -0.1909  0.4721 -0.4656
11478TIP3    H155849   5.928   2.846  16.825 -1.5064 -0.8894 -1.4741
11478TIP3    H255850   5.996   2.843  16.690  0.6507  0.6796 -0.4644
11479TIP3   OH255851   1.916   1.338   1.996  0.0173 -0.0802  0.2811
11479TIP3    H155852   1.996   1.356   2.044 -0.2349 -0.2576  0.7757
11479TIP3    H255853   1.860   1.413   2.012 -0.5594 -0.7180  1.3309
11480TIP3   OH255854   2.839   4.819  15.500  0.4784 -0.1403 -0.5524
11480TIP3    H155855   2.901   4.804  15.429  0.2636  0.1067 -0.7932
11480TIP3    H255856   2.753   4.799  15.463  0.2485  1.0561 -0.7021
11481TIP3   OH255857   5.711   3.811  15.460  0.3406 -0.4984 -0.2835
11481TIP3    H155858   5.702   3.756  15.382 -0.9597 -0.7782  0.0417
11481TIP3    H255859   5.771   3.763  15.517 -0.1262 -1.1812 -0.3580
11482TIP3   OH255860   3.621   4.391  16.649 -0.4536 -0.2931 -0.6852
11482TIP3    H155861   3.639   4.427  16.562 -0.4631 -0.4027 -0.7297
11482TIP3    H255862   3.527   4.403  16.662 -0.5141 -0.6042 -0.8337
11483TIP3   OH255863   5.539   6.597   3.350 -0.2905 -0.1839  0.3184
11483TIP3    H155864   5.500   6.530   3.294  1.3047  0.0602 -1.1598
11483TIP3    H255865   5.482   6.674   3.339 -0.2628 -0.2920 -0.6075
11484TIP3   OH255866   4.195   4.101  11.931 -0.7241  0.0459  0.1653
11484TIP3    H155867   4.238   4.015  11.934 -0.9158 -0.0764 -0.5847
11484TIP3    H255868   4.107   4.085  11.963 -0.8238 -0.0761 -0.1704
11485TIP3   OH255869   1.946   1.096  13.115 -0.6146 -0.1426  0.1166
11485TIP3    H155870   2.018   1.045  13.078 -0.7934 -0.8849  0.7678
11485TIP3    H255871   1.921   1.157  13.046 -0.6503 -1.2124 -0.8239
11486TIP3   OH255872   4.758   2.137   4.860  0.0893  0.2155 -0.6198
11486TIP3    H155873   4.815   2.068   4.826 -0.0844 -1.0126  1.4643
11486TIP3    H255874   4.811   2.183   4.924 -0.1505  1.3110 -1.2074
11487TIP3   OH255875   1.138   1.791   5.515 -0.2571  0.2603  0.6815
11487TIP3    H155876   1.072   1.814   5.449  1.4836  0.4568 -1.0358
11487TIP3    H255877   1.088   1.753   5.586 -2.3608  1.5425 -0.0567
11488TIP3   OH255878   2.383   6.081   5.090 -0.6488  0.4456  1.0938
11488TIP3    H155879   2.456   6.023   5.070 -1.9350 -0.5733 -0.8459
11488TIP3    H255880   2.390   6.152   5.026 -1.0837  0.5746  1.1852
11489TIP3   OH255881   0.451   2.697  12.471 -0.3403  0.1770  0.3067
11489TIP3    H155882   0.444   2.726  12.380 -2.9597  0.8038  0.6860
11489TIP3    H255883   0.404   2.614  12.474  1.8221 -1.0933  0.5984
11490TIP3   OH255884   3.619   1.853  11.297 -0.5766 -0.2026  0.3992
11490TIP3    H155885   3.622   1.941  11.335 -0.2571 -0.9129  2.0421
11490TIP3    H255886   3.709   1.835  11.271 -0.3392 -0.6794  1.5414
11491TIP3   OH255887   6.197   3.433  13.154 -0.1133 -0.1491 -0.7816
11491TIP3    H155888   6.192   3.360  13.216  1.6776 -1.2113 -1.8419
11491TIP3    H255889   6.244   3.502  13.202 -1.8244  0.3402  0.2290
11492TIP3   OH255890   3.647   0.591   5.950 -0.2107 -0.0415  0.6141
11492TIP3    H155891   3.567   0.641   5.965  0.1049  0.9358 -0.8410
11492TIP3    H255892   3.714   0.658   5.933  0.4015 -0.9180 -0.4854
11493TIP3   OH255893   5.161   0.145   3.412 -0.1420 -0.0908 -0.1054
11493TIP3    H155894   5.242   0.174   3.454 -0.6187 -0.9615  1.4623
11493TIP3    H255895   5.103   0.221   3.419 -0.1960 -0.2021  0.7931
11494TIP3   OH255896   6.710   0.061   5.620 -0.5084  0.2149  0.5359
11494TIP3    H155897   6.626   0.094   5.589  0.1466 -0.4148 -2.0707
11494TIP3    H255898   6.703  -0.034   5.615  0.0871  0.1353  1.0777
11495TIP3   OH255899   5.651   3.653  15.791  0.5082  0.2188  0.1667
11495TIP3    H155900   5.597   3.699  15.727  0.1405  0.4931  0.6635
11495TIP3    H255901   5.740   3.657  15.756  0.0363 -1.2401 -1.2295
11496TIP3   OH255902   2.377   2.438  10.564  0.0442  0.5653 -0.1733
11496TIP3    H155903   2.339   2.525  10.579  1.0422  1.5213 -2.8332
11496TIP3    H255904   2.306   2.389  10.522  0.2480  0.8792 -0.8931
11497TIP3   OH255905   4.838   4.104   2.468 -0.3432  0.1159 -0.4859
11497TIP3    H155906   4.881   4.106   2.382  1.4351 -1.2925  0.3331
11497TIP3    H255907   4.816   4.013   2.482 -0.4883  0.3141  0.6127
11498TIP3   OH255908   4.302   3.254  10.936 -0.1223  0.0836 -0.1331
11498TIP3    H155909   4.246   3.330  10.926  0.7406  0.9030  1.0800
11498TIP3    H255910   4.260   3.202  11.005 -0.2968 -0.1685 -0.4240
11499TIP3   OH255911   5.340   6.277  11.879  0.3778  0.2705  0.1312
11499TIP3    H155912   5.315   6.192  11.914 -0.6035 -0.6956 -2.7481
11499TIP3    H255913   5.291   6.340  11.931 -0.5595 -1.0480  0.8629
11500TIP3   OH255914   2.712   2.937  10.957  0.0285 -0.1755 -0.6643
11500TIP3    H155915   2.768   2.952  10.881 -0.1853 -3.6701 -1.5761
11500TIP3    H255916   2.719   2.843  10.974 -1.5543  0.1875  2.3908
11501TIP3   OH255917   2.932   5.012  15.669 -0.0954  0.0681 -0.3819
11501TIP3    H155918   2.906   4.946  15.605  1.7529 -1.1873  0.1077
11501TIP3    H255919   3.014   5.047  15.635  0.2250  0.3203  0.6437
11502TIP3   OH255920   1.484   3.370   6.361 -0.3215 -0.1256  0.6954
11502TIP3    H155921   1.518   3.281   6.371  0.9260  0.2119 -0.4864
11502TIP3    H255922   1.551   3.426   6.401  1.1090  0.6309 -2.5893
11503TIP3   OH255923   2.048   5.163   5.766 -0.0788 -0.5511  0.5515
11503TIP3    H155924   2.081   5.111   5.693 -1.5298  0.8536 -1.1595
11503TIP3    H255925   2.085   5.122   5.844  1.5246 -2.0662 -0.9714
11504TIP3   OH255926   0.754   3.132  16.954 -0.1180 -0.1159 -0.2466
11504TIP3    H155927   0.677   3.145  17.009 -0.7869 -2.0403 -0.6789
11504TIP3    H255928   0.755   3.208  16.896 -0.4896  0.9706  1.1529
11505TIP3   OH255929   3.854   0.758   2.761 -0.2412  0.1670 -0.0210
11505TIP3    H155930   3.949   0.757   2.754 -0.3309  0.2272 -1.2969
11505TIP3    H255931   3.833   0.683   2.817  0.6167  0.7541  1.0958
11506TIP3   OH255932   2.476   1.362  17.041  0.3565  0.5953 -0.0210
11506TIP3    H155933   2.513   1.438  16.998  0.0260  1.0218  0.4486
11506TIP3    H255934   2.541   1.339  17.108  0.8122  0.0057 -0.6524
11507TIP3   OH255935   4.247   0.800  13.771  0.1215  0.3431  0.0666
11507TIP3    H155936   4.170   0.743  13.775  1.0671 -0.8903  1.6418
11507TIP3    H255937   4.215   0.881  13.733 -2.0633  0.0050  1.0889
11508TIP3   OH255938   3.040   3.948   5.379 -0.0504 -0.1822  0.1031
11508TIP3    H155939   2.969   4.010   5.362 -0.3338 -0.8916 -1.3484
11508TIP3    H255940   3.120   3.997   5.360 -0.2998 -0.4670 -1.7105
11509TIP3   OH255941   5.047   2.387   2.623 -0.1727  0.2664 -0.3639
11509TIP3    H155942   5.041   2.425   2.535  0.3912 -0.1938 -0.6064
11509TIP3    H255943   5.104   2.447   2.671 -0.2833  0.3869 -0.3837
11510TIP3   OH255944   1.722   2.377   1.343 -0.1323 -0.1968 -0.0014
11510TIP3    H155945   1.642   2.370   1.394 -0.4815  3.8538  0.1744
11510TIP3    H255946   1.723   2.467   1.311  3.6695 -0.5338 -1.1590
11511TIP3   OH255947   1.153   0.868  14.528 -0.5079 -0.2993  0.5586
11511TIP3    H155948   1.248   0.871  14.511 -0.5415 -0.6847  0.2722
11511TIP3    H255949   1.146   0.856  14.622 -0.3208  2.5358  0.9568
11512TIP3   OH255950   1.050   2.798  14.637 -0.1597  0.3898  0.4215
11512TIP3    H155951   1.110   2.801  14.711  1.0295 -0.9438 -0.4618
11512TIP3    H255952   1.070   2.715  14.593 -1.4876  0.7224 -0.8583
11513TIP3   OH255953   0.449   4.839  16.605 -0.0367 -0.0202  0.1137
11513TIP3    H155954   0.482   4.871  16.689  0.8911 -1.2797  0.2528
11513TIP3    H255955   0.520   4.855  16.544 -0.1357 -0.4592 -0.1171
11514TIP3   OH255956   1.280   6.183  12.816  0.0022  0.4690 -0.4961
11514TIP3    H155957   1.220   6.108  12.811  0.7465 -0.2250  0.8681
11514TIP3    H255958   1.355   6.157  12.763  0.0075  0.4994 -0.5028
11515TIP3   OH255959   0.457   6.113   0.840  0.7541  0.5052 -0.4257
11515TIP3    H155960   0.523   6.178   0.816  1.8518  0.1876  1.5573
11515TIP3    H255961   0.497   6.064   0.912 -0.2601 -2.0246 -1.5209
11516TIP3   OH255962   2.133   0.505   0.778  0.5289 -0.0022 -0.1709
11516TIP3    H155963   2.120   0.592   0.814 -0.5126 -0.2258  0.0200
11516TIP3    H255964   2.227   0.499   0.762  0.7110  0.8661  0.5427
11517TIP3   OH255965   6.201   4.239  16.301  0.0443  0.1908  0.4706
11517TIP3    H155966   6.144   4.302  16.344  1.0544  0.3172  1.6482
11517TIP3    H255967   6.248   4.195  16.373  0.2000 -1.0821 -0.3792
11518TIP3   OH255968   5.629   3.615  12.978  0.5191 -0.3944  0.1191
11518TIP3    H155969   5.544   3.575  13.000 -0.4229  1.6752  0.3891
11518TIP3    H255970   5.606   3.703  12.947  2.3339 -1.0111 -3.0930
11519TIP3   OH255971   0.879   4.955   6.470 -0.0534  0.5012  0.6560
11519TIP3    H155972   0.870   5.032   6.526 -0.5745  1.6674 -1.0241
11519TIP3    H255973   0.942   4.980   6.403 -0.6863 -0.3192 -0.2558
11520TIP3   OH255974   4.041   1.519  11.742 -0.2300 -0.5554 -0.1573
11520TIP3    H155975   4.060   1.458  11.813 -1.6019 -0.8040  0.0249
11520TIP3    H255976   4.096   1.489  11.669  0.8188 -0.5896  0.6513
11521TIP3   OH255977   2.392   0.211   1.283  0.6974 -0.0811  0.0509
11521TIP3    H155978   2.304   0.180   1.263  0.0213  2.1324 -0.5873
11521TIP3    H255979   2.379   0.294   1.328  2.4631  0.4754 -0.4185
11522TIP3   OH255980   6.678   1.353  11.510  0.1554  0.0579 -0.2302
11522TIP3    H155981   6.646   1.375  11.422 -0.0548  1.6038  0.2151
11522TIP3    H255982   6.772   1.365  11.505  0.3631 -1.5922 -0.7171
11523TIP3   OH255983   1.007   6.037   2.601  0.1945  0.2963  0.0620
11523TIP3    H155984   0.963   6.084   2.531 -0.7457  1.6157  1.5057
11523TIP3    H255985   1.044   6.106   2.657  2.6445 -0.7632 -0.2073
11524TIP3   OH255986   4.226   3.439   1.260 -0.1709  0.5424  0.0747
11524TIP3    H155987   4.133   3.457   1.241 -0.3849 -0.1618  0.4522
11524TIP3    H255988   4.269   3.445   1.174 -1.5018 -4.9509 -1.1589
11525TIP3   OH255989   6.352   0.704  13.896  0.0981  0.1970 -0.1055
11525TIP3    H155990   6.284   0.647  13.861  0.3461 -0.3728  0.3410
11525TIP3    H255991   6.314   0.742  13.975 -0.1678  0.8725 -0.5471
11526TIP3   OH255992   4.254   1.259   6.162 -0.3347 -0.1197 -0.3329
11526TIP3    H155993   4.252   1.188   6.226 -0.4250  0.1872  0.0037
11526TIP3    H255994   4.185   1.318   6.190  0.7752  0.8946  0.2944
11527TIP3   OH255995   1.866   2.906  15.957 -0.2589  0.5263  0.4617
11527TIP3    H155996   1.827   2.867  16.035  0.4668 -0.1452  0.4884
11527TIP3    H255997   1.831   2.995  15.955  0.5175  0.8923  2.1207
11528TIP3   OH255998   2.771   1.364   2.960 -0.0227  0.0758 -0.4271
11528TIP3    H155999   2.777   1.395   3.050  1.3869  0.3877 -0.6224
11528TIP3    H256000   2.861   1.368   2.926 -0.2489 -1.6824 -1.3056
11529TIP3   OH256001   5.061   2.605   6.287 -0.6921  0.3823  0.4515
11529TIP3    H156002   5.153   2.611   6.261 -0.7280 -1.0497 -0.0786
11529TIP3    H256003   5.064   2.589   6.381 -0.4590  2.0924  0.7474
11530TIP3   OH256004   1.390   3.859   4.479  0.5867  0.0185  0.0469
11530TIP3    H156005   1.376   3.767   4.458  1.3228 -0.8518  3.1024
11530TIP3    H256006   1.484   3.865   4.498  0.2700  1.0361  1.4002
11531TIP3   OH256007   4.854   6.786   1.901  0.3161  0.2099  0.1765
11531TIP3    H156008   4.836   6.713   1.842  0.6025 -1.1089  1.6552
11531TIP3    H256009   4.883   6.743   1.982 -0.4202  1.9447  1.3749
11532TIP3   OH256010   5.596   3.463  16.454  0.2689  0.1351 -0.0402
11532TIP3    H156011   5.684   3.460  16.416  0.8147  0.3527  1.2039
11532TIP3    H256012   5.602   3.528  16.524 -1.1479  0.9019 -0.6052
11533TIP3   OH256013   4.842   5.706   6.272 -0.4786 -0.3995  0.1781
11533TIP3    H156014   4.860   5.740   6.184  0.7502 -1.4177  0.0223
11533TIP3    H256015   4.787   5.772   6.313  0.4448  0.9402 -0.7179
11534TIP3   OH256016   4.519   5.511  17.236 -0.4467  0.1174  0.6095
11534TIP3    H156017   4.518   5.603  17.262 -0.8901 -0.3925  2.4407
11534TIP3    H256018   4.429   5.491  17.212 -0.1165  0.4754 -1.0490
11535TIP3   OH256019   0.931   5.749   0.784  0.1864  0.0628 -0.2578
11535TIP3    H156020   0.864   5.683   0.764 -1.0912  1.5507 -1.0053
11535TIP3    H256021   0.970   5.770   0.699  0.2376  0.6107 -0.1028
11536TIP3   OH256022   1.006   0.221   1.243 -0.4415 -0.1301  0.0127
11536TIP3    H156023   1.088   0.172   1.252 -0.2598  0.2659  0.5075
11536TIP3    H256024   0.990   0.258   1.330 -0.3958  0.9872 -0.4431
11537TIP3   OH256025   2.062   3.892  12.028 -0.6960  0.0153 -0.0106
11537TIP3    H156026   2.097   3.946  12.099 -0.2412  0.1983 -0.3733
11537TIP3    H256027   2.134   3.884  11.966 -0.5167 -1.6578  0.3931
11538TIP3   OH256028   4.608   0.249  13.464  0.7045  0.3898 -0.0288
11538TIP3    H156029   4.619   0.339  13.432 -0.6671  0.7680  0.5048
11538TIP3    H256030   4.627   0.254  13.558 -1.1989  0.5250  0.3759
11539TIP3   OH256031   5.528   2.264   2.477 -0.3601  0.7860 -0.2099
11539TIP3    H156032   5.578   2.329   2.429 -1.2403  1.4303 -0.2649
11539TIP3    H256033   5.455   2.242   2.418  0.2619 -0.7021 -0.4568
11540TIP3   OH256034   3.004   6.453  16.908 -0.1830 -0.7261  0.5170
11540TIP3    H156035   3.089   6.423  16.874 -1.2824 -2.6281 -0.6356
11540TIP3    H256036   2.980   6.387  16.973 -0.8883 -0.3236  0.6579
11541TIP3   OH256037   4.348   5.209   0.391  0.7017  0.5527 -0.4486
11541TIP3    H156038   4.430   5.254   0.377  2.4794 -2.1255  0.8136
11541TIP3    H256039   4.306   5.257   0.463  1.6361  1.3254 -0.4090
11542TIP3   OH256040   3.543   0.995   4.986 -0.1910  0.3583  0.7886
11542TIP3    H156041   3.582   0.909   4.970 -1.6481  0.1335 -1.8894
11542TIP3    H256042   3.616   1.057   4.979  0.2803 -0.3583 -0.7052
11543TIP3   OH256043   3.960   1.285   5.914 -0.0858  0.2398  0.5289
11543TIP3    H156044   3.964   1.377   5.889  0.2856  0.0975  0.0586
11543TIP3    H256045   3.991   1.238   5.837 -3.3529 -0.4856 -0.3735
11544TIP3   OH256046   2.041   6.134   2.642  0.6659 -0.0015 -0.4671
11544TIP3    H156047   2.004   6.113   2.556 -0.6079 -0.8580  0.2592
11544TIP3    H256048   1.972   6.185   2.685  1.0047 -0.1722  0.2854
11545TIP3   OH256049   4.510   0.721  14.929 -0.5731  0.0508  0.0177
11545TIP3    H156050   4.601   0.749  14.941  0.1424 -0.6688 -3.2508
11545TIP3    H256051   4.505   0.636  14.972  0.3925 -0.0299 -0.0147
11546TIP3   OH256052   0.660   5.573  17.219  0.0280 -0.1072 -0.1286
11546TIP3    H156053   0.756   5.580  17.212  0.0774 -0.4239  0.2275
11546TIP3    H256054   0.646   5.498  17.276 -0.4243  0.4359  0.4724
11547TIP3   OH256055   5.491   2.076   2.663 -0.0963  0.9062  0.0439
11547TIP3    H156056   5.557   2.015   2.631 -0.7375 -0.2453  0.8605
11547TIP3    H256057   5.505   2.156   2.612  1.3157  0.3726 -0.4357
11548TIP3   OH256058   2.426   2.434  17.038 -0.3804 -0.0074  0.1032
11548TIP3    H156059   2.422   2.529  17.027  1.1607  0.1470  0.7519
11548TIP3    H256060   2.343   2.410  17.079 -0.4417  1.1598  0.6532
11549TIP3   OH256061   3.099   2.518  14.893 -0.2816 -0.1406 -0.1452
11549TIP3    H156062   3.030   2.492  14.954  0.0736 -3.1342 -0.9393
11549TIP3    H256063   3.181   2.499  14.939  0.0106  0.7381 -0.2884
11550TIP3   OH256064   5.448   1.481  11.748  0.3035 -1.2604  0.3357
11550TIP3    H156065   5.491   1.558  11.711 -1.8093 -1.3690 -2.5592
11550TIP3    H256066   5.517   1.435  11.796  2.1695  1.1290  0.0163
11551TIP3   OH256067   5.107   4.340   6.680 -0.3701  0.1086  0.6446
11551TIP3    H156068   5.137   4.420   6.637 -1.3226  0.3465  0.4077
11551TIP3    H256069   5.011   4.347   6.680 -0.5001 -1.4688 -0.2295
11552TIP3   OH256070   3.437   1.859   4.377 -0.0513  0.2394  0.3054
11552TIP3    H156071   3.471   1.822   4.459 -0.0988 -0.1529  0.1481
11552TIP3    H256072   3.514   1.900   4.336  0.4398 -1.4003 -0.4637
11553TIP3   OH256073   0.633   3.444   5.583  0.2812 -0.1166  0.0035
11553TIP3    H156074   0.595   3.452   5.495  1.9750  1.6342 -0.6033
11553TIP3    H256075   0.558   3.456   5.642 -0.6851 -0.2101 -1.1855
11554TIP3   OH256076   6.379   2.902   3.252 -0.3694 -0.4035 -0.5672
11554TIP3    H156077   6.368   2.836   3.321  0.2509 -0.0463 -0.1296
11554TIP3    H256078   6.302   2.959   3.261  1.4501  1.7290  2.0987
11555TIP3   OH256079   0.938   5.021   0.730 -0.0847  0.2092  0.3698
11555TIP3    H156080   0.992   4.982   0.661 -0.7086 -1.1562  0.6293
11555TIP3    H256081   0.923   4.949   0.792 -1.3713  0.8274  0.7970
11556TIP3   OH256082   0.602   1.479   4.207 -0.0127  0.1579  0.4231
11556TIP3    H156083   0.624   1.531   4.130  0.2712  1.6780  1.4866
11556TIP3    H256084   0.650   1.522   4.279 -2.6867  0.7049  1.9715
11557TIP3   OH256085   6.072   5.234   0.605 -0.0810  0.1304 -0.1784
11557TIP3    H156086   6.108   5.165   0.661 -0.1367 -0.4480 -0.8618
11557TIP3    H256087   6.071   5.197   0.517 -1.3623  0.5113 -0.3443
11558TIP3   OH256088   5.261   1.786   1.592  0.2904 -0.3031  0.4727
11558TIP3    H156089   5.213   1.705   1.576 -0.9680  0.5186  0.0487
11558TIP3    H256090   5.329   1.787   1.525  0.9282 -1.4648  1.0752
11559TIP3   OH256091   0.755   0.692   1.401  0.3968  0.0453 -0.4689
11559TIP3    H156092   0.826   0.674   1.462 -0.1116  1.2334  0.4879
11559TIP3    H256093   0.798   0.698   1.315  1.4810  0.9003  0.1180
11560TIP3   OH256094   2.667   5.846   0.868 -0.1751 -0.0733  0.3650
11560TIP3    H156095   2.679   5.832   0.961 -0.5252 -1.2942  0.2325
11560TIP3    H256096   2.573   5.858   0.857 -0.0270  1.1111  0.2971
11561TIP3   OH256097   2.514   2.641   5.478  0.2033  0.6050  0.3919
11561TIP3    H156098   2.557   2.556   5.476 -1.2218 -0.1102  0.0848
11561TIP3    H256099   2.488   2.653   5.569  0.9042  0.9799  0.5506
11562TIP3   OH256100   1.841   0.437  11.322  0.6695 -0.0756 -0.0114
11562TIP3    H156101   1.936   0.439  11.310  0.9067 -2.7886  0.9483
11562TIP3    H256102   1.806   0.432  11.233  1.2743  2.9688 -0.4837
11563TIP3   OH256103   2.459   0.882   2.629  0.1441 -0.1816 -0.0746
11563TIP3    H156104   2.436   0.965   2.588  1.1702  0.0121 -0.2712
11563TIP3    H256105   2.554   0.886   2.640  0.3438 -1.7370 -1.0281
11564TIP3   OH256106   2.530   3.152  12.672  0.1896  0.0075 -0.0183
11564TIP3    H156107   2.574   3.072  12.702 -0.1510 -0.7534 -1.5315
11564TIP3    H256108   2.599   3.218  12.671  0.7815 -0.6059 -0.1384
11565TIP3   OH256109   1.573   0.025   5.350  0.0859  0.2167  0.3454
11565TIP3    H156110   1.633  -0.048   5.365  1.9751  1.7954  0.6669
11565TIP3    H256111   1.524   0.001   5.271  0.2087 -1.6729  0.8289
11566TIP3   OH256112   3.233   4.664   0.548  0.2554  0.5106  0.4622
11566TIP3    H156113   3.246   4.571   0.566  0.3422 -0.3639 -3.6129
11566TIP3    H256114   3.141   4.672   0.523  0.4826  1.3221 -0.1587
11567TIP3   OH256115   5.459   4.341   2.899 -0.0910  0.6038 -0.7733
11567TIP3    H156116   5.486   4.365   2.810 -0.3913  1.1957 -0.7035
11567TIP3    H256117   5.364   4.337   2.895 -0.0068 -1.5182 -1.0197
11568TIP3   OH256118   0.364   5.393  13.298 -0.1103 -0.6099  0.6049
11568TIP3    H156119   0.393   5.481  13.272  0.9033 -1.0937  0.0521
11568TIP3    H256120   0.272   5.404  13.321  0.3728  0.8774  1.8957
11569TIP3   OH256121   3.641   2.824  11.949 -0.3060  0.1350  0.1358
11569TIP3    H156122   3.715   2.840  12.006 -0.4064  0.3082  0.2183
11569TIP3    H256123   3.670   2.854  11.862 -0.4409  0.6442  0.2601
11570TIP3   OH256124   2.635   5.005  13.992  0.1892 -0.0239 -0.1841
11570TIP3    H156125   2.725   4.976  14.007 -0.4071 -1.0848  1.5891
11570TIP3    H256126   2.621   4.992  13.899  1.6199 -0.6193 -0.3326
11571TIP3   OH256127   5.882   3.693  15.631 -0.3507  0.2470 -0.4721
11571TIP3    H156128   5.916   3.613  15.591 -0.5681 -0.6901  1.1569
11571TIP3    H256129   5.958   3.749  15.642  0.2219 -0.6960  0.5260
11572TIP3   OH256130   1.126   0.380  12.560 -0.4992  0.4589  0.1273
11572TIP3    H156131   1.202   0.412  12.512 -0.2630 -1.5720 -0.8927
11572TIP3    H256132   1.095   0.456  12.609  1.9415  1.4049  0.2533
11573TIP3   OH256133   6.336   1.902  16.031  0.3023 -0.5638  0.4466
11573TIP3    H156134   6.338   1.918  16.126  1.2075  0.8924  0.2043
11573TIP3    H256135   6.342   1.990  15.993 -0.3992 -1.1182 -0.9652
11574TIP3   OH256136   4.453   1.822   1.542 -0.0245 -0.5664 -0.3634
11574TIP3    H156137   4.547   1.828   1.529  0.1497 -2.8281 -0.4021
11574TIP3    H256138   4.443   1.790   1.632 -0.7988  1.0066  0.1234
11575TIP3   OH256139   3.405   1.903   5.566  0.3685 -0.2741  0.5894
11575TIP3    H156140   3.483   1.859   5.533  0.5299 -0.0051  0.6078
11575TIP3    H256141   3.381   1.854   5.645 -0.3068 -1.2212 -0.1947
11576TIP3   OH256142   4.420   1.403   5.443 -0.4874 -0.3498 -0.0890
11576TIP3    H156143   4.477   1.329   5.423  0.6618  0.8743 -1.3662
11576TIP3    H256144   4.418   1.406   5.539  1.4595 -0.5025 -0.0244
11577TIP3   OH256145   3.257   2.982   6.269  0.4600  0.1100 -0.1799
11577TIP3    H156146   3.228   2.904   6.316  2.9108 -0.4055  0.5624
11577TIP3    H256147   3.297   2.949   6.189 -0.3424  0.7414 -0.8475
11578TIP3   OH256148   1.549   2.120  11.252  0.4437  0.0143  0.1537
11578TIP3    H156149   1.582   2.210  11.244 -1.4693  0.8243  1.1608
11578TIP3    H256150   1.542   2.089  11.162 -0.6707  1.5585 -0.3208
11579TIP3   OH256151   3.150   5.847  16.789  0.0689  0.4728  0.0294
11579TIP3    H156152   3.187   5.769  16.747 -0.2936 -0.0604  0.6953
11579TIP3    H256153   3.217   5.914  16.779  1.5807 -0.7139  1.9630
11580TIP3   OH256154   4.377   4.963   1.173 -0.5791  0.2559 -0.1698
11580TIP3    H156155   4.346   4.899   1.108  1.9257 -0.7571 -0.4219
11580TIP3    H256156   4.466   4.984   1.145 -0.6306  2.3036  1.1075
11581TIP3   OH256157   1.643   6.648   5.859  0.3608  0.0562  0.4263
11581TIP3    H156158   1.581   6.592   5.812  2.6558 -1.7858 -0.5029
11581TIP3    H256159   1.668   6.596   5.936  0.3362  1.0241  1.0925
11582TIP3   OH256160   2.547   6.250   1.239 -0.1248  0.0987  0.5901
11582TIP3    H156161   2.492   6.275   1.165 -0.9394 -0.2817  1.0595
11582TIP3    H256162   2.576   6.333   1.278 -1.1161  0.3091  0.8896
11583TIP3   OH256163   0.997   3.648   3.705 -0.2781 -0.5902 -0.2754
11583TIP3    H156164   0.919   3.695   3.735 -0.5352 -1.2808  0.1445
11583TIP3    H256165   0.999   3.663   3.611  0.0704  0.8973 -0.0492
11584TIP3   OH256166   6.203   0.184  15.671  0.0633 -0.3367 -0.2068
11584TIP3    H156167   6.116   0.197  15.707 -0.9833  2.5370 -3.5323
11584TIP3    H256168   6.258   0.246  15.719 -0.6767  1.1215 -1.2008
11585TIP3   OH256169   3.576   6.662   2.363 -0.2745 -0.5229 -0.0082
11585TIP3    H156170   3.597   6.586   2.308 -0.8945  0.1532 -1.1783
11585TIP3    H256171   3.492   6.693   2.331 -1.3489 -0.9798  2.2649
11586TIP3   OH256172   5.404   0.804  14.550  0.1046 -0.2097 -0.3530
11586TIP3    H156173   5.492   0.779  14.578  0.0529 -0.0894 -0.0801
11586TIP3    H256174   5.355   0.722  14.547  0.6986 -0.5255 -2.2428
11587TIP3   OH256175   2.975   4.567  16.945  0.7274 -0.0651  0.4385
11587TIP3    H156176   3.013   4.487  16.909 -0.8905 -0.2779 -0.9022
11587TIP3    H256177   3.023   4.638  16.904  0.9117 -0.3425  0.1796
11588TIP3   OH256178   3.395   3.193   1.786 -0.3347 -0.0208  0.1692
11588TIP3    H156179   3.325   3.196   1.721 -1.7185  2.1202  1.7294
11588TIP3    H256180   3.474   3.175   1.735 -1.8540 -1.5154 -1.7150
11589TIP3   OH256181   6.734   2.642   2.710  0.2749  0.1034 -0.3397
11589TIP3    H156182   6.822   2.663   2.679  0.8251  0.6705  1.5640
11589TIP3    H256183   6.715   2.557   2.670  0.9313  0.8328 -2.2582
11590TIP3   OH256184   4.627   4.047   4.609  0.2248 -0.3086 -0.0505
11590TIP3    H156185   4.555   4.042   4.547 -0.4195  1.3209  0.5519
11590TIP3    H256186   4.697   4.090   4.562 -0.5528  1.7047  0.5949
11591TIP3   OH256187   6.022   3.361   0.182  0.1301 -0.0551 -0.1523
11591TIP3    H156188   6.055   3.274   0.160 -0.0603 -0.1012 -0.2529
11591TIP3    H256189   6.011   3.359   0.278  1.3041  0.2677 -0.0098
11592TIP3   OH256190   4.955   0.476  11.472 -0.1081 -0.2752  0.0830
11592TIP3    H156191   4.917   0.520  11.548  0.5906 -1.3169  1.0566
11592TIP3    H256192   5.021   0.537  11.440 -1.4626  0.8308 -0.6216
11593TIP3   OH256193   4.207   2.831  13.304 -0.1428 -0.7439 -0.0289
11593TIP3    H156194   4.279   2.835  13.367 -0.1747  1.6392 -0.0803
11593TIP3    H256195   4.208   2.917  13.262 -3.6655 -0.2916  0.6716
11594TIP3   OH256196   5.833   4.709   0.560  0.5113  0.2653 -0.1798
11594TIP3    H156197   5.923   4.725   0.589  0.4379  1.0810 -0.3821
11594TIP3    H256198   5.779   4.751   0.627  0.3375  2.0587 -1.4237
11595TIP3   OH256199   5.113   1.524  17.191 -0.0829  0.6682  0.2033
11595TIP3    H156200   5.019   1.538  17.190 -0.2252  0.1003  2.8196
11595TIP3    H256201   5.136   1.522  17.284  2.5400  1.0200 -0.3969
11596TIP3   OH256202   6.676   0.022  16.794 -0.2084  0.0917 -0.3206
11596TIP3    H156203   6.585   0.021  16.764 -0.4444 -0.9852  0.3907
11596TIP3    H256204   6.721   0.080  16.733 -1.7098  2.0110  0.3470
11597TIP3   OH256205   0.753   1.700   5.288  0.1099 -0.1572  0.6991
11597TIP3    H156206   0.771   1.636   5.358  0.3958 -2.0812 -1.0830
11597TIP3    H256207   0.840   1.724   5.255 -0.0964 -0.7195 -0.2645
11598TIP3   OH256208   2.095   6.097  16.912  0.7472  0.0541  0.0052
11598TIP3    H156209   2.014   6.134  16.946  0.3085 -1.0019  0.1225
11598TIP3    H256210   2.151   6.087  16.989  0.5696 -0.2696  0.0904
11599TIP3   OH256211   4.386   6.008  15.894  0.2079 -0.1500 -0.0842
11599TIP3    H156212   4.327   6.083  15.891  0.4898  0.1327  1.1006
11599TIP3    H256213   4.474   6.047  15.903  0.2657 -0.6180  1.5576
11600TIP3   OH256214   1.006   5.465   1.360 -0.0243 -0.0255 -0.4176
11600TIP3    H156215   0.932   5.527   1.360  1.3823  1.7148 -1.5793
11600TIP3    H256216   0.981   5.398   1.424 -2.7384  0.3548 -1.0018
11601TIP3   OH256217   2.806   4.931   0.061 -0.2660  0.1544  0.0504
11601TIP3    H156218   2.737   4.981   0.105  0.1878  0.3845  0.5082
11601TIP3    H256219   2.855   4.890   0.132 -0.6982 -1.0464 -0.3270
11602TIP3   OH256220   3.873   2.309   2.611  0.1896 -0.3580 -0.0719
11602TIP3    H156221   3.812   2.378   2.583  1.1272  0.2119 -0.7516
11602TIP3    H256222   3.865   2.307   2.706 -1.7275 -1.0760 -0.2333
11603TIP3   OH256223   6.072   6.647   0.018 -0.0416 -0.3508  0.3720
11603TIP3    H156224   6.073   6.680   0.108  2.0147  0.4243  0.0993
11603TIP3    H256225   6.080   6.553   0.027 -0.9552 -0.3769  1.0205
11604TIP3   OH256226   2.584   6.187  16.514 -0.1285 -0.2305 -0.2973
11604TIP3    H156227   2.535   6.181  16.596  3.1469 -2.6219  1.6110
11604TIP3    H256228   2.521   6.159  16.447 -2.1268 -0.7181  1.7132
11605TIP3   OH256229   0.925   4.989  14.300 -0.0150 -0.3021  0.1514
11605TIP3    H156230   0.882   4.906  14.320  1.8553 -1.1634  0.7537
11605TIP3    H256231   0.990   4.967  14.233 -0.3010  0.9165 -0.5438
11606TIP3   OH256232   4.359   1.041   3.168  0.3373  0.4718 -0.2543
11606TIP3    H156233   4.414   0.962   3.163 -0.9764 -0.4149 -1.1830
11606TIP3    H256234   4.411   1.109   3.125  1.4710  0.1139  0.5158
11607TIP3   OH256235   1.394   0.352   0.876 -0.2480  0.2395 -0.2133
11607TIP3    H156236   1.369   0.443   0.890  3.2453  1.4369 -1.1855
11607TIP3    H256237   1.408   0.316   0.964 -1.2399  0.7538  0.1518
11608TIP3   OH256238   2.087   5.443   5.025  0.3021 -0.3612 -0.0132
11608TIP3    H156239   2.083   5.512   4.959  0.1170 -0.1869  0.1823
11608TIP3    H256240   1.999   5.439   5.062  1.2829  2.1035  2.8443
11609TIP3   OH256241   2.454   1.647  12.821 -0.6759 -0.1271  0.0525
11609TIP3    H156242   2.456   1.558  12.857  0.5962  0.1731  0.7586
11609TIP3    H256243   2.475   1.702  12.896 -1.3506  0.7658 -0.4135
11610TIP3   OH256244   1.005   4.666  11.527  0.6185  0.3099 -0.3522
11610TIP3    H156245   1.062   4.599  11.489  0.2171 -1.0051  1.2811
11610TIP3    H256246   0.928   4.617  11.558  0.9740  1.2879  2.1820
11611TIP3   OH256247   6.402   6.539   4.029 -0.2179  0.3110 -0.4079
11611TIP3    H156248   6.313   6.504   4.026 -0.1269  0.0877 -0.6126
11611TIP3    H256249   6.427   6.534   4.121 -0.9238  1.6737 -0.1390
11612TIP3   OH256250   5.965   1.775   2.776  0.3642 -0.1156 -0.1133
11612TIP3    H156251   6.042   1.806   2.729 -0.7516  2.0445 -0.6095
11612TIP3    H256252   5.891   1.809   2.725 -0.9645 -3.2604 -0.4251
11613TIP3   OH256253   0.184   2.495  13.980 -0.2467  0.4393 -0.1153
11613TIP3    H156254   0.102   2.522  13.938 -0.8509  0.6893  1.1783
11613TIP3    H256255   0.159   2.477  14.071  1.2984  1.4285  0.5263
11614TIP3   OH256256   2.792   3.009  16.677 -0.1250 -0.0778  0.2090
11614TIP3    H156257   2.752   2.924  16.695  0.6210 -0.5162 -0.1673
11614TIP3    H256258   2.838   3.031  16.758 -0.5755  0.1097  0.4104
11615TIP3   OH256259   0.360   2.537   4.119 -0.1562  0.3045 -0.2652
11615TIP3    H156260   0.281   2.495   4.155 -0.6885  1.4375 -0.0824
11615TIP3    H256261   0.372   2.497   4.033 -0.9709  0.1558 -0.3156
11616TIP3   OH256262   2.283   4.667  15.042 -0.2541  0.0573  0.1413
11616TIP3    H156263   2.301   4.635  15.130  1.7585 -1.5160 -0.8065
11616TIP3    H256264   2.370   4.685  15.005 -1.1484  2.4552 -0.8931
11617TIP3   OH256265   6.478   0.859   5.294  0.1677  0.2749  0.2939
11617TIP3    H156266   6.556   0.835   5.244 -0.5945 -0.5638 -0.5282
11617TIP3    H256267   6.510   0.916   5.364  1.7188 -1.3545  0.9235
11618TIP3   OH256268   2.247   5.010  15.608 -0.2878  0.3397 -0.2369
11618TIP3    H156269   2.284   4.978  15.525 -1.0819 -0.0194 -0.4605
11618TIP3    H256270   2.152   4.997  15.598 -0.3496 -0.1359  0.9085
11619TIP3   OH256271   1.841   2.359   1.781 -0.3175  0.3162 -0.1270
11619TIP3    H156272   1.931   2.386   1.767 -0.4924  2.1419  1.8496
11619TIP3    H256273   1.789   2.431   1.745 -0.9495 -0.0383  0.0662
11620TIP3   OH256274   0.138   1.015   2.062  0.3253  0.0474  0.3088
11620TIP3    H156275   0.179   0.937   2.027 -0.6123 -1.0171  1.5332
11620TIP3    H256276   0.201   1.051   2.123 -0.0978 -0.9710  1.3619
11621TIP3   OH256277   3.154   0.498  12.411  0.2764 -0.4487 -0.6930
11621TIP3    H156278   3.063   0.528  12.414  0.6633  0.7539 -0.4853
11621TIP3    H256279   3.153   0.414  12.457 -0.8230 -0.7110 -1.1697
11622TIP3   OH256280   3.861   6.759  12.891  0.4880 -0.3892 -0.4797
11622TIP3    H156281   3.932   6.817  12.917  0.5585 -1.2353  1.2392
11622TIP3    H256282   3.855   6.770  12.796 -0.4684  3.5496 -0.0517
11623TIP3   OH256283   5.335   2.513   6.297 -0.0376 -0.2308  0.1866
11623TIP3    H156284   5.355   2.420   6.296 -1.4222 -0.5392 -0.5827
11623TIP3    H256285   5.325   2.535   6.390  1.7384 -0.5142  0.4457
11624TIP3   OH256286   3.671   1.300  12.425 -0.2542 -0.5526  0.4115
11624TIP3    H156287   3.722   1.287  12.346  2.9857  1.4217  2.0291
11624TIP3    H256288   3.584   1.327  12.395 -0.1327 -3.1880 -2.4307
11625TIP3   OH256289   2.805   1.188   2.696  0.2038  0.5576  0.1839
11625TIP3    H156290   2.729   1.145   2.655 -1.4157  1.0630  2.5603
11625TIP3    H256291   2.804   1.158   2.787  1.9583  1.7770  0.6312
11626TIP3   OH256292   2.846   2.612  14.667  0.1861  0.5327 -0.6485
11626TIP3    H156293   2.879   2.676  14.604 -0.7975  0.4521 -1.2560
11626TIP3    H256294   2.849   2.658  14.751 -0.0193  1.1913 -1.0001
11627TIP3   OH256295   2.168   4.343   0.069  0.3279 -0.0327 -0.0821
11627TIP3    H156296   2.180   4.311  -0.020  1.3792 -0.6587  0.2736
11627TIP3    H256297   2.231   4.415   0.077  0.1975  0.0570  0.1380
11628TIP3   OH256298   5.702   1.966  14.085  0.7402 -0.8206  0.1010
11628TIP3    H156299   5.663   1.923  14.161 -0.8163 -0.0111 -0.2200
11628TIP3    H256300   5.678   1.910  14.011 -0.0675 -0.1866 -0.1295
11629TIP3   OH256301   6.289   3.895   1.006  0.0710 -0.2949  0.3440
11629TIP3    H156302   6.339   3.820   1.038  0.1201  0.4668  2.0765
11629TIP3    H256303   6.318   3.906   0.915  0.9923 -1.5889  0.4744
11630TIP3   OH256304   1.899   4.635   5.972  0.0844  0.3142 -0.0270
11630TIP3    H156305   1.982   4.663   6.010 -0.2370  1.7743 -0.3770
11630TIP3    H256306   1.867   4.566   6.031  1.1295  0.3399  0.5733
11631TIP3   OH256307   5.541   3.935  16.015  0.4931  0.7562  0.0672
11631TIP3    H156308   5.607   3.868  16.037  0.3384  0.1906 -1.1438
11631TIP3    H256309   5.519   3.918  15.924 -0.5038  1.6708  0.1252
11632TIP3   OH256310   0.741   5.195   0.889  0.0252  0.0756 -0.3113
11632TIP3    H156311   0.786   5.134   0.831 -0.8561  1.4587 -2.5131
11632TIP3    H256312   0.763   5.165   0.977  0.0843 -3.0601 -1.3263
11633TIP3   OH256313   0.307   6.681   6.430 -0.3772  0.2880 -0.3415
11633TIP3    H156314   0.370   6.640   6.489 -0.0381  1.8563  0.4031
11633TIP3    H256315   0.250   6.609   6.402  1.1447 -0.9775 -0.2812
11634TIP3   OH256316   0.542   5.460   0.222 -0.2185  0.4457 -0.5217
11634TIP3    H156317   0.579   5.523   0.283 -2.3325  3.0264 -1.8137
11634TIP3    H256318   0.569   5.375   0.257  0.6212  1.9211  2.6543
11635TIP3   OH256319   5.137   2.458  14.648  0.4935 -0.1235  0.3858
11635TIP3    H156320   5.141   2.483  14.556  2.2632 -1.3038  0.1100
11635TIP3    H256321   5.080   2.381  14.649  2.2591 -1.4682 -0.0721
11636TIP3   OH256322   4.387   3.329  15.315 -0.3425  0.1807  0.7581
11636TIP3    H156323   4.390   3.420  15.285  1.0735 -0.1393 -0.0856
11636TIP3    H256324   4.296   3.316  15.342 -0.4903  1.9373  1.1740
11637TIP3   OH256325   6.152   5.041   2.064 -0.4173  0.0645 -0.4122
11637TIP3    H156326   6.091   5.110   2.037 -2.1505 -1.5736 -0.8121
11637TIP3    H256327   6.226   5.050   2.004 -1.0513  0.9773 -1.0729
11638TIP3   OH256328   3.215   4.961   2.278  0.0301  0.0112 -0.1343
11638TIP3    H156329   3.145   4.919   2.327 -0.6623  2.5340  1.1592
11638TIP3    H256330   3.170   5.015   2.213  0.6590  2.4565  1.3722
11639TIP3   OH256331   2.123   5.059  16.244  0.4433  0.0006  0.0923
11639TIP3    H156332   2.190   5.112  16.286  0.8453  0.8987 -1.6129
11639TIP3    H256333   2.049   5.118  16.232  0.8332  0.1690 -1.6671
11640TIP3   OH256334   0.448   4.460   4.259 -0.3383 -0.2677  0.6280
11640TIP3    H156335   0.370   4.439   4.208 -0.1298  0.0143  0.1919
11640TIP3    H256336   0.421   4.446   4.350 -0.7034 -0.7905  0.4409
11641TIP3   OH256337   5.707   2.411   0.389  0.2581  0.1042  0.2739
11641TIP3    H156338   5.767   2.425   0.462  1.5024  1.5600 -0.9894
11641TIP3    H256339   5.726   2.321   0.360  1.4266  0.3548  0.2471
11642TIP3   OH256340   4.364   2.060  14.921 -0.3727  0.0332 -0.0667
11642TIP3    H156341   4.332   2.051  15.011 -0.9504  0.0584 -0.2686
11642TIP3    H256342   4.383   1.970  14.894  2.2504  0.2314  0.9554
11643TIP3   OH256343   1.277   0.209   4.513  0.4332  0.5372 -0.6934
11643TIP3    H156344   1.329   0.146   4.563 -0.1456  0.6360  0.0485
11643TIP3    H256345   1.206   0.233   4.572  0.4593  1.6326 -1.0951
11644TIP3   OH256346   5.966   0.171  15.344 -0.0895 -0.2396 -0.2074
11644TIP3    H156347   6.002   0.238  15.285 -0.6584  0.0866 -0.1841
11644TIP3    H256348   5.914   0.221  15.407 -0.9304 -0.7565 -0.4869
11645TIP3   OH256349   4.598   6.435  10.253  0.1775 -0.0221  0.2416
11645TIP3    H156350   4.568   6.525  10.243 -1.4374 -0.4919  0.7629
11645TIP3    H256351   4.693   6.439  10.237 -0.0857  1.5505 -0.9582
11646TIP3   OH256352   3.429   0.288   4.947 -0.1023  0.3586 -0.1022
11646TIP3    H156353   3.508   0.340   4.954 -0.4199  0.8879 -0.4343
11646TIP3    H256354   3.435   0.246   4.861  0.0112  0.0777  0.0419
11647TIP3   OH256355   0.737   2.562   3.755  0.3908  0.0482 -0.3037
11647TIP3    H156356   0.801   2.534   3.820  1.6225 -0.4912 -1.7201
11647TIP3    H256357   0.666   2.497   3.760 -0.6043  1.2617  2.0354
11648TIP3   OH256358   4.776   0.640  11.106  0.3740  0.2703 -0.0175
11648TIP3    H156359   4.860   0.682  11.127 -0.3941  1.9675 -0.2884
11648TIP3    H256360   4.793   0.592  11.024  1.7115 -1.3879  1.1848
11649TIP3   OH256361   1.176   5.775   3.575 -0.4109 -0.3169  0.5570
11649TIP3    H156362   1.194   5.868   3.565 -0.9288 -0.2100  0.6296
11649TIP3    H256363   1.258   5.732   3.551 -0.2431  0.1475  0.2996
11650TIP3   OH256364   3.909   1.169   3.254  0.1058 -0.2818  0.2589
11650TIP3    H156365   3.952   1.249   3.285  1.5050 -1.2835  0.9890
11650TIP3    H256366   3.965   1.098   3.285 -1.4720 -1.5904  0.2161
11651TIP3   OH256367   6.163   1.133   6.856  0.1510 -0.0529  0.5224
11651TIP3    H156368   6.227   1.065   6.876  0.8206  0.6107  0.6187
11651TIP3    H256369   6.195   1.211   6.900  0.7122  0.9748 -1.6507
11652TIP3   OH256370   0.713   0.331  16.497 -0.3873  0.1243  0.0215
11652TIP3    H156371   0.739   0.364  16.411 -0.2362  0.8931  0.3562
11652TIP3    H256372   0.645   0.266  16.478  0.0787 -0.1550 -0.7140
11653TIP3   OH256373   0.728   1.450  15.682  0.2654 -0.0956  0.1450
11653TIP3    H156374   0.796   1.516  15.666 -0.2333  0.6879  1.1884
11653TIP3    H256375   0.777   1.368  15.693  1.1355  0.6023  1.7221
11654TIP3   OH256376   4.322   3.732   2.567  0.5513  0.1964  0.5327
11654TIP3    H156377   4.332   3.818   2.609  1.7290 -0.3043  1.2985
11654TIP3    H256378   4.408   3.712   2.531  0.2351 -0.5893  0.1915
11655TIP3   OH256379   4.236   2.589   1.241 -0.1150 -0.3033 -0.0169
11655TIP3    H156380   4.246   2.595   1.146 -2.5585  1.2063 -0.2236
11655TIP3    H256381   4.323   2.611   1.275  0.5604  0.0352 -1.8762
11656TIP3   OH256382   4.144   1.524  14.429  0.3983  0.2519 -0.4207
11656TIP3    H156383   4.146   1.564  14.515  2.7138  0.0111 -0.3230
11656TIP3    H256384   4.051   1.519  14.406 -0.3317 -0.8135  2.5628
11657TIP3   OH256385   1.269   3.443  14.756  0.4821  0.1165  0.2692
11657TIP3    H156386   1.268   3.511  14.688 -1.7960  1.0944  1.2368
11657TIP3    H256387   1.359   3.443  14.789  0.8547  1.6980 -0.7037
11658TIP3   OH256388   4.121   2.186   6.634 -0.8367  0.0204  0.0671
11658TIP3    H156389   4.149   2.250   6.699 -0.5726  1.4351 -1.4109
11658TIP3    H256390   4.200   2.134   6.616 -0.2462  1.2894 -1.0140
11659TIP3   OH256391   2.073   0.853  16.815  0.2343 -0.0073 -0.0045
11659TIP3    H156392   2.021   0.907  16.755  0.9138 -0.4518 -1.0004
11659TIP3    H256393   2.023   0.772  16.824  1.1574 -0.8022 -1.6744
11660TIP3   OH256394   2.353   4.557   2.887  0.3356 -0.2760 -0.3584
11660TIP3    H156395   2.379   4.533   2.798  2.4422 -0.0610  0.1713
11660TIP3    H256396   2.303   4.638   2.876 -1.0387 -1.2519 -1.5051
11661TIP3   OH256397   1.810   2.792   5.567  0.5202  0.0937 -0.3444
11661TIP3    H156398   1.780   2.855   5.501 -1.9916 -0.3523  0.3462
11661TIP3    H256399   1.872   2.736   5.519 -1.5403 -0.4687 -2.4893
11662TIP3   OH256400   3.246   0.672   2.524 -0.4647 -0.4757  0.1767
11662TIP3    H156401   3.221   0.725   2.600 -0.6864  0.2210 -0.3825
11662TIP3    H256402   3.300   0.601   2.561 -0.0494  0.2177  0.9045
11663TIP3   OH256403   2.014   5.104  15.955 -0.2931 -0.1111  0.0889
11663TIP3    H156404   2.091   5.053  15.980 -0.2769 -0.3148 -0.3738
11663TIP3    H256405   1.943   5.068  16.010  0.2098  0.9788  1.4720
11664TIP3   OH256406   5.975   5.261   1.954  0.1596  0.4271 -0.2480
11664TIP3    H156407   5.990   5.355   1.959 -0.9877  0.6080  0.0568
11664TIP3    H256408   5.896   5.247   2.008  1.6969 -1.0371  1.7052
11665TIP3   OH256409   1.607   6.461  15.163 -0.1711  0.3139 -0.5998
11665TIP3    H156410   1.647   6.378  15.136 -2.0298 -0.7777 -0.1096
11665TIP3    H256411   1.512   6.443  15.162 -0.5487  2.1612  0.3928
11666TIP3   OH256412   6.770   6.492  14.790  0.7966 -0.8316 -0.3334
11666TIP3    H156413   6.791   6.399  14.795 -2.2375 -1.5147  0.8028
11666TIP3    H256414   6.769   6.521  14.882 -3.3864 -0.9983 -0.1998
11667TIP3   OH256415   3.773   2.728   2.878  0.7532  0.3966  0.1577
11667TIP3    H156416   3.832   2.699   2.947  1.2642  0.2324 -0.3539
11667TIP3    H256417   3.817   2.705   2.797 -0.2693 -0.2477 -0.2212
11668TIP3   OH256418   3.229   6.346   3.107 -0.3493  0.1740 -0.1460
11668TIP3    H156419   3.164   6.416   3.116 -1.0865 -0.3499 -1.4356
11668TIP3    H256420   3.289   6.378   3.040  0.4457  0.4282  0.6741
11669TIP3   OH256421   6.607   1.450   0.252  0.3415  0.2952 -0.1541
11669TIP3    H156422   6.585   1.377   0.310  2.4567  1.1754  1.8217
11669TIP3    H256423   6.639   1.408   0.172 -1.4515 -0.9342 -0.2543
11670TIP3   OH256424   2.986   0.083  10.193 -0.1720 -0.2934  0.3658
11670TIP3    H156425   3.005   0.163  10.143 -0.5107  0.2267  1.0608
11670TIP3    H256426   3.022   0.012  10.139  0.3379  0.3461 -0.1479
11671TIP3   OH256427   5.512   4.252   5.376  0.2041  0.3392 -0.5841
11671TIP3    H156428   5.426   4.289   5.360  0.2779  1.1909  0.9190
11671TIP3    H256429   5.569   4.295   5.312 -0.2866  0.5347 -0.8926
11672TIP3   OH256430   3.865   3.288   1.685  0.9235 -0.4438 -0.2235
11672TIP3    H156431   3.939   3.243   1.725  0.3281 -0.9178  0.3447
11672TIP3    H256432   3.809   3.313   1.758 -0.5371 -1.9490 -0.7928
11673TIP3   OH256433   1.210   6.696   5.202  0.6977  0.3026  0.2674
11673TIP3    H156434   1.149   6.623   5.209  1.5044 -0.4675 -0.5844
11673TIP3    H256435   1.154   6.774   5.203 -0.2649 -0.3726 -0.0877
11674TIP3   OH256436   6.224   1.423   5.052 -0.1068 -0.6058 -0.5594
11674TIP3    H156437   6.258   1.494   4.997 -0.3948 -0.2532 -0.2797
11674TIP3    H256438   6.195   1.466   5.132 -1.5736 -0.8546 -0.9507
11675TIP3   OH256439   3.940   1.626   0.088 -0.1187 -0.3461  0.1605
11675TIP3    H156440   3.889   1.616   0.169 -1.7567 -1.7689 -1.0197
11675TIP3    H256441   3.980   1.541   0.074  0.4858  0.0151 -0.3102
11676TIP3   OH256442   5.826   0.100   4.429 -0.1973  0.5071  0.4746
11676TIP3    H156443   5.837   0.056   4.513  0.1896 -0.3831 -0.0303
11676TIP3    H256444   5.770   0.041   4.378 -0.2238  0.9181  0.0203
11677TIP3   OH256445   3.243   6.078   1.364 -0.7357  0.2696 -0.1562
11677TIP3    H156446   3.316   6.139   1.360  0.5293 -1.1670  0.3775
11677TIP3    H256447   3.265   6.010   1.300 -1.6367 -0.1226 -0.0574
11678TIP3   OH256448   5.662   1.154   0.037 -0.0610  0.6190  0.0092
11678TIP3    H156449   5.725   1.122   0.101  1.1875  0.0391 -1.4696
11678TIP3    H256450   5.696   1.240   0.012  0.0509  0.3893 -0.6453
11679TIP3   OH256451   3.106   1.065  16.109 -0.7098  0.1637 -0.4630
11679TIP3    H156452   3.120   1.033  16.020 -1.0335 -2.0090  0.2444
11679TIP3    H256453   3.045   1.003  16.148 -0.0110  0.6784  1.5187
11680TIP3   OH256454   6.604   5.767   3.401  0.0782 -1.0354 -1.1071
11680TIP3    H156455   6.679   5.816   3.435 -0.8049 -0.1631 -0.3729
11680TIP3    H256456   6.581   5.811   3.320 -0.3390 -0.5935 -0.7541
11681TIP3   OH256457   6.591   4.190  16.246  0.1555  0.8910 -0.0084
11681TIP3    H156458   6.516   4.166  16.299  1.1647 -1.0411  0.6105
11681TIP3    H256459   6.596   4.285  16.252 -1.0483  0.8707  1.5655
11682TIP3   OH256460   1.898   0.961  13.693  0.6403  0.2881 -0.9830
11682TIP3    H156461   1.861   0.884  13.735  1.5340 -0.1955 -1.0682
11682TIP3    H256462   1.871   0.955  13.602  1.6608 -0.5344 -1.2401
11683TIP3   OH256463   1.092   6.490  16.890  0.0567 -0.4010  0.4006
11683TIP3    H156464   1.147   6.454  16.821  0.0932  1.3189 -0.4668
11683TIP3    H256465   1.153   6.531  16.952 -0.1273 -0.0070  0.3227
11684TIP3   OH256466   0.390   2.811   3.375 -0.1860 -0.3886 -0.1755
11684TIP3    H156467   0.376   2.745   3.307 -0.7568 -1.4826  0.9831
11684TIP3    H256468   0.408   2.761   3.455 -0.5522  0.8436  0.7075
11685TIP3   OH256469   3.985   0.255   0.150  0.5082 -0.4256  0.0149
11685TIP3    H156470   4.050   0.220   0.089 -0.0808 -3.2787  0.9152
11685TIP3    H256471   4.030   0.258   0.234  0.6713  1.4700 -0.1173
11686TIP3   OH256472   5.364   2.373  17.208  0.1505  0.4280  0.0800
11686TIP3    H156473   5.331   2.375  17.298 -0.7107  1.3898 -0.2453
11686TIP3    H256474   5.458   2.363  17.217 -0.1424 -1.9767  1.0434
11687TIP3   OH256475   0.608   3.070   2.934  0.5325  0.8061  0.2244
11687TIP3    H156476   0.700   3.081   2.956 -0.2246  2.3589  2.8785
11687TIP3    H256477   0.568   3.036   3.014 -1.3751  1.1204 -0.5605
11688TIP3   OH256478   2.525   5.597  16.856 -0.3755 -0.0237 -0.6276
11688TIP3    H156479   2.531   5.647  16.775 -0.8045  0.1881 -0.5321
11688TIP3    H256480   2.487   5.658  16.919 -1.2526 -0.5853 -0.6105
11689TIP3   OH256481   0.479   1.695  11.242  0.7204 -0.3012  0.0757
11689TIP3    H156482   0.387   1.667  11.242  0.8879 -0.9115 -1.4121
11689TIP3    H256483   0.514   1.662  11.159  1.8479  1.3782 -0.1429
11690TIP3   OH256484   0.821   3.699  13.797 -0.8464  0.1208  0.1124
11690TIP3    H156485   0.859   3.766  13.741  1.8409 -1.3916  0.0683
11690TIP3    H256486   0.811   3.741  13.882  1.0323  0.5406  0.1471
11691TIP3   OH256487   2.357   3.788  17.117 -0.0527  0.2265 -0.2291
11691TIP3    H156488   2.375   3.881  17.129 -1.1429  0.3859  0.2533
11691TIP3    H256489   2.380   3.749  17.201 -0.0740  0.1333 -0.2673
11692TIP3   OH256490   4.978   6.640   6.218 -0.4828  0.2901  0.1617
11692TIP3    H156491   5.066   6.603   6.216 -1.5838 -2.4312 -0.2175
11692TIP3    H256492   4.920   6.567   6.197 -2.8408  2.0738  0.1304
11693TIP3   OH256493   2.837   6.614  16.501  0.1783  0.1989  0.2675
11693TIP3    H156494   2.847   6.525  16.533 -0.1693  0.6621  1.7061
11693TIP3    H256495   2.755   6.612  16.451 -0.4720 -0.0250  1.3099
11694TIP3   OH256496   2.315   2.864  14.179  0.6659 -0.5301  0.2509
11694TIP3    H156497   2.235   2.838  14.133  0.8012 -2.4781  1.0515
11694TIP3    H256498   2.355   2.930  14.123 -1.1092 -0.1004 -0.5412
11695TIP3   OH256499   4.517   6.420  11.995 -0.7470 -0.3360 -0.0594
11695TIP3    H156500   4.534   6.376  11.912 -0.5275 -0.3816  0.0094
11695TIP3    H256501   4.594   6.475  12.009  1.2159 -3.5117  2.2225
11696TIP3   OH256502   1.544   6.638   1.207  0.1277  0.5943  0.6423
11696TIP3    H156503   1.538   6.560   1.263  1.2128  0.3357  0.4086
11696TIP3    H256504   1.460   6.641   1.162  1.1206 -2.0989 -1.5169
11697TIP3   OH256505   4.088   3.140   2.915 -0.1874  0.0641  0.2021
11697TIP3    H156506   4.087   3.181   3.001 -1.6782  2.8660 -1.0866
11697TIP3    H256507   4.176   3.158   2.881 -0.8316  2.3029 -0.3585
11698TIP3   OH256508   3.313   6.447   2.319 -0.1104 -0.4270 -0.4739
11698TIP3    H156509   3.358   6.376   2.365 -0.1160 -0.6091 -0.7475
11698TIP3    H256510   3.223   6.417   2.310 -0.7162  0.6967  1.6377
11699TIP3   OH256511   1.976   1.015  16.635  0.0727  0.1805  0.0003
11699TIP3    H156512   2.008   0.977  16.554  1.3359  2.0225 -0.3898
11699TIP3    H256513   1.895   1.059  16.611 -1.5257 -2.3875  0.4997
11700TIP3   OH256514   3.209   2.924  16.069  0.4977  0.3466 -0.2748
11700TIP3    H156515   3.143   2.886  16.128  0.8224  1.0345  0.5328
11700TIP3    H256516   3.168   3.004  16.035  0.8508  0.6792  0.0848
11701TIP3   OH256517   3.011   4.806   5.282 -0.4715 -0.4552 -0.1064
11701TIP3    H156518   3.019   4.720   5.241 -0.5046 -0.4840 -0.0496
11701TIP3    H256519   3.098   4.845   5.272 -0.2895 -0.7355  0.4208
11702TIP3   OH256520   3.735   0.377   4.196  0.1866  0.2408 -0.5307
11702TIP3    H156521   3.685   0.308   4.239  1.3919 -0.3219 -0.0085
11702TIP3    H256522   3.776   0.334   4.121  1.1699  0.3124 -0.0437
11703TIP3   OH256523   4.554   0.212  12.587 -0.1954 -0.1772  0.3812
11703TIP3    H156524   4.577   0.148  12.520  0.5787  1.5412 -1.0231
11703TIP3    H256525   4.493   0.272  12.544  1.2096  1.6220  0.8277
11704TIP3   OH256526   5.999   5.527  12.246  0.3976  0.3434 -0.0780
11704TIP3    H156527   5.994   5.433  12.261  0.1962  0.0597 -1.8165
11704TIP3    H256528   6.012   5.565  12.333 -0.5595 -1.2072  0.7671
11705TIP3   OH256529   6.204   2.415   0.092 -0.1869  0.2153 -0.8888
11705TIP3    H156530   6.127   2.379   0.136 -0.2307  1.5908  0.1890
11705TIP3    H256531   6.205   2.507   0.116  2.4136  0.0079  0.0067
11706TIP3   OH256532   0.588   6.214   6.032  0.0420 -0.1595 -0.8676
11706TIP3    H156533   0.554   6.293   6.074 -1.3100 -2.0362  1.7606
11706TIP3    H256534   0.682   6.214   6.053 -0.1435  0.2605 -0.0120
11707TIP3   OH256535   4.840   1.030  16.700 -0.0705 -0.1890  0.5941
11707TIP3    H156536   4.827   1.027  16.795  0.0424 -1.4148  0.5684
11707TIP3    H256537   4.910   1.094  16.689 -0.8283  0.7791  1.2545
11708TIP3   OH256538   0.295   1.678   0.605 -0.1411  0.1088 -0.6436
11708TIP3    H156539   0.307   1.622   0.527 -0.3146 -0.4678 -0.2611
11708TIP3    H256540   0.242   1.751   0.574  0.3728  0.2423 -1.2355
11709TIP3   OH256541   1.470   4.943  15.198 -0.6475 -0.0604 -0.6451
11709TIP3    H156542   1.528   4.890  15.143  1.0846  1.0485  0.0318
11709TIP3    H256543   1.448   4.886  15.272  0.5299 -0.1367 -0.3387
11710TIP3   OH256544   3.430   4.315  15.898  0.1319  0.1490  1.0631
11710TIP3    H156545   3.368   4.333  15.968  0.0166 -0.2661  1.0724
11710TIP3    H256546   3.380   4.331  15.817 -0.6054 -2.0598  1.0368
11711TIP3   OH256547   6.258   5.290   5.836  0.6502 -0.0245  0.1095
11711TIP3    H156548   6.194   5.222   5.857  0.1470  0.0493 -1.0950
11711TIP3    H256549   6.300   5.310   5.919 -1.3391  0.3690  1.0649
11712TIP3   OH256550   3.250   4.390   0.587 -0.5048  0.4363  0.5626
11712TIP3    H156551   3.322   4.327   0.580 -0.5235  0.3812  0.8510
11712TIP3    H256552   3.173   4.342   0.556 -0.5319  0.2947  0.8483
11713TIP3   OH256553   4.712   2.574   0.930 -0.3590  0.2331 -0.1399
11713TIP3    H156554   4.642   2.511   0.943 -2.2849  1.7071 -2.9930
11713TIP3    H256555   4.785   2.523   0.897 -1.2820 -0.7896 -0.6040
11714TIP3   OH256556   5.362   3.202   3.535  0.2461  0.6827  0.0364
11714TIP3    H156557   5.307   3.227   3.462  0.2367  0.5444 -0.0040
11714TIP3    H256558   5.301   3.189   3.608  0.3143  1.3953  0.2204
11715TIP3   OH256559   2.697   2.067  14.609  0.5023  0.0852  0.0757
11715TIP3    H156560   2.672   2.072  14.701 -1.2976  0.2070 -0.3969
11715TIP3    H256561   2.722   1.975  14.596 -1.2768 -0.4382  0.2025
11716TIP3   OH256562   4.662   3.822  16.581  0.2008 -0.7315  0.4970
11716TIP3    H156563   4.611   3.852  16.657 -1.5651 -1.6831 -0.2922
11716TIP3    H256564   4.598   3.815  16.511  1.6197 -1.0079 -0.7818
11717TIP3   OH256565   0.725   1.463  17.196  0.5576 -0.3562  0.0056
11717TIP3    H156566   0.811   1.482  17.233  0.0266  0.5977  0.7821
11717TIP3    H256567   0.679   1.415  17.265  0.0388  0.2252  0.0674
11718TIP3   OH256568   4.391   5.083   2.553 -0.0016 -0.1410  0.6613
11718TIP3    H156569   4.478   5.052   2.530 -0.0910 -0.9178  1.3248
11718TIP3    H256570   4.335   5.005   2.545 -0.7153  0.4435 -0.1804
11719TIP3   OH256571   3.408   1.613  13.886  0.7603 -0.1537  1.1624
11719TIP3    H156572   3.392   1.706  13.900  0.9763  0.2632 -1.1829
11719TIP3    H256573   3.366   1.594  13.802  0.9857 -2.1055  1.4752
11720TIP3   OH256574   2.863   4.131   1.250 -0.0853 -0.0017  0.2796
11720TIP3    H156575   2.813   4.080   1.186  0.6527  0.2179 -0.4917
11720TIP3    H256576   2.871   4.218   1.210 -0.2285  0.3465  1.0004
11721TIP3   OH256577   0.443   2.665   5.950  0.1967 -0.1084  0.2587
11721TIP3    H156578   0.421   2.726   6.020 -0.5112  2.0460 -1.7696
11721TIP3    H256579   0.523   2.622   5.980  1.7072  3.0772  1.0194
11722TIP3   OH256580   1.303   1.303   1.309  0.0803  0.3787  0.8589
11722TIP3    H156581   1.396   1.314   1.295  0.1360 -0.3129  0.6604
11722TIP3    H256582   1.264   1.308   1.221  0.0599 -0.4900  0.8122
11723TIP3   OH256583   2.396   1.001   0.234 -0.4589 -0.2123  0.0845
11723TIP3    H156584   2.427   0.949   0.160  0.9307 -0.6738  0.9657
11723TIP3    H256585   2.328   1.057   0.198 -0.1386 -0.7924 -1.4332
11724TIP3   OH256586   5.365   5.303  16.703  0.1332  0.8579 -0.7233
11724TIP3    H156587   5.415   5.322  16.624 -0.0799  1.7820 -0.6421
11724TIP3    H256588   5.429   5.306  16.774  0.2157  0.6211 -0.7886
11725TIP3   OH256589   2.894   1.233   1.829 -0.0557 -0.0507 -0.2078
11725TIP3    H156590   2.944   1.294   1.882  2.1331 -1.0960 -1.0152
11725TIP3    H256591   2.895   1.271   1.741  0.4121 -0.7135 -0.4926
11726TIP3   OH256592   2.487   6.667  16.896 -0.5650 -0.1033  0.0120
11726TIP3    H156593   2.519   6.743  16.849  0.3297  0.0168  0.7933
11726TIP3    H256594   2.566   6.618  16.920 -1.0289 -0.4698  0.8451
11727TIP3   OH256595   0.485   5.559  11.281 -0.7498 -0.2290 -0.3718
11727TIP3    H156596   0.544   5.628  11.251 -2.6295  1.7172  0.2955
11727TIP3    H256597   0.481   5.571  11.376 -1.9585 -0.5558 -0.3732
11728TIP3   OH256598   5.826   6.683  12.173  0.1474 -0.1191  0.1508
11728TIP3    H156599   5.779   6.745  12.229 -0.5708 -0.9366  0.4593
11728TIP3    H256600   5.911   6.672  12.215  0.0270  0.1465  0.4591
11729TIP3   OH256601   2.135   3.705  16.960  0.0544  0.5748  0.1574
11729TIP3    H156602   2.208   3.755  16.998  0.2620  0.3056  0.1111
11729TIP3    H256603   2.080   3.772  16.919  1.6203  0.5570 -2.1054
11730TIP3   OH256604   4.418   0.788  13.997  0.2358 -0.1545  0.1742
11730TIP3    H156605   4.366   0.772  13.918 -1.7749  0.2368  1.4066
11730TIP3    H256606   4.387   0.872  14.029  4.2085  1.9130 -1.0648
11731TIP3   OH256607   0.653   6.016  11.905 -0.0649  0.0994 -0.1811
11731TIP3    H156608   0.680   6.096  11.861  0.5724 -0.3078 -0.5445
11731TIP3    H256609   0.735   5.979  11.940 -0.3655 -0.3308  0.0813
11732TIP3   OH256610   4.656   4.016   1.334 -0.3869  0.2079 -0.3551
11732TIP3    H156611   4.736   4.065   1.316 -0.2276  1.0356  2.2847
11732TIP3    H256612   4.585   4.077   1.311 -0.1937  1.2867  1.7530
11733TIP3   OH256613   3.291   6.402   3.845 -0.4475 -0.7276  0.2765
11733TIP3    H156614   3.346   6.479   3.834 -0.3909 -0.9027 -0.7840
11733TIP3    H256615   3.205   6.428   3.810 -0.9822 -0.5184  1.7307
11734TIP3   OH256616   5.837   4.444  17.173 -0.1951  0.3661  0.1740
11734TIP3    H156617   5.803   4.402  17.094  0.6381 -0.0441  0.0234
11734TIP3    H256618   5.788   4.404  17.245 -1.3408  1.1354 -0.1647
11735TIP3   OH256619   2.799   1.211   3.469 -0.1985 -0.0925 -0.0117
11735TIP3    H156620   2.718   1.257   3.492  0.9587  2.6826 -1.1810
11735TIP3    H256621   2.867   1.279   3.473  1.6972 -1.8438 -1.3006
11736TIP3   OH256622   6.454   2.393  12.212 -0.2964  0.2711 -0.3296
11736TIP3    H156623   6.443   2.476  12.259 -1.8507 -0.1350  0.0505
11736TIP3    H256624   6.415   2.408  12.126 -0.6622 -0.0828 -0.2293
11737TIP3   OH256625   3.647   3.800   0.905  0.1351  0.3019  0.4056
11737TIP3    H156626   3.686   3.725   0.949 -1.3079 -0.3240  0.6475
11737TIP3    H256627   3.583   3.834   0.968  0.0748  1.1339 -0.0935
11738TIP3   OH256628   5.410   4.655   1.374 -0.3020  0.6307  0.4930
11738TIP3    H156629   5.339   4.643   1.310  0.9328  0.9578 -0.9811
11738TIP3    H256630   5.448   4.741   1.352  0.0633  0.7984  1.7492
11739TIP3   OH256631   0.885   3.054   4.501  0.2554 -0.2320  0.7026
11739TIP3    H156632   0.967   3.056   4.549  0.3966  0.0429  0.4538
11739TIP3    H256633   0.851   2.966   4.514  0.5442 -0.3160  0.8822
11740TIP3   OH256634   5.430   6.348  12.287 -0.9463  0.3899  0.2393
11740TIP3    H156635   5.444   6.389  12.372 -0.4046 -0.6624  0.6766
11740TIP3    H256636   5.471   6.408  12.225  1.3246 -0.2836  1.0380
11741TIP3   OH256637   1.334   6.424  13.032 -0.2117  0.3560  0.4511
11741TIP3    H156638   1.269   6.478  13.078 -0.9002 -0.7659  0.8326
11741TIP3    H256639   1.303   6.335  13.045 -0.3085  0.0074 -2.0374
11742TIP3   OH256640   0.707   6.651   2.022  0.1878  0.4073 -0.1495
11742TIP3    H156641   0.726   6.595   1.947  0.9040  0.6921 -0.1852
11742TIP3    H256642   0.652   6.721   1.988 -0.9917 -0.4570 -0.0367
11743TIP3   OH256643   5.602   3.337   1.859 -0.2304 -0.0508  0.1595
11743TIP3    H156644   5.685   3.293   1.873 -0.5478 -1.4781 -2.1489
11743TIP3    H256645   5.623   3.407   1.797 -0.6297  0.0057  0.0880
11744TIP3   OH256646   5.147   1.339   4.054 -0.1935  0.1148 -0.6774
11744TIP3    H156647   5.136   1.244   4.045 -0.8696  0.1684 -0.4283
11744TIP3    H256648   5.079   1.376   3.997 -0.4472  0.4530 -0.1495
11745TIP3   OH256649   4.100   4.643   1.482 -0.1658 -0.4217 -0.2341
11745TIP3    H156650   4.014   4.659   1.520 -0.7508  1.9692 -2.4308
11745TIP3    H256651   4.160   4.695   1.537 -0.2927 -1.0272  0.4826
11746TIP3   OH256652   1.903   2.155   5.053 -0.2977  0.2709  0.3632
11746TIP3    H156653   1.979   2.100   5.072 -0.8020 -0.4121  0.4029
11746TIP3    H256654   1.935   2.219   4.989  0.1919 -0.2871  0.0543
11747TIP3   OH256655   6.241   0.476   6.272  0.8524 -0.3719  0.0436
11747TIP3    H156656   6.199   0.548   6.320  0.7628  1.3030 -2.4358
11747TIP3    H256657   6.323   0.460   6.319 -0.1961 -0.2351  1.9692
11748TIP3   OH256658   3.997   0.643   2.502  0.0965  0.2129 -0.5857
11748TIP3    H156659   4.084   0.683   2.513 -0.1723  0.3739  1.0699
11748TIP3    H256660   3.949   0.705   2.447  0.2733  1.3134  0.4711
11749TIP3   OH256661   1.515   5.490  11.300 -0.0298 -0.8239  0.0480
11749TIP3    H156662   1.475   5.577  11.299 -1.0291 -1.2662  0.9229
11749TIP3    H256663   1.538   5.473  11.208 -0.6225  0.0034 -0.2586
11750TIP3   OH256664   0.252   1.339   3.818 -0.2271 -0.0740  0.0115
11750TIP3    H156665   0.273   1.365   3.728 -2.8474 -1.0198 -0.9523
11750TIP3    H256666   0.158   1.358   3.826  0.2577  1.2928  3.0360
11751TIP3   OH256667   1.427   2.434   4.065 -0.3867  0.1294 -0.4411
11751TIP3    H156668   1.462   2.358   4.112  0.2953  0.6503 -0.1013
11751TIP3    H256669   1.408   2.498   4.133  0.4281  0.8151 -0.8508
11752TIP3   OH256670   5.937   0.749   0.987  0.2615 -0.7700 -0.0767
11752TIP3    H156671   6.015   0.698   1.010 -0.8831 -2.2076  0.7128
11752TIP3    H256672   5.955   0.836   1.024  2.2243 -0.5612 -1.4168
11753TIP3   OH256673   4.030   5.647  17.144 -0.3137  0.1266 -0.4767
11753TIP3    H156674   3.965   5.712  17.171  0.8047  1.0912 -0.0226
11753TIP3    H256675   3.981   5.566  17.134 -0.9647 -0.0838  3.6389
11754TIP3   OH256676   1.431   4.214   2.045  0.1069  0.4427  0.3173
11754TIP3    H156677   1.347   4.258   2.030 -0.5275 -0.7425  0.3624
11754TIP3    H256678   1.468   4.203   1.957  0.0820  0.7071  0.2740
11755TIP3   OH256679   1.801   3.891  12.476  0.1198  0.0726  0.3645
11755TIP3    H156680   1.770   3.978  12.500 -0.5304  0.1134 -0.5619
11755TIP3    H256681   1.894   3.892  12.494 -0.3414  0.0690  2.9311
11756TIP3   OH256682   0.408   1.315  16.847 -0.1800 -0.4978  0.2202
11756TIP3    H156683   0.328   1.360  16.874 -0.2458  0.2140 -1.1408
11756TIP3    H256684   0.474   1.342  16.911 -0.1595  1.7341 -0.6955
11757TIP3   OH256685   1.273   1.749  14.912  0.5100  0.2409 -0.5035
11757TIP3    H156686   1.194   1.776  14.958  1.2575  0.5981  0.5821
11757TIP3    H256687   1.308   1.677  14.964  0.3680 -0.5650 -1.5200
11758TIP3   OH256688   6.170   6.648  11.396 -0.3144  0.2093 -0.9835
11758TIP3    H156689   6.222   6.726  11.380 -0.7891  1.2378  2.2423
11758TIP3    H256690   6.232   6.584  11.431 -0.6529  0.4383  0.0389
11759TIP3   OH256691   1.180   1.558  15.485  0.1376 -0.2186  0.1334
11759TIP3    H156692   1.164   1.632  15.427  2.2364  0.6333  0.5703
11759TIP3    H256693   1.206   1.598  15.568  2.7627 -1.3969 -0.0540
11760TIP3   OH256694   3.202   3.419  14.069  0.8067 -0.0474 -0.0268
11760TIP3    H156695   3.228   3.447  13.981  0.9010  0.2122  0.0817
11760TIP3    H256696   3.248   3.336  14.082  1.2807  0.2162  0.0102
11761TIP3   OH256697   0.479   1.748   2.292  0.3937  0.1986 -0.4027
11761TIP3    H156698   0.466   1.842   2.277  0.0949 -0.2237 -3.0818
11761TIP3    H256699   0.458   1.736   2.384 -1.6951  2.4270 -0.5113
11762TIP3   OH256700   5.372   5.909  11.325 -0.1042  0.0389  1.0135
11762TIP3    H156701   5.441   5.912  11.391 -0.6310  0.9784  1.5256
11762TIP3    H256702   5.371   5.997  11.287 -0.2529 -0.2991  0.2069
11763TIP3   OH256703   6.259   3.409  16.869  0.0765 -0.1463  0.3437
11763TIP3    H156704   6.277   3.315  16.878 -0.8615 -0.0630  3.5468
11763TIP3    H256705   6.247   3.440  16.958  0.1287  3.0124 -0.6883
11764TIP3   OH256706   0.920   5.197  17.057 -0.0941  0.0976 -0.3834
11764TIP3    H156707   0.981   5.271  17.053  0.1414 -0.0575  0.4350
11764TIP3    H256708   0.965   5.131  17.110 -0.1517 -0.7834 -1.4087
11765TIP3   OH256709   3.534   2.629  13.898  0.3389 -0.0978  0.0531
11765TIP3    H156710   3.558   2.673  13.817  0.4799  0.1660  0.2367
11765TIP3    H256711   3.455   2.674  13.928  0.7524  0.3531  0.4890
11766TIP3   OH256712   1.796   5.088  15.243 -0.2935 -0.1954 -0.0720
11766TIP3    H156713   1.735   5.109  15.313  2.1043 -1.1709  2.3739
11766TIP3    H256714   1.766   5.004  15.208 -1.8174  0.5661 -0.6439
11767TIP3   OH256715   3.760   2.331  15.745 -0.0044  0.6726 -0.0605
11767TIP3    H156716   3.711   2.369  15.817 -2.0080  0.2250 -1.1467
11767TIP3    H256717   3.739   2.238  15.748 -1.4555  0.8781 -2.1702
11768TIP3   OH256718   1.972   4.032  15.085 -0.2422  0.1487 -0.6978
11768TIP3    H156719   1.940   4.079  15.162  0.4498  0.7615 -0.7799
11768TIP3    H256720   2.062   4.061  15.074  0.2481 -1.3212 -0.6710
11769TIP3   OH256721   1.948   0.392   5.762 -0.9003  0.7413  0.3360
11769TIP3    H156722   1.982   0.384   5.673 -0.3502 -1.7782  0.7528
11769TIP3    H256723   1.882   0.323   5.769  0.8820 -0.8009  2.6884
11770TIP3   OH256724   0.094   1.116  10.914 -0.3076  0.6785  0.4568
11770TIP3    H156725   0.059   1.036  10.954 -2.4774  1.4513  0.1468
11770TIP3    H256726   0.180   1.090  10.881 -0.8071 -1.4313  0.7287
11771TIP3   OH256727   3.263   3.292  12.630  0.2621 -0.0298 -0.6325
11771TIP3    H156728   3.291   3.372  12.585  1.2614 -0.6666 -1.1535
11771TIP3    H256729   3.282   3.221  12.569 -2.4996 -0.4970 -0.9920
11772TIP3   OH256730   0.173   4.442   2.526 -0.3076 -0.5616 -0.1025
11772TIP3    H156731   0.268   4.448   2.518 -0.4155 -0.3499 -1.4167
11772TIP3    H256732   0.140   4.485   2.447 -1.5598  1.5975  1.5688
11773TIP3   OH256733   0.505   0.126  13.678 -0.1401  0.0927  0.1902
11773TIP3    H156734   0.531   0.191  13.744  1.2013  0.4341 -0.6721
11773TIP3    H256735   0.576   0.127  13.614 -1.2353 -0.5489 -1.0472
11774TIP3   OH256736   3.015   4.195   1.004  0.1684 -0.0323 -0.2611
11774TIP3    H156737   3.053   4.242   0.930 -0.2303  1.1144  0.2459
11774TIP3    H256738   3.074   4.214   1.077 -0.2556  0.0860  0.0537
11775TIP3   OH256739   5.909   3.204  15.402 -0.3341  0.1988  0.4176
11775TIP3    H156740   5.971   3.217  15.331 -0.9180 -0.2212 -0.1740
11775TIP3    H256741   5.848   3.278  15.395 -0.4715  0.0837  0.3979
11776TIP3   OH256742   3.638   5.687  13.898 -0.1413  0.2509 -0.1237
11776TIP3    H156743   3.709   5.625  13.884  0.6257  0.7713  1.3603
11776TIP3    H256744   3.644   5.710  13.991 -0.7883  2.0703 -0.5081
11777TIP3   OH256745   5.272   3.085  11.682  0.0600  0.2113 -0.1719
11777TIP3    H156746   5.355   3.050  11.714  0.1182  1.0824  0.6596
11777TIP3    H256747   5.296   3.166  11.638 -0.2548  0.0389 -0.6616
11778TIP3   OH256748   2.843   1.423   4.331 -0.0517 -0.3592  0.0737
11778TIP3    H156749   2.911   1.490   4.320  0.5172 -0.8048  0.8321
11778TIP3    H256750   2.794   1.451   4.408  1.1178 -1.5748  1.3062
11779TIP3   OH256751   5.804   2.500  14.478  0.4384 -0.3869 -0.3970
11779TIP3    H156752   5.762   2.418  14.453 -0.3194  0.4493 -1.9477
11779TIP3    H256753   5.842   2.533  14.396  0.0615  1.1764  0.0453
11780TIP3   OH256754   6.587   2.207   1.005  0.2361 -0.1642 -0.2834
11780TIP3    H156755   6.574   2.146   0.932 -0.8321 -1.3598  0.8707
11780TIP3    H256756   6.539   2.167   1.077  1.0162  1.1687  0.9838
11781TIP3   OH256757   1.474   3.635   0.920 -0.4117 -0.5462  0.6956
11781TIP3    H156758   1.467   3.541   0.936  0.4464 -0.8743 -0.7346
11781TIP3    H256759   1.387   3.662   0.891  0.2018 -1.6092 -2.3000
11782TIP3   OH256760   1.884   2.386  17.191 -0.9392 -0.5026 -0.5454
11782TIP3    H156761   1.847   2.438  17.120  0.4646  0.7500 -0.3652
11782TIP3    H256762   1.814   2.325  17.214 -1.7182 -0.3535 -2.4115
11783TIP3   OH256763   4.192   3.375   1.931 -0.3580  0.4389 -0.0996
11783TIP3    H156764   4.159   3.426   1.857 -0.8334 -1.4542 -1.2347
11783TIP3    H256765   4.127   3.387   2.000 -1.4994 -0.2175 -1.0381
11784TIP3   OH256766   0.136   1.904  10.993  0.6634  0.2335 -0.1318
11784TIP3    H156767   0.127   1.875  10.902  0.9872  1.1692 -0.4642
11784TIP3    H256768   0.193   1.981  10.988 -0.5896  1.2172  0.6932
11785TIP3   OH256769   1.840   2.281   2.249  0.1258 -0.8694 -0.6267
11785TIP3    H156770   1.921   2.325   2.274 -1.1083  0.6635  0.7645
11785TIP3    H256771   1.858   2.245   2.162  1.1706  2.4012 -1.8462
11786TIP3   OH256772   3.603   4.647   2.941  0.3182 -0.5763 -0.3255
11786TIP3    H156773   3.515   4.620   2.969  0.7463 -1.7095 -0.0234
11786TIP3    H256774   3.594   4.662   2.847 -0.6219  1.1380  0.0025
11787TIP3   OH256775   1.379   4.757   5.212 -0.4312 -0.4914  0.1948
11787TIP3    H156776   1.414   4.775   5.124  1.1844 -1.3978  0.6252
11787TIP3    H256777   1.352   4.666   5.209 -1.5267 -0.1700  0.2781
11788TIP3   OH256778   3.343   0.873  13.637 -0.0981  0.0966  0.0106
11788TIP3    H156779   3.339   0.964  13.607 -1.4418 -0.2870 -1.0774
11788TIP3    H256780   3.361   0.823  13.557  0.0260 -0.6408  0.4983
11789TIP3   OH256781   5.398   0.080  11.433 -0.1643 -0.2528  0.1155
11789TIP3    H156782   5.390   0.175  11.434  2.0086 -0.0482  1.1120
11789TIP3    H256783   5.398   0.055  11.526  3.3988 -0.7823  0.0429
11790TIP3   OH256784   5.422   1.391   3.395 -0.3902 -0.3958 -0.4899
11790TIP3    H156785   5.405   1.483   3.375  2.0943  0.3610  0.7704
11790TIP3    H256786   5.380   1.376   3.480  1.4529  0.2922  0.5505
11791TIP3   OH256787   2.822   0.553   3.860 -0.0558  0.3669  0.3959
11791TIP3    H156788   2.815   0.463   3.828 -1.1618  0.3216  0.7518
11791TIP3    H256789   2.732   0.586   3.860  0.6516  2.5386 -2.7537
11792TIP3   OH256790   1.714   3.884   0.264 -0.2366 -0.0420 -0.2397
11792TIP3    H156791   1.698   3.790   0.263  1.8392 -0.4264  0.3978
11792TIP3    H256792   1.747   3.903   0.176 -1.7864  0.3199 -0.7591
11793TIP3   OH256793   4.495   5.044   2.154 -0.2750  0.4000  0.0477
11793TIP3    H156794   4.555   5.118   2.169  1.9792 -0.6808 -3.2270
11793TIP3    H256795   4.547   4.966   2.173 -1.7118 -0.4881  0.4738
11794TIP3   OH256796   3.843   1.388  11.183  0.0845  0.1956 -0.3696
11794TIP3    H156797   3.911   1.336  11.226  0.5308  0.5511 -0.6337
11794TIP3    H256798   3.814   1.450  11.250 -1.4349 -1.2917  0.3828
11795TIP3   OH256799   5.474   5.987   2.399  0.3587  0.0754  0.1825
11795TIP3    H156800   5.496   6.033   2.480 -0.2478  2.1973 -0.8316
11795TIP3    H256801   5.384   6.014   2.380  0.7530  0.1387 -1.5939
11796TIP3   OH256802   3.428   5.228  15.890 -0.0286 -0.0891 -0.1861
11796TIP3    H156803   3.463   5.295  15.832 -0.2967  1.5602  1.4912
11796TIP3    H256804   3.373   5.173  15.834  1.5434  0.0693 -1.9166
11797TIP3   OH256805   4.107   5.235  10.643 -0.0804  0.0780 -0.3853
11797TIP3    H156806   4.048   5.176  10.597 -0.6798 -0.4817  1.0634
11797TIP3    H256807   4.189   5.187  10.651  0.3123  0.5212 -1.6331
11798TIP3   OH256808   5.399   6.267   2.912  0.4563  0.1879  0.2499
11798TIP3    H156809   5.487   6.274   2.949  0.5301  2.0932 -0.2369
11798TIP3    H256810   5.352   6.212   2.974  2.2379 -1.6497  0.0381
11799TIP3   OH256811   3.960   5.997   1.545 -0.1668  1.0122  0.4128
11799TIP3    H156812   4.031   6.038   1.594 -1.9528  3.0946  1.3648
11799TIP3    H256813   3.896   5.972   1.612 -1.0961  0.7741 -0.5467
11800TIP3   OH256814   2.626   5.829  14.798 -0.2446 -0.2064 -0.2238
11800TIP3    H156815   2.633   5.770  14.723  1.9763 -1.2874  0.7810
11800TIP3    H256816   2.636   5.772  14.874  2.4083  1.5063  0.7565
11801TIP3   OH256817   1.571   1.503  12.082 -0.1697  0.6176  0.2056
11801TIP3    H156818   1.527   1.587  12.072  0.9700  1.0143 -1.7398
11801TIP3    H256819   1.634   1.517  12.153 -1.3879  0.7839  1.2637
11802TIP3   OH256820   2.433   5.349  13.087 -0.1505 -0.4929  0.6572
11802TIP3    H156821   2.509   5.329  13.142  0.3694 -0.2587  0.0317
11802TIP3    H256822   2.456   5.314  13.001 -0.2951  0.5042  0.1953
11803TIP3   OH256823   4.171   6.581   4.975 -0.0625  0.2066  0.9237
11803TIP3    H156824   4.213   6.496   4.990  0.3981  0.7845  3.0019
11803TIP3    H256825   4.242   6.639   4.949 -0.3714 -0.0118 -0.4586
11804TIP3   OH256826   3.520   3.659  12.513  0.0636 -0.0528 -0.1899
11804TIP3    H156827   3.587   3.695  12.455  0.8307  0.0714  0.7658
11804TIP3    H256828   3.553   3.675  12.601 -0.2170 -1.9012  0.2689
11805TIP3   OH256829   1.874   3.590   5.156 -0.0626 -0.1673  0.1691
11805TIP3    H156830   1.894   3.676   5.194  0.0143  0.2486 -0.7801
11805TIP3    H256831   1.960   3.550   5.143 -0.0329  0.1243 -0.5403
11806TIP3   OH256832   0.749   6.336  12.965 -0.1722  0.2647  0.1322
11806TIP3    H156833   0.807   6.410  12.981  1.2131 -0.8210  0.2606
11806TIP3    H256834   0.768   6.310  12.875 -0.8128  0.1993  0.0135
11807TIP3   OH256835   4.846   5.013  16.078 -0.1257 -0.1798  0.3766
11807TIP3    H156836   4.831   4.957  16.154  1.3529  0.2116  0.9855
11807TIP3    H256837   4.938   5.038  16.085 -0.4137  1.2331 -0.6278
11808TIP3   OH256838   2.336   2.590  13.205 -0.6142 -0.1716  0.1829
11808TIP3    H156839   2.314   2.516  13.148  0.0014 -0.4231  0.2634
11808TIP3    H256840   2.269   2.589  13.272 -1.0552 -0.1838 -0.2573
11809TIP3   OH256841   4.207   5.002   1.473  0.8314 -0.6580 -0.0835
11809TIP3    H156842   4.296   5.037   1.480  1.0323 -0.9301 -1.1844
11809TIP3    H256843   4.196   4.982   1.380 -0.4475 -0.4566  0.0107
11810TIP3   OH256844   4.347   1.641  15.086 -0.9157  0.0867 -0.4332
11810TIP3    H156845   4.424   1.693  15.110  0.0610 -0.4035 -2.3634
11810TIP3    H256846   4.329   1.588  15.163  0.0540  0.9506  0.4080
11811TIP3   OH256847   5.003   0.262   0.012  0.1354  0.1962 -0.3925
11811TIP3    H156848   5.081   0.317   0.025 -0.3528  0.7293  0.2820
11811TIP3    H256849   4.967   0.292  -0.072 -0.9473  1.9227  0.6717
11812TIP3   OH256850   6.347   4.345   4.901  0.0466  0.4400  0.2395
11812TIP3    H156851   6.419   4.324   4.841 -1.4096  0.0416 -1.4095
11812TIP3    H256852   6.305   4.422   4.862 -2.5675 -1.4226 -0.7962
11813TIP3   OH256853   0.207   1.166  15.532  0.1941  0.1152  0.3522
11813TIP3    H156854   0.167   1.079  15.531 -0.6133  0.4861 -1.2635
11813TIP3    H256855   0.147   1.219  15.584  0.3706 -0.1338  0.8184
11814TIP3   OH256856   4.810   1.705   3.158  0.2285 -0.4480  0.5857
11814TIP3    H156857   4.824   1.787   3.112  0.2302 -0.5365  0.4297
11814TIP3    H256858   4.892   1.689   3.206  1.2305 -1.7166 -1.4856
11815TIP3   OH256859   5.214   0.258   2.383  0.0379 -0.4513  0.1754
11815TIP3    H156860   5.203   0.324   2.315 -1.4013 -0.1446  0.6914
11815TIP3    H256861   5.229   0.308   2.463 -0.2560 -0.7646  0.4280
11816TIP3   OH256862   1.196   1.010  16.219  0.4746  0.2873 -0.6854
11816TIP3    H156863   1.246   1.063  16.282 -0.2261  0.4342 -0.2465
11816TIP3    H256864   1.191   0.924  16.259  0.7280  0.1569 -0.9280
11817TIP3   OH256865   5.073   5.684  15.187  0.1220 -0.0645 -0.3613
11817TIP3    H156866   5.168   5.686  15.175  0.1835 -1.8719 -0.2480
11817TIP3    H256867   5.049   5.776  15.203  1.9823  0.2652  0.6582
11818TIP3   OH256868   6.675   0.122  12.146  0.0204 -0.4716 -0.2835
11818TIP3    H156869   6.704   0.038  12.110 -1.4214  0.1257 -3.0458
11818TIP3    H256870   6.712   0.187  12.086 -3.1489  0.5333 -1.2313
11819TIP3   OH256871   6.585   1.915   2.293  0.0730  0.4134  0.1490
11819TIP3    H156872   6.555   1.962   2.215  1.5950  1.9321  0.4525
11819TIP3    H256873   6.679   1.934   2.298  0.2829 -0.8837  1.5199
11820TIP3   OH256874   4.299   5.687  11.591 -0.3890  0.4637 -0.1850
11820TIP3    H156875   4.303   5.593  11.574  0.5545  0.1659  1.5195
11820TIP3    H256876   4.327   5.728  11.510 -0.2022 -0.7416 -0.7360
11821TIP3   OH256877   4.716   5.727   1.984 -0.1247  0.4308 -0.0584
11821TIP3    H156878   4.789   5.788   1.982  0.3372 -0.1475 -0.7789
11821TIP3    H256879   4.639   5.782   1.997  0.4449  1.0294  0.8181
11822TIP3   OH256880   1.532   0.106  12.977 -0.2726  0.3231 -0.2151
11822TIP3    H156881   1.478   0.114  12.898 -0.5184  2.3483  0.1377
11822TIP3    H256882   1.610   0.158  12.958  0.5966 -0.8420  0.1130
11823TIP3   OH256883   1.339   2.106   0.715  0.1671 -0.0564 -0.2409
11823TIP3    H156884   1.384   2.028   0.748 -0.2002  0.2165  0.8942
11823TIP3    H256885   1.403   2.145   0.655  0.8869 -0.4783  0.2352
11824TIP3   OH256886   2.161   6.038  11.565 -0.4024  0.6302 -0.1787
11824TIP3    H156887   2.144   6.121  11.609 -0.1604  0.1065  0.9201
11824TIP3    H256888   2.209   5.986  11.629 -1.5348 -0.7713 -0.4381
11825TIP3   OH256889   0.959   0.241  14.985 -0.6638  0.3241 -0.0869
11825TIP3    H156890   1.006   0.290  15.052  0.0224 -2.1593  1.3110
11825TIP3    H256891   0.910   0.308  14.936  1.6840  2.5748  0.5325
11826TIP3   OH256892   0.464   2.618  15.186  0.3810 -0.5026 -0.4113
11826TIP3    H156893   0.527   2.657  15.125  1.8139 -1.9527  0.1077
11826TIP3    H256894   0.471   2.524  15.171 -1.5465 -0.6986 -0.2059
11827TIP3   OH256895   0.385   2.117   0.883 -0.3231  0.5754 -0.1956
11827TIP3    H156896   0.301   2.103   0.839 -0.9126 -0.4625  1.2035
11827TIP3    H256897   0.433   2.176   0.825 -1.7763  0.6905 -1.3222
11828TIP3   OH256898   6.328   6.099  16.881  0.0518  0.2719 -0.7343
11828TIP3    H156899   6.387   6.174  16.883 -1.2997  1.3551 -1.2146
11828TIP3    H256900   6.374   6.033  16.829  2.5032 -0.3273  2.0188
11829TIP3   OH256901   0.436   3.163  11.875  0.2415 -0.3206  0.4668
11829TIP3    H156902   0.451   3.252  11.909  1.0495  0.0007 -0.7122
11829TIP3    H256903   0.474   3.164  11.788  0.9339 -2.0517  0.7344
11830TIP3   OH256904   1.936   3.799  14.021 -0.1340 -0.1067  0.0949
11830TIP3    H156905   1.863   3.833  14.074 -0.8346 -0.7200 -0.4740
11830TIP3    H256906   2.014   3.831  14.066 -0.7672  2.0112 -0.2617
11831TIP3   OH256907   3.485   2.676  16.437 -0.2029  0.0920 -0.0598
11831TIP3    H156908   3.466   2.659  16.344 -0.0850 -1.6294  0.2157
11831TIP3    H256909   3.555   2.615  16.458  0.9470  1.6478  0.7463
11832TIP3   OH256910   4.968   1.678  11.540  0.1416 -0.3157 -0.9840
11832TIP3    H156911   5.057   1.650  11.562  0.5868  1.2787 -0.7320
11832TIP3    H256912   4.932   1.604  11.491  1.0171 -1.6716  0.3414
11833TIP3   OH256913   2.387   6.087   1.410  0.0112 -0.1683 -0.8429
11833TIP3    H156914   2.341   6.039   1.341 -0.9897  0.7746 -0.8448
11833TIP3    H256915   2.425   6.163   1.365 -0.7941  0.5474 -0.3447
11834TIP3   OH256916   6.753   1.254   3.847  0.2936 -0.2457 -0.1050
11834TIP3    H156917   6.685   1.292   3.792  0.9456 -0.4681 -1.0771
11834TIP3    H256918   6.796   1.189   3.791  1.3291 -0.0758  0.4759
11835TIP3   OH256919   4.910   1.545  13.793 -0.1447  0.0565 -0.4597
11835TIP3    H156920   4.998   1.522  13.762  0.3767 -2.0808  2.4098
11835TIP3    H256921   4.922   1.628  13.840  0.1723  0.2019 -0.7936
11836TIP3   OH256922   6.231   6.304   4.649 -0.7719  0.0358  0.5792
11836TIP3    H156923   6.209   6.296   4.556  1.6285  0.7495 -0.1040
11836TIP3    H256924   6.258   6.395   4.659 -0.7271 -0.1143  1.9125
11837TIP3   OH256925   5.984   3.771   5.427  0.5426  0.3121  0.5184
11837TIP3    H156926   5.915   3.836   5.414  0.3400  0.0842  0.4593
11837TIP3    H256927   6.026   3.797   5.509  1.9557  1.8749 -0.6563
11838TIP3   OH256928   3.176   5.607   3.585  0.7030 -0.3883 -0.8738
11838TIP3    H156929   3.168   5.697   3.553 -0.5095  0.0321  0.5712
11838TIP3    H256930   3.205   5.617   3.675 -1.2007 -1.3843 -0.1331
11839TIP3   OH256931   5.573   1.547   0.115  0.8146 -0.2285  0.1847
11839TIP3    H156932   5.598   1.627   0.162 -0.3893 -0.5094  1.3449
11839TIP3    H256933   5.656   1.503   0.096  1.3207 -0.7169  3.1700
11840TIP3   OH256934   4.573   4.978  13.995  0.3087 -0.4209 -0.8257
11840TIP3    H156935   4.589   4.947  13.905 -0.8040  1.0121 -1.5382
11840TIP3    H256936   4.648   5.032  14.016 -0.3252  0.7982 -1.6316
11841TIP3   OH256937   6.129   2.897   1.106  0.2890 -0.3510 -0.5959
11841TIP3    H156938   6.142   2.929   1.017 -0.8015 -1.0857 -1.0299
11841TIP3    H256939   6.035   2.884   1.113  0.2175  0.9954  1.1258
11842TIP3   OH256940   2.679   0.692  13.630 -0.4115 -0.3458  0.1432
11842TIP3    H156941   2.756   0.661  13.678 -0.2032  0.4378  0.3124
11842TIP3    H256942   2.606   0.650  13.675 -0.1331 -0.6034  0.3677
11843TIP3   OH256943   0.384   5.292   2.686  0.0558  0.0780  0.2660
11843TIP3    H156944   0.444   5.308   2.614  2.2302 -2.5420  1.3925
11843TIP3    H256945   0.433   5.318   2.764 -1.6181  1.2121  0.9931
11844TIP3   OH256946   2.266   2.344  16.229 -0.5842 -0.4851  0.5337
11844TIP3    H156947   2.181   2.389  16.224  0.4648  1.7419  1.8104
11844TIP3    H256948   2.323   2.396  16.173  0.9212  0.4112  2.8496
11845TIP3   OH256949   0.939   6.666  16.709 -0.2923 -0.6952 -0.2511
11845TIP3    H156950   1.007   6.713  16.756 -1.4439 -0.0316  0.7680
11845TIP3    H256951   0.960   6.573  16.724  0.0371 -0.4972  0.5649
11846TIP3   OH256952   4.153   0.397   4.712 -0.3907  0.8400 -0.5875
11846TIP3    H156953   4.191   0.319   4.670  2.1585  1.2770  0.8055
11846TIP3    H256954   4.167   0.467   4.648 -0.2923  0.6632 -0.7603
11847TIP3   OH256955   2.788   0.986   3.260  0.2949 -0.1616  0.3147
11847TIP3    H156956   2.875   1.010   3.228  0.6515 -0.0461  1.3671
11847TIP3    H256957   2.740   1.068   3.263 -0.1917 -0.3679 -1.2643
11848TIP3   OH256958   1.560   2.032  15.942  0.2171 -0.2708  0.3238
11848TIP3    H156959   1.474   1.992  15.955  0.5769 -0.9888  0.5219
11848TIP3    H256960   1.622   1.959  15.947  0.9652  0.4243  1.6043
11849TIP3   OH256961   3.027   5.820   5.489 -0.9570  0.0694  0.0675
11849TIP3    H156962   3.076   5.839   5.569  0.7226  0.7429 -1.1063
11849TIP3    H256963   2.941   5.792   5.521  0.0609 -0.8450  2.1491
11850TIP3   OH256964   3.700   4.556   5.256  0.3309 -0.4618 -0.5176
11850TIP3    H156965   3.684   4.588   5.344  2.8939 -0.8278  0.1295
11850TIP3    H256966   3.767   4.615   5.221 -1.2953  0.2407 -2.5723
11851TIP3   OH256967   3.779   3.317   4.752  0.3230 -0.0651  0.0260
11851TIP3    H156968   3.864   3.320   4.707  0.6654 -0.3184  0.6403
11851TIP3    H256969   3.790   3.248   4.818 -0.6829 -0.7519 -0.5281
11852TIP3   OH256970   4.000   3.587   4.461 -0.1046 -0.6001 -0.2581
11852TIP3    H156971   3.911   3.589   4.497 -0.1134 -2.0114 -0.1656
11852TIP3    H256972   4.036   3.674   4.480 -0.3764 -1.0533  2.4709
11853TIP3   OH256973   3.595   0.114   3.581 -0.3564  0.1954 -0.2731
11853TIP3    H156974   3.633   0.037   3.624 -0.7401  0.4229  0.4840
11853TIP3    H256975   3.591   0.091   3.488 -2.7369 -1.6427  0.2564
11854TIP3   OH256976   4.969   4.681   0.977  0.1889  0.1781  0.1669
11854TIP3    H156977   5.034   4.704   0.911 -1.2047  0.6880 -1.0597
11854TIP3    H256978   4.950   4.588   0.960  1.2002 -0.1976  1.0634
11855TIP3   OH256979   0.603   1.485  16.417 -0.4366  0.1040 -0.4494
11855TIP3    H156980   0.514   1.452  16.405 -0.6122  0.3585  0.1188
11855TIP3    H256981   0.616   1.546  16.345 -0.9397  0.5132 -0.1995
11856TIP3   OH256982   0.245   5.074  15.112 -0.0452  0.3079  0.5721
11856TIP3    H156983   0.280   5.103  15.196 -0.0257 -0.4463  0.8317
11856TIP3    H256984   0.289   5.129  15.047  0.9868 -0.0497  0.9556
11857TIP3   OH256985   6.493   2.109   3.790 -0.2824  0.2511  0.3266
11857TIP3    H156986   6.532   2.183   3.836 -1.0766  0.4335  0.7024
11857TIP3    H256987   6.446   2.148   3.716  0.5591 -0.0001 -0.3516
11858TIP3   OH256988   6.603   1.904  12.981  0.2678  0.2493  0.0040
11858TIP3    H156989   6.625   1.830  12.924  1.8635  0.2601  0.5730
11858TIP3    H256990   6.644   1.883  13.065  1.2407  2.0344  0.0065
11859TIP3   OH256991   1.536   4.324   5.985  0.7027  0.9052  0.0950
11859TIP3    H156992   1.615   4.360   6.026  0.4496  0.7806  0.6893
11859TIP3    H256993   1.476   4.308   6.057 -0.6563  2.9403 -0.5427
11860TIP3   OH256994   5.588   6.124  12.183 -0.4923 -0.4084 -0.2804
11860TIP3    H156995   5.496   6.149  12.187 -0.5932 -1.0646  2.1584
11860TIP3    H256996   5.587   6.028  12.182  0.2011 -0.4282  0.7670
11861TIP3   OH256997   5.008   3.018   3.636  0.1006  0.5118 -0.4287
11861TIP3    H156998   4.937   3.016   3.700  1.2754  1.6548  0.9334
11861TIP3    H256999   5.082   3.058   3.682  1.7081 -0.8326 -1.7560
11862TIP3   OH257000   3.998   5.290  14.349  0.9383 -0.0517  0.2267
11862TIP3    H157001   4.042   5.295  14.264  2.0839  2.0947  0.9353
11862TIP3    H257002   4.027   5.367  14.397 -0.1962 -0.8951  2.3619
11863TIP3   OH257003   5.367   2.920   0.707  0.0935  0.0093 -0.3217
11863TIP3    H157004   5.376   3.005   0.752  1.0341 -1.0146  1.5012
11863TIP3    H257005   5.276   2.917   0.678 -0.3954  0.9595  1.0595
11864TIP3   OH257006   0.967   6.783  15.319 -0.0847 -0.0516 -0.0168
11864TIP3    H157007   1.030   6.854  15.303  0.3836 -0.3043  0.7137
11864TIP3    H257008   0.950   6.786  15.413 -0.7694 -0.3208 -0.1284
11865TIP3   OH257009   6.673   4.466   3.337  0.7805 -0.2987 -0.6905
11865TIP3    H157010   6.688   4.429   3.424 -1.0093 -0.5300 -0.4593
11865TIP3    H257011   6.594   4.519   3.347  1.6684  1.2478 -1.7211
11866TIP3   OH257012   4.134   1.679   1.734 -0.1864 -0.1365 -0.8376
11866TIP3    H157013   4.151   1.585   1.740 -0.7457 -0.2732 -1.2826
11866TIP3    H257014   4.048   1.690   1.775 -0.3041  0.1195 -1.1497
11867TIP3   OH257015   6.428   4.389   4.383 -0.0368 -0.5502  0.0244
11867TIP3    H157016   6.396   4.420   4.468  0.0874 -0.4099  0.0225
11867TIP3    H257017   6.505   4.444   4.366 -0.7335  0.2160 -0.7191
11868TIP3   OH257018   5.323   0.975   4.112  0.4036  0.3778  0.8266
11868TIP3    H157019   5.337   1.054   4.164  2.3145  0.7367 -0.2222
11868TIP3    H257020   5.391   0.915   4.141  0.0713 -0.2510  0.3235
11869TIP3   OH257021   3.591   5.900  11.271 -0.3130 -0.0911  0.2154
11869TIP3    H157022   3.590   5.827  11.209  0.2651 -1.1794  1.4546
11869TIP3    H257023   3.507   5.894  11.317 -0.3154  0.0900  0.2338
11870TIP3   OH257024   0.087   6.737   4.694  0.3079 -0.2488  0.5380
11870TIP3    H157025   0.076   6.656   4.743  1.4612  0.4569  2.0200
11870TIP3    H257026   0.170   6.773   4.726 -0.5890  1.9099  0.5057
11871TIP3   OH257027   0.884   0.573  14.014 -0.1870  0.0890 -0.2108
11871TIP3    H157028   0.904   0.484  14.042 -4.5786 -0.4027  1.7268
11871TIP3    H257029   0.951   0.593  13.949  2.1846 -3.8058  0.8782
11872TIP3   OH257030   5.817   0.460   3.321 -0.1846 -0.2750 -0.0652
11872TIP3    H157031   5.860   0.480   3.403 -1.5130 -2.1536  1.1316
11872TIP3    H257032   5.749   0.527   3.312 -0.7691 -0.7236  0.9433
11873TIP3   OH257033   3.171   1.411   2.806  0.0780  0.0881  0.1620
11873TIP3    H157034   3.258   1.442   2.832  0.5455 -0.1208 -1.1339
11873TIP3    H257035   3.124   1.491   2.781  0.1973  0.0959 -0.0328
11874TIP3   OH257036   5.639   4.347  14.652  0.1451 -0.1223  0.0393
11874TIP3    H157037   5.545   4.353  14.671 -0.7188 -2.4589 -3.1509
11874TIP3    H257038   5.681   4.374  14.734 -3.2444  2.8356  0.9659
11875TIP3   OH257039   3.635   6.112  14.244 -0.0496  0.4327 -0.1684
11875TIP3    H157040   3.704   6.048  14.265 -0.5413  0.6528  2.2961
11875TIP3    H257041   3.569   6.061  14.197  0.4491 -0.4596  0.0881
11876TIP3   OH257042   6.397   5.470   5.657  0.1291  0.4001 -0.3666
11876TIP3    H157043   6.481   5.481   5.701  0.2710  0.7391 -0.7144
11876TIP3    H257044   6.358   5.393   5.698 -1.1134  2.4698  2.4881
11877TIP3   OH257045   6.411   0.720  16.466 -0.2557  0.8002  0.5280
11877TIP3    H157046   6.442   0.790  16.409  1.2322 -1.0524 -0.9978
11877TIP3    H257047   6.489   0.687  16.510 -1.0494  0.5731  1.8272
11878TIP3   OH257048   1.875   1.842  14.885  0.4009 -0.4435 -0.8005
11878TIP3    H157049   1.921   1.870  14.806  1.3770  0.4612  0.0876
11878TIP3    H257050   1.823   1.767  14.856  1.6707 -0.8761 -2.0313
11879TIP3   OH257051   2.372   5.596   1.998 -0.0140 -0.4578  0.0668
11879TIP3    H157052   2.346   5.559   2.083 -3.0134  1.5141  0.0639
11879TIP3    H257053   2.318   5.550   1.934 -1.6533  1.7934 -0.2133
11880TIP3   OH257054   2.722   3.511  15.405 -0.1802 -0.5428 -0.0157
11880TIP3    H157055   2.693   3.471  15.323 -0.0418 -1.9763  0.6363
11880TIP3    H257056   2.759   3.440  15.456 -1.4595  0.0709  1.8462
11881TIP3   OH257057   4.832   6.626  15.376  0.0898  0.2693  0.1412
11881TIP3    H157058   4.916   6.589  15.401  0.2982  0.4051 -0.3517
11881TIP3    H257059   4.784   6.553  15.338 -0.2425  0.0543  0.9650
11882TIP3   OH257060   6.705   1.749  17.168  0.2951  0.7811 -0.0358
11882TIP3    H157061   6.644   1.713  17.232  2.0909 -1.1266  0.6484
11882TIP3    H257062   6.675   1.714  17.084  1.0288 -1.0001  0.4239
11883TIP3   OH257063   4.009   4.033   1.685 -0.1289 -0.5077  0.1739
11883TIP3    H157064   4.017   4.114   1.737 -1.7251  0.3101 -0.8208
11883TIP3    H257065   4.030   3.963   1.747  1.8840  0.6837  0.9070
11884TIP3   OH257066   4.085   2.847   2.952 -0.0656 -0.1040  0.4135
11884TIP3    H157067   4.016   2.848   3.019 -1.2762  1.1202 -0.8232
11884TIP3    H257068   4.087   2.936   2.918  2.1813 -0.1087  0.4382
11885TIP3   OH257069   4.252   3.626   5.678 -0.4023  0.0882  0.8558
11885TIP3    H157070   4.298   3.581   5.607  1.4450  0.5994  1.7223
11885TIP3    H257071   4.160   3.623   5.652  0.1790 -0.3506 -1.2179
11886TIP3   OH257072   4.297   3.059  16.811 -0.2855 -0.0789 -0.4698
11886TIP3    H157073   4.318   3.138  16.861 -1.1925  0.7142 -1.3168
11886TIP3    H257074   4.207   3.073  16.781  0.1180 -0.6876 -2.0272
11887TIP3   OH257075   5.943   1.287   2.112 -0.0635 -0.1150 -0.2101
11887TIP3    H157076   5.929   1.267   2.019  1.1759 -0.8352 -0.2567
11887TIP3    H257077   6.038   1.296   2.120 -0.2178  0.5496  0.8724
11888TIP3   OH257078   2.121   5.554  16.760 -0.2392 -0.1840 -0.7462
11888TIP3    H157079   2.139   5.486  16.825  0.5744  0.6447 -0.1027
11888TIP3    H257080   2.204   5.563  16.712 -0.4976  0.0121 -1.1588
11889TIP3   OH257081   0.691   5.835   2.948  0.5526  0.0507 -0.1139
11889TIP3    H157082   0.710   5.741   2.949 -0.2730 -0.1341 -1.4707
11889TIP3    H257083   0.766   5.875   2.993  0.7972 -1.2657  0.6780
11890TIP3   OH257084   6.429   5.834   4.785 -0.0331  0.9201 -0.6002
11890TIP3    H157085   6.346   5.793   4.762 -0.0183  0.4648  0.1290
11890TIP3    H257086   6.406   5.921   4.816 -0.2220  0.8524 -0.5539
11891TIP3   OH257087   1.710   0.969  10.960  0.2816 -0.1979  0.6461
11891TIP3    H157088   1.769   0.977  11.035 -0.4368 -0.4359  1.2430
11891TIP3    H257089   1.749   0.900  10.906  1.3695  0.7018  0.2679
11892TIP3   OH257090   3.099   0.883  10.694 -0.6862  0.0746  0.0145
11892TIP3    H157091   3.189   0.910  10.712 -0.3366 -1.2722  0.3908
11892TIP3    H257092   3.102   0.846  10.606 -0.1722 -2.8171  1.1780
11893TIP3   OH257093   4.917   2.012  14.858 -0.1832 -0.2732  0.3028
11893TIP3    H157094   4.976   2.087  14.867 -0.9362  0.8077 -3.1786
11893TIP3    H257095   4.976   1.937  14.846  0.5316  0.2565  0.4373
11894TIP3   OH257096   3.444   4.311  11.578 -0.2007  0.4403 -0.4152
11894TIP3    H157097   3.486   4.354  11.504 -0.0178 -0.5708 -0.9137
11894TIP3    H257098   3.355   4.291  11.547 -0.4567  0.9223 -0.0034
11895TIP3   OH257099   0.545   0.784  11.352  0.0501 -0.7861 -0.0620
11895TIP3    H157100   0.494   0.720  11.403 -0.4274 -0.7007 -0.4284
11895TIP3    H257101   0.530   0.867  11.396  1.1078 -1.0016  0.7398
11896TIP3   OH257102   4.044   0.191  11.167 -0.2642  0.7318  0.1526
11896TIP3    H157103   3.965   0.183  11.115  1.9983 -0.9679 -3.1975
11896TIP3    H257104   4.048   0.111  11.219  0.7252 -0.5605 -1.8774
11897TIP3   OH257105   1.152   0.924   1.281 -0.2086  0.4595 -0.2120
11897TIP3    H157106   1.223   0.859   1.285  1.9322  2.7761  0.6854
11897TIP3    H257107   1.100   0.897   1.205  0.9720 -1.9313 -0.2456
11898TIP3   OH257108   6.497   1.836   0.823 -0.9705 -0.0642 -0.0022
11898TIP3    H157109   6.422   1.883   0.858 -0.5071  0.0541  0.8521
11898TIP3    H257110   6.572   1.869   0.873 -0.4098 -0.5064 -0.5318
11899TIP3   OH257111   1.695   5.736  16.173 -0.5796 -0.2816  0.4320
11899TIP3    H157112   1.713   5.758  16.082 -1.4592 -0.1128  0.2949
11899TIP3    H257113   1.764   5.780  16.223 -1.2446  1.2711  0.0148
11900TIP3   OH257114   4.156   1.374  15.096 -0.3703  0.3028 -0.0759
11900TIP3    H157115   4.222   1.386  15.165  0.4487  0.1295 -0.8199
11900TIP3    H257116   4.145   1.279  15.089  0.8324  0.2436 -1.3705
11901TIP3   OH257117   2.921   0.359  16.887 -0.2592 -0.2682 -0.8808
11901TIP3    H157118   2.921   0.453  16.908 -0.3184 -0.1379 -1.4394
11901TIP3    H257119   2.838   0.327  16.921 -0.2542 -0.1105 -0.7202
11902TIP3   OH257120   3.253   1.310  12.799 -0.7614 -0.1150  0.3162
11902TIP3    H157121   3.235   1.377  12.733 -0.5069 -0.8803 -0.5465
11902TIP3    H257122   3.347   1.293  12.792 -1.2138 -2.2882 -1.1867
11903TIP3   OH257123   2.403   2.059  12.435  0.0212 -0.4529  0.0651
11903TIP3    H157124   2.336   2.017  12.381  1.0887 -1.1932 -0.7229
11903TIP3    H257125   2.435   2.132  12.381 -0.9198  0.5754  0.8931
11904TIP3   OH257126   2.523   0.202  13.823 -0.3427  0.0028 -0.0143
11904TIP3    H157127   2.467   0.277  13.841  1.9400  1.2120  2.4215
11904TIP3    H257128   2.569   0.225  13.742 -0.8375  0.4907 -0.1609
11905TIP3   OH257129   2.573   1.972  15.048 -0.5468  0.3407 -0.0271
11905TIP3    H157130   2.623   1.891  15.053  0.4848  1.0461  1.1410
11905TIP3    H257131   2.620   2.034  15.104 -1.5413  1.6362 -0.5895
11906TIP3   OH257132   5.835   6.442  12.758  0.4553 -0.2103  0.4438
11906TIP3    H157133   5.889   6.363  12.753 -0.8041 -0.9847 -1.4774
11906TIP3    H257134   5.788   6.445  12.675 -2.4352  0.4781  2.0123
11907TIP3   OH257135   2.631   1.792  16.244  0.6571  0.1505 -0.3688
11907TIP3    H157136   2.592   1.747  16.319  0.3405  0.6759 -0.2196
11907TIP3    H257137   2.711   1.831  16.279  0.5120  0.3913 -0.3056
11908TIP3   OH257138   3.096   3.944  15.679 -0.4702  0.6297 -0.0142
11908TIP3    H157139   3.060   3.856  15.677 -1.6236  1.1037 -0.5638
11908TIP3    H257140   3.190   3.932  15.670 -0.7199 -0.4847 -1.1720
11909TIP3   OH257141   5.284   3.312  16.186  0.2076 -0.1103  0.3611
11909TIP3    H157142   5.294   3.405  16.208  1.7959  0.1452 -1.3416
11909TIP3    H257143   5.245   3.273  16.264 -0.8205  2.0502  0.9620
11910TIP3   OH257144   1.140   6.216  12.111  0.0143  0.4529  0.6151
11910TIP3    H157145   1.199   6.152  12.070 -0.3147  0.3551  0.2920
11910TIP3    H257146   1.069   6.227  12.047 -1.0608 -0.5128  1.6257
11911TIP3   OH257147   3.732   1.425  11.893 -0.0191 -0.7379 -0.4760
11911TIP3    H157148   3.643   1.391  11.883  0.5244 -2.1660 -0.6243
11911TIP3    H257149   3.788   1.355  11.861  1.1645  0.1947 -0.4920
11912TIP3   OH257150   4.203   6.519  15.593 -0.0761  0.1540  0.3447
11912TIP3    H157151   4.145   6.593  15.574  0.3470 -0.2199 -2.6002
11912TIP3    H257152   4.275   6.558  15.642 -0.5763  1.4376  0.0849
11913TIP3   OH257153   5.228   1.228   2.792 -0.0904 -0.1961 -0.1461
11913TIP3    H157154   5.182   1.177   2.859  2.5407 -3.0571 -0.3671
11913TIP3    H257155   5.320   1.224   2.819  0.4182  2.8561 -1.2842
11914TIP3   OH257156   2.939   0.897   1.382  0.2561  0.3528 -0.4687
11914TIP3    H157157   2.919   0.875   1.473  0.9204 -0.2620 -0.4617
11914TIP3    H257158   2.863   0.866   1.332 -0.8371  2.1653  0.0534
11915TIP3   OH257159   0.327   6.471  13.147  0.2165 -0.2361  0.1056
11915TIP3    H157160   0.374   6.403  13.099 -1.4883  0.0587 -2.0856
11915TIP3    H257161   0.324   6.545  13.085  1.0511  1.4523  2.0166
11916TIP3   OH257162   3.982   4.526  16.503 -0.9942  0.3955 -0.8888
11916TIP3    H157163   3.939   4.557  16.583 -0.3842  2.3109 -1.2783
11916TIP3    H257164   3.944   4.440  16.487  0.7972 -1.2395  2.9613
11917TIP3   OH257165   3.408   5.276   0.215  0.0189  0.2834 -0.2375
11917TIP3    H157166   3.363   5.237   0.140  1.5939  0.1798 -1.1469
11917TIP3    H257167   3.456   5.350   0.177 -0.0947  0.9277  0.8695
11918TIP3   OH257168   3.264   4.239   0.321 -0.3843 -0.3755  0.3002
11918TIP3    H157169   3.261   4.160   0.375  1.8914  0.5219  1.8134
11918TIP3    H257170   3.357   4.251   0.300 -0.9123  0.8399 -1.5165
11919TIP3   OH257171   4.228   1.926  11.896  0.0915  0.2476  0.2144
11919TIP3    H157172   4.174   1.952  11.821  0.2398 -2.6460 -0.9348
11919TIP3    H257173   4.164   1.902  11.964 -0.0797 -0.9556 -0.3605
11920TIP3   OH257174   1.971   2.754   4.759 -0.5123  0.0515  0.3145
11920TIP3    H157175   1.932   2.759   4.671 -2.1267 -1.4802  0.9253
11920TIP3    H257176   1.899   2.775   4.818  0.5135  0.8491  1.3212
11921TIP3   OH257177   1.599   3.563  13.093 -0.2668  0.0772  0.3431
11921TIP3    H157178   1.684   3.549  13.053 -0.3444 -0.2858  0.3098
11921TIP3    H257179   1.600   3.510  13.173 -0.6199 -0.2518  0.1293
11922TIP3   OH257180   0.533   3.562  13.750 -0.2441 -0.7897 -0.1643
11922TIP3    H157181   0.501   3.634  13.804  1.0873  0.3075 -0.7880
11922TIP3    H257182   0.615   3.536  13.792  0.5730 -0.2192 -1.3876
11923TIP3   OH257183   4.645   2.618  12.683  0.0168 -0.3895  0.5426
11923TIP3    H157184   4.640   2.553  12.614  3.4913 -1.2671  1.0198
11923TIP3    H257185   4.693   2.692  12.644  0.2696 -0.0838  1.4145
11924TIP3   OH257186   6.748   2.451  15.246 -0.1282 -0.2169 -0.3304
11924TIP3    H157187   6.687   2.523  15.263  0.3933  0.2522 -0.4165
11924TIP3    H257188   6.745   2.397  15.325 -0.9113 -0.3803 -0.4770
11925TIP3   OH257189   5.791   1.121  12.104  0.2672  0.2417 -0.1927
11925TIP3    H157190   5.797   1.045  12.161 -0.4693  0.3522  0.0488
11925TIP3    H257191   5.727   1.178  12.147  0.9530  1.0838 -0.2707
11926TIP3   OH257192   0.775   4.928  17.147 -0.4166 -0.6406  0.2801
11926TIP3    H157193   0.717   4.875  17.201 -1.8460 -1.0895 -1.6451
11926TIP3    H257194   0.742   5.018  17.157 -0.1834 -0.6131  0.7846
11927TIP3   OH257195   3.911   0.895   3.873 -0.0050  0.4575 -0.1017
11927TIP3    H157196   4.002   0.914   3.897 -0.4811 -0.0119  2.1480
11927TIP3    H257197   3.915   0.809   3.832  0.1806 -0.9172  2.7156
11928TIP3   OH257198   6.733   1.487  13.255  0.1269  0.6318 -0.3605
11928TIP3    H157199   6.737   1.394  13.230  1.0268  0.6827 -0.4194
11928TIP3    H257200   6.721   1.486  13.350  2.2432  0.4475 -0.0669
11929TIP3   OH257201   6.186   4.283  14.620 -0.6377  0.6557  0.2786
11929TIP3    H157202   6.182   4.377  14.602 -1.2515  0.7778  1.0066
11929TIP3    H257203   6.275   4.268  14.652  0.5496  0.3878 -2.9997
11930TIP3   OH257204   5.326   6.153   3.478 -0.7668 -0.3740  0.5424
11930TIP3    H157205   5.272   6.090   3.430  0.5928 -1.2478  0.1443
11930TIP3    H257206   5.279   6.167   3.560 -2.1566 -0.2926 -0.2471
11931TIP3   OH257207   5.708   2.459  11.291  0.6788 -0.6996 -0.1027
11931TIP3    H157208   5.650   2.489  11.361  0.2298 -0.2955 -0.6349
11931TIP3    H257209   5.744   2.540  11.254 -0.2348 -0.8163 -1.2981
11932TIP3   OH257210   4.310   6.320   6.207 -0.2616  0.2238  0.1075
11932TIP3    H157211   4.390   6.364   6.176  0.1808  0.5800  1.7134
11932TIP3    H257212   4.331   6.227   6.201 -1.2268  0.1749 -3.3756
11933TIP3   OH257213   5.803   1.850  12.291 -0.3330 -0.0614  0.2046
11933TIP3    H157214   5.789   1.941  12.263  0.9347  0.1474  0.2125
11933TIP3    H257215   5.728   1.802  12.256 -1.4285  1.1298  0.8816
11934TIP3   OH257216   5.433   6.172  13.620 -0.2015 -0.0304 -0.9636
11934TIP3    H157217   5.463   6.082  13.637 -0.6342  0.2208  1.2029
11934TIP3    H257218   5.491   6.227  13.672 -1.0169  0.8214 -0.9474
11935TIP3   OH257219   5.008   5.096   2.701  0.3134 -0.7193  0.5419
11935TIP3    H157220   5.101   5.110   2.714  0.0416  1.6819  0.0366
11935TIP3    H257221   4.975   5.072   2.788  1.4483 -2.0885  0.6218
11936TIP3   OH257222   1.747   4.187   5.860  0.0491 -0.4352 -0.3827
11936TIP3    H157223   1.664   4.223   5.893  0.1608  0.2394 -0.8215
11936TIP3    H257224   1.772   4.122   5.925 -0.3708 -0.0056  0.2195
11937TIP3   OH257225   5.274   2.627  17.103 -0.5843  0.4341 -0.3729
11937TIP3    H157226   5.225   2.546  17.115 -1.4512  0.7734 -1.5138
11937TIP3    H257227   5.225   2.675  17.037  0.4589  1.4607 -0.4202
11938TIP3   OH257228   2.129   3.509   5.560  0.0010  0.6729 -0.5005
11938TIP3    H157229   2.089   3.426   5.586  2.0412 -0.1482  0.0967
11938TIP3    H257230   2.173   3.490   5.477  0.1488  1.2853 -0.5674
11939TIP3   OH257231   6.742   1.089  12.487  0.3313 -0.6828 -0.3304
11939TIP3    H157232   6.686   1.167  12.496  1.1205  0.0018 -1.2345
11939TIP3    H257233   6.765   1.087  12.395  0.5933 -1.8201 -0.2461
11940TIP3   OH257234   5.751   2.017   5.199  0.5956  0.1941 -0.1022
11940TIP3    H157235   5.843   1.993   5.196  0.4095 -0.5272 -0.2740
11940TIP3    H257236   5.730   2.046   5.110  0.5097 -0.2222 -0.2201
11941TIP3   OH257237   6.662   4.941   5.161  0.0387 -0.2803  0.5116
11941TIP3    H157238   6.585   4.885   5.164 -1.1030  1.0990 -1.6978
11941TIP3    H257239   6.648   5.004   5.232 -0.4102 -0.5912  0.7047
11942TIP3   OH257240   4.681   4.176   0.508 -0.1561 -0.0729 -0.5106
11942TIP3    H157241   4.597   4.160   0.464 -1.5073  1.2152  1.4766
11942TIP3    H257242   4.739   4.109   0.474 -1.9247 -0.8234 -2.1575
11943TIP3   OH257243   0.334   5.942  12.665  0.1030  0.1303 -0.2366
11943TIP3    H157244   0.394   6.015  12.681 -1.9740  1.5941  1.1415
11943TIP3    H257245   0.330   5.895  12.748  0.6213 -0.9514 -0.8186
11944TIP3   OH257246   3.590   2.784  13.672  0.2201 -0.3833 -0.3803
11944TIP3    H157247   3.619   2.774  13.581  1.5113 -2.2601  0.2112
11944TIP3    H257248   3.495   2.801  13.665  0.3364 -0.3185 -2.0615
11945TIP3   OH257249   5.224   5.231  12.866 -0.2090 -0.3720  0.5481
11945TIP3    H157250   5.158   5.221  12.935 -0.5667 -1.7961  0.0057
11945TIP3    H257251   5.177   5.275  12.795 -0.3852 -0.7369  0.4374
11946TIP3   OH257252   6.316   0.499  16.651 -0.2064  0.2443 -0.1539
11946TIP3    H157253   6.236   0.551  16.650 -0.2282  0.2293  0.6378
11946TIP3    H257254   6.311   0.446  16.571 -0.8716  0.4130 -0.2244
11947TIP3   OH257255   0.348   0.721  14.208  0.3186  0.2792 -0.2095
11947TIP3    H157256   0.393   0.685  14.132  0.2226  0.3107 -0.2803
11947TIP3    H257257   0.331   0.812  14.186 -0.0711  0.1824 -0.3136
11948TIP3   OH257258   0.377   3.739  13.902 -0.5309 -0.3294  0.0593
11948TIP3    H157259   0.410   3.756  13.990 -0.5329  1.7080 -0.2997
11948TIP3    H257260   0.294   3.694  13.917 -0.9269  0.7160  1.1385
11949TIP3   OH257261   6.134   3.609  12.561  0.5663 -0.4195  0.2772
11949TIP3    H157262   6.102   3.677  12.620 -0.4720 -1.5098  0.9927
11949TIP3    H257263   6.056   3.577  12.516  1.4054  0.7301 -2.0821
11950TIP3   OH257264   2.376   4.921  12.015 -0.1019 -0.4751 -0.2735
11950TIP3    H157265   2.392   5.005  12.060  0.5670 -0.5020 -0.4562
11950TIP3    H257266   2.457   4.872  12.026  0.2379 -0.3080 -1.8933
11951TIP3   OH257267   0.662   5.442  10.830  0.6192 -0.0823 -0.2932
11951TIP3    H157268   0.690   5.534  10.832  0.2645  0.0169  0.4822
11951TIP3    H257269   0.740   5.393  10.856  0.5893  0.0624  0.0768
11952TIP3   OH257270   6.523   5.666  10.186 -0.1364 -0.0465  0.3227
11952TIP3    H157271   6.454   5.730  10.165  0.7054 -0.0213 -2.4518
11952TIP3    H257272   6.591   5.718  10.229 -1.5506  0.0202  2.6135
11953TIP3   OH257273   4.200   3.333  15.916 -0.2121 -0.5183 -0.8069
11953TIP3    H157274   4.234   3.326  16.005 -2.0294 -1.1193 -0.1300
11953TIP3    H257275   4.197   3.428  15.899 -0.4480 -0.3715  0.0244
11954TIP3   OH257276   5.327   2.971  10.806 -0.7100  0.3582  0.0676
11954TIP3    H157277   5.392   3.041  10.812 -0.2239 -0.0815 -0.0327
11954TIP3    H257278   5.339   2.920  10.886 -0.8003  0.1703 -0.0375
11955TIP3   OH257279   0.229   6.478  10.436 -0.1584 -0.2243 -0.1366
11955TIP3    H157280   0.249   6.483  10.343 -0.4464  0.5120 -0.1642
11955TIP3    H257281   0.236   6.385  10.457 -1.7802 -0.6265 -1.2668
11956TIP3   OH257282   2.363   3.291  16.919  0.0259  0.1364  0.6753
11956TIP3    H157283   2.368   3.210  16.969 -0.5022  0.3011  1.0063
11956TIP3    H257284   2.437   3.344  16.949  1.5053 -0.9672 -0.9049
11957TIP3   OH257285   1.651   1.802   3.339  0.6522  0.2060  0.1832
11957TIP3    H157286   1.639   1.755   3.421  0.3275  0.1069  0.0811
11957TIP3    H257287   1.602   1.750   3.274  1.0976  0.1570 -0.1166
11958TIP3   OH257288   6.063   0.634  16.329 -0.4876 -0.7325  0.7300
11958TIP3    H157289   6.096   0.615  16.242 -0.7358 -1.7996  0.8646
11958TIP3    H257290   6.047   0.729  16.329 -0.5165 -0.7362 -0.3838
11959TIP3   OH257291   1.339   6.366  16.439 -0.0677 -0.4806 -0.6413
11959TIP3    H157292   1.353   6.434  16.374  2.0499 -0.5410 -0.2657
11959TIP3    H257293   1.383   6.289  16.403 -1.3953 -1.3359 -0.4891
11960TIP3   OH257294   1.474   3.355   1.407  0.1408  0.2946  0.3513
11960TIP3    H157295   1.382   3.339   1.430  0.3320  0.0356  0.9535
11960TIP3    H257296   1.470   3.412   1.330 -0.5566 -1.6681 -1.1159
11961TIP3   OH257297   1.132   1.410   5.345  0.3567  0.0150  0.6181
11961TIP3    H157298   1.195   1.345   5.377  0.7183  0.7348  1.3870
11961TIP3    H257299   1.104   1.376   5.260  3.3610  0.6846 -0.7211
11962TIP3   OH257300   1.946   3.439  11.372  0.4829 -0.4855  0.1419
11962TIP3    H157301   1.893   3.398  11.441 -1.4806 -0.3882 -1.2730
11962TIP3    H257302   1.997   3.506  11.418  1.8122 -2.7342  2.0570
11963TIP3   OH257303   4.426   4.192   2.529  0.0310 -0.4487  0.2351
11963TIP3    H157304   4.332   4.174   2.537 -0.0241 -0.3629 -0.1936
11963TIP3    H257305   4.430   4.285   2.509  0.2460 -0.2907  0.9734
11964TIP3   OH257306   2.912   3.877  16.446 -0.1526  0.3416 -0.0848
11964TIP3    H157307   3.001   3.905  16.426 -0.4839  1.0224 -0.6514
11964TIP3    H257308   2.874   3.949  16.497  0.3123 -0.8974  2.0559
11965TIP3   OH257309   0.047   1.932   5.133  0.0440  0.2602  0.2619
11965TIP3    H157310   0.013   1.883   5.058 -0.1373  1.6913 -0.6125
11965TIP3    H257311   0.037   1.872   5.207  2.1372 -1.9872 -1.1748
11966TIP3   OH257312   5.589   3.077  16.806  0.2209 -0.0881  0.4166
11966TIP3    H157313   5.621   3.133  16.735  0.8861  0.1034  0.8630
11966TIP3    H257314   5.513   3.124  16.841  2.2012  1.7546  2.3616
11967TIP3   OH257315   5.810   3.306   4.789  0.1554  0.2842 -0.7901
11967TIP3    H157316   5.839   3.228   4.837  0.4833  0.1344 -1.2278
11967TIP3    H257317   5.738   3.275   4.734  1.7436 -0.2415 -2.6716
11968TIP3   OH257318   3.665   6.744   0.600  0.5158 -0.4478  0.2304
11968TIP3    H157319   3.628   6.821   0.557  0.4829 -2.0962 -2.7659
11968TIP3    H257320   3.703   6.692   0.529  3.8841 -1.4058  2.5863
11969TIP3   OH257321   5.878   3.622  16.570  0.1182 -0.1033 -0.3714
11969TIP3    H157322   5.911   3.540  16.607 -0.3551 -0.6070 -1.0390
11969TIP3    H257323   5.901   3.617  16.477 -1.1892 -0.1400 -0.7081
11970TIP3   OH257324   2.070   1.803   0.071  0.0760 -0.5094 -0.1492
11970TIP3    H157325   2.136   1.805   0.002  0.1640 -1.1542 -0.0909
11970TIP3    H257326   1.992   1.766   0.028 -0.1961  0.0830 -0.1760
11971TIP3   OH257327   2.338   1.105  10.288 -0.2267  0.2048 -0.3418
11971TIP3    H157328   2.360   1.150  10.369  1.7689  0.9381 -1.2837
11971TIP3    H257329   2.292   1.171  10.235  0.4828  0.4028 -0.7148
11972TIP3   OH257330   2.833   4.739   1.503  0.0800  0.2658 -0.0791
11972TIP3    H157331   2.761   4.747   1.565  0.8852  3.1425  0.5685
11972TIP3    H257332   2.791   4.727   1.418 -1.1470  0.9155  0.4204
11973TIP3   OH257333   3.838   5.835   1.852 -0.1705  0.5257  0.0188
11973TIP3    H157334   3.897   5.839   1.926 -0.8713  0.7722  0.5733
11973TIP3    H257335   3.750   5.841   1.891 -0.5276  1.2107 -0.8633
11974TIP3   OH257336   1.924   5.901  15.383 -0.7429 -0.8948 -0.2036
11974TIP3    H157337   2.008   5.911  15.426  0.0363  0.9509 -2.0750
11974TIP3    H257338   1.937   5.830  15.320  0.1055  0.8590 -2.0522
11975TIP3   OH257339   2.711   1.018   4.268 -0.7153 -0.1427 -0.7047
11975TIP3    H157340   2.679   1.101   4.234 -1.4618 -0.8095 -1.6682
11975TIP3    H257341   2.796   1.039   4.308 -1.2728  1.2152 -0.2138
11976TIP3   OH257342   5.687   4.601  14.782 -0.0718  0.0377  0.3888
11976TIP3    H157343   5.737   4.680  14.802  0.7606 -0.5933  0.8283
11976TIP3    H257344   5.602   4.634  14.754  0.6938  1.1449 -0.7153
11977TIP3   OH257345   3.461   0.155   6.306 -0.3862 -0.2435 -0.3644
11977TIP3    H157346   3.547   0.147   6.266 -0.7029 -1.2912 -0.8642
11977TIP3    H257347   3.416   0.074   6.282 -1.5358  0.3282 -0.1796
11978TIP3   OH257348   0.244   6.558   6.107 -0.2189 -0.1420 -0.3000
11978TIP3    H157349   0.294   6.639   6.107  0.7570 -0.7283  1.3840
11978TIP3    H257350   0.186   6.566   6.030  2.0202  0.7904 -1.9542
11979TIP3   OH257351   5.059   3.768   4.387 -0.3079  0.4933  0.0339
11979TIP3    H157352   4.963   3.775   4.387 -0.2854  0.7802  0.5741
11979TIP3    H257353   5.089   3.857   4.365 -0.2126 -0.2545 -3.1256
11980TIP3   OH257354   3.372   3.052  15.309 -0.1076  0.1807  0.3736
11980TIP3    H157355   3.393   3.094  15.225 -0.4191  1.7085  1.0371
11980TIP3    H257356   3.457   3.037  15.350  0.0090  0.1920  0.1379
11981TIP3   OH257357   1.798   2.544  12.432 -0.3182 -0.0687  0.0791
11981TIP3    H157358   1.720   2.582  12.393 -0.9069 -0.2644  1.0418
11981TIP3    H257359   1.766   2.497  12.509  0.7373 -0.2012  0.4499
11982TIP3   OH257360   2.132   4.350   4.604 -0.4253  0.2380 -0.0206
11982TIP3    H157361   2.054   4.305   4.572  0.8218 -0.9059 -1.5882
11982TIP3    H257362   2.118   4.442   4.581 -0.0864 -0.3891 -2.8750
11983TIP3   OH257363   2.275   2.625   1.454  0.2860  0.0510  0.9940
11983TIP3    H157364   2.303   2.716   1.458 -0.9475  0.4470  0.7089
11983TIP3    H257365   2.180   2.628   1.468  0.2394 -1.1894  1.0086
11984TIP3   OH257366   0.519   4.180   4.746  0.2358  0.1509 -0.0312
11984TIP3    H157367   0.536   4.239   4.819 -1.5334 -1.4615  1.7640
11984TIP3    H257368   0.586   4.113   4.753  0.0672 -0.0031  0.1262
11985TIP3   OH257369   4.884   2.456   2.271 -0.0512 -0.6800  0.3452
11985TIP3    H157370   4.867   2.550   2.276  1.0067 -0.4893  0.3675
11985TIP3    H257371   4.971   2.449   2.231 -1.1781 -1.7193 -2.0154
11986TIP3   OH257372   3.434   1.981   2.791 -0.1912 -0.1639  0.5941
11986TIP3    H157373   3.371   2.051   2.779  0.3968  0.0607 -1.3781
11986TIP3    H257374   3.511   2.008   2.741  1.4839 -0.4665  2.8640
11987TIP3   OH257375   5.449   1.523   2.126 -0.1999  0.6417 -0.3258
11987TIP3    H157376   5.423   1.455   2.189  0.5337  0.4382 -0.2281
11987TIP3    H257377   5.384   1.518   2.057  0.5785 -1.0932 -0.9808
11988TIP3   OH257378   3.910   6.749   3.186  0.0308  0.6515  0.4232
11988TIP3    H157379   3.912   6.759   3.091  2.0511 -0.7074  0.2887
11988TIP3    H257380   3.940   6.833   3.220  0.5314  0.7192 -0.1851
11989TIP3   OH257381   5.816   5.771  12.084  0.4225  0.4755 -0.2330
11989TIP3    H157382   5.753   5.827  12.128 -0.8908  0.1671 -1.6797
11989TIP3    H257383   5.861   5.829  12.023 -0.0989  0.2141 -0.8714
11990TIP3   OH257384   3.016   6.042   5.785 -0.1450 -0.4666  0.0943
11990TIP3    H157385   2.963   6.108   5.739 -0.9400 -2.3871 -1.8283
11990TIP3    H257386   3.106   6.059   5.754 -0.5750 -1.2941 -1.6715
11991TIP3   OH257387   1.888   4.924  13.083 -0.6183  0.8146  0.8722
11991TIP3    H157388   1.943   5.003  13.085 -0.2294  0.5259  2.4246
11991TIP3    H257389   1.802   4.955  13.109 -0.7861  0.9786  0.1038
11992TIP3   OH257390   5.688   5.308  14.946  0.1079 -0.0072  0.3945
11992TIP3    H157391   5.730   5.394  14.947  0.6739 -0.2808  2.4000
11992TIP3    H257392   5.730   5.261  14.874 -1.3397  1.9280 -1.7603
11993TIP3   OH257393   1.303   5.638   1.918  0.1703 -0.3356 -0.3901
11993TIP3    H157394   1.286   5.545   1.931 -1.8509  0.4039  2.7106
11993TIP3    H257395   1.234   5.667   1.858 -0.4665 -0.4056  0.3074
11994TIP3   OH257396   2.902   3.014   0.106  0.8695 -0.0723  0.4197
11994TIP3    H157397   2.912   3.062   0.189 -2.7076 -1.8599  2.0014
11994TIP3    H257398   2.854   3.075   0.050  2.6325  0.8494 -0.1412
11995TIP3   OH257399   1.121   1.062  12.925  0.2225  0.0128  0.0241
11995TIP3    H157400   1.097   1.139  12.872 -0.3287 -0.0590  0.1725
11995TIP3    H257401   1.143   0.995  12.860  0.0273  0.0786 -0.1119
11996TIP3   OH257402   4.010   0.158  12.566 -0.0720 -0.1437 -0.1496
11996TIP3    H157403   4.046   0.074  12.594  1.7740  1.0388  1.0705
11996TIP3    H257404   3.951   0.136  12.494 -1.1346 -2.6979  1.4458
11997TIP3   OH257405   6.408   3.279  14.020 -0.1993 -0.7737 -0.5227
11997TIP3    H157406   6.473   3.215  14.049  0.8846  0.2334 -0.6910
11997TIP3    H257407   6.452   3.363  14.028 -1.1719 -0.1557 -1.5108
11998TIP3   OH257408   6.030   5.647   4.078 -0.4036 -0.0094  0.3435
11998TIP3    H157409   6.088   5.574   4.056 -1.3163 -0.3531 -0.9737
11998TIP3    H257410   5.973   5.613   4.146  0.1871 -0.0399  0.8204
11999TIP3   OH257411   6.210   6.194  15.991  0.8302  0.6252 -0.0457
11999TIP3    H157412   6.223   6.199  15.897 -0.6253  0.7577 -0.2496
11999TIP3    H257413   6.139   6.131  16.003  1.5819 -0.0332  1.0103
12000TIP3   OH257414   3.659   5.383   2.291  0.0703 -0.0109  0.2184
12000TIP3    H157415   3.678   5.396   2.198 -0.9481  0.4229  0.0614
12000TIP3    H257416   3.744   5.362   2.330  1.3130  4.0085 -0.0813
12001TIP3   OH257417   4.321   6.687   1.350  0.0079  0.2347  0.1920
12001TIP3    H157418   4.398   6.741   1.333 -0.0176  0.4685  0.7971
12001TIP3    H257419   4.355   6.605   1.383  0.0310  0.0261 -0.3503
12002TIP3   OH257420   5.834   3.022  11.391  0.0413 -0.2128 -0.5105
12002TIP3    H157421   5.888   2.954  11.350  1.7183  1.5337 -1.2593
12002TIP3    H257422   5.780   3.056  11.320  1.2630  1.1913 -0.7918
12003TIP3   OH257423   3.007   5.434  15.116  0.0048  0.6585  0.2149
12003TIP3    H157424   3.004   5.515  15.065  0.2827  0.3018 -0.3717
12003TIP3    H257425   3.095   5.434  15.155  0.4751  0.0084 -0.8293
12004TIP3   OH257426   3.407   0.500   2.666 -0.5132  0.1320 -0.5103
12004TIP3    H157427   3.496   0.521   2.639 -0.3134  1.2958  0.9855
12004TIP3    H257428   3.407   0.512   2.761 -2.1388 -0.3372 -0.4297
12005TIP3   OH257429   2.495   2.422  12.797  0.2147 -0.5834 -0.1830
12005TIP3    H157430   2.509   2.427  12.702  0.7494 -1.3320 -0.1499
12005TIP3    H257431   2.489   2.513  12.825 -3.0036 -0.3703 -1.3707
12006TIP3   OH257432   2.829   0.204   6.513 -0.3696 -0.1954  0.1651
12006TIP3    H157433   2.820   0.121   6.559  0.4328  0.3811  1.3907
12006TIP3    H257434   2.743   0.245   6.520 -0.7783 -0.9274 -0.4745
12007TIP3   OH257435   6.181   5.705  13.221  0.1429 -0.5960  0.3944
12007TIP3    H157436   6.145   5.708  13.309  1.5542 -0.0629  0.9589
12007TIP3    H257437   6.186   5.612  13.200 -1.9982 -0.6665  0.1120
12008TIP3   OH257438   6.011   4.883  10.962 -0.0901  0.1642  0.6297
12008TIP3    H157439   6.006   4.961  10.907  0.6674 -0.5866 -0.5172
12008TIP3    H257440   5.968   4.815  10.910  0.9508 -0.6368  0.8153
12009TIP3   OH257441   1.255   3.132  11.716  0.0148  0.2370  0.4321
12009TIP3    H157442   1.311   3.207  11.733  0.0997  0.3615 -0.3995
12009TIP3    H257443   1.169   3.158  11.750  0.4006  0.1169  1.5312
12010TIP3   OH257444   2.820   5.902  12.575  0.1638  0.0367 -0.0191
12010TIP3    H157445   2.855   5.877  12.661 -0.7322  1.2971  0.7314
12010TIP3    H257446   2.864   5.843  12.513  0.6813 -1.0152  1.3161
12011TIP3   OH257447   0.019   0.898  11.898  0.5294  0.6671 -0.6819
12011TIP3    H157448   0.000   0.921  11.807 -1.5493  0.4123 -0.3533
12011TIP3    H257449  -0.068   0.886  11.938  1.4288 -1.6235  0.7013
12012TIP3   OH257450   0.574   4.524   0.612  0.1935  0.0583 -1.4983
12012TIP3    H157451   0.579   4.613   0.577  3.2218 -0.0757 -1.4738
12012TIP3    H257452   0.614   4.530   0.699 -0.9767 -1.0508 -0.8590
12013TIP3   OH257453   2.302   4.735  16.680  0.6296  0.4107  0.5335
12013TIP3    H157454   2.244   4.748  16.605  2.4288  0.5022 -0.8740
12013TIP3    H257455   2.344   4.821  16.693  2.7817 -0.4253 -0.5055
12014TIP3   OH257456   2.693   0.109   4.836  0.2665 -0.4348  0.1074
12014TIP3    H157457   2.678   0.154   4.753 -0.2045 -0.9485 -0.0905
12014TIP3    H257458   2.779   0.139   4.865  0.4931 -0.3677 -0.6379
12015TIP3   OH257459   3.097   0.595   4.363 -0.1006 -0.1523  0.3672
12015TIP3    H157460   3.111   0.668   4.424 -1.6562  0.6340 -0.2035
12015TIP3    H257461   3.148   0.620   4.285  0.4836 -0.3407  0.6827
12016TIP3   OH257462   6.562   3.602  16.459 -0.0033  0.3665  0.2095
12016TIP3    H157463   6.553   3.665  16.530  2.3150  1.1865 -0.1563
12016TIP3    H257464   6.550   3.654  16.380 -1.0003 -0.2270 -0.0219
12017TIP3   OH257465   3.297   6.128   4.727 -0.2643 -0.0583  0.0314
12017TIP3    H157466   3.209   6.095   4.748 -0.6775  0.8555 -0.1986
12017TIP3    H257467   3.307   6.206   4.782 -1.0695  1.9561 -2.5238
12018TIP3   OH257468   2.350   2.067   4.695  0.3466  0.5435 -0.4444
12018TIP3    H157469   2.295   2.083   4.618 -0.6571  1.3816  0.4425
12018TIP3    H257470   2.387   2.153   4.716  0.3469  0.3856  0.2074
12019TIP3   OH257471   1.256   5.490   4.265 -0.5151 -0.5050  0.6350
12019TIP3    H157472   1.350   5.504   4.254 -0.2807 -1.6252  1.1830
12019TIP3    H257473   1.243   5.490   4.360 -1.3931  1.7007  0.5498
12020TIP3   OH257474   0.647   1.643  12.128 -0.2029 -0.3208  0.4844
12020TIP3    H157475   0.640   1.607  12.040 -1.8735  0.3353  0.3437
12020TIP3    H257476   0.707   1.583  12.173 -0.6612 -1.6206 -0.6020
12021TIP3   OH257477   6.393   6.739   6.108  0.1986  0.0973  0.3405
12021TIP3    H157478   6.377   6.811   6.048  0.1782  1.3949  1.8868
12021TIP3    H257479   6.481   6.754   6.142  0.7115 -1.3280 -0.3013
12022TIP3   OH257480   3.198   0.918  14.538  0.2268  0.0992  0.1389
12022TIP3    H157481   3.244   0.899  14.620 -0.5078 -0.8972  0.3291
12022TIP3    H257482   3.113   0.874  14.547 -0.4483  1.2324 -0.5391
12023TIP3   OH257483   4.628   4.680   6.064 -0.4018  0.6229 -0.7827
12023TIP3    H157484   4.533   4.684   6.056 -0.3600 -1.4988 -3.0280
12023TIP3    H257485   4.645   4.601   6.116  0.1454 -0.1712 -2.1260
12024TIP3   OH257486   1.255   2.984  15.652 -0.1272 -0.5339 -0.3719
12024TIP3    H157487   1.343   2.976  15.691 -0.4124  1.7939  0.8869
12024TIP3    H257488   1.215   2.898  15.664  0.6302 -0.5477  2.5573
12025TIP3   OH257489   1.580   5.988   2.419  0.1248  0.3380 -0.1653
12025TIP3    H157490   1.558   5.984   2.512  0.2810  2.8808  0.0281
12025TIP3    H257491   1.496   5.975   2.374  0.0523 -0.9274  0.3074
12026TIP3   OH257492   1.717   0.482   4.709 -0.5077  0.2261 -0.8247
12026TIP3    H157493   1.709   0.455   4.800 -1.9307 -0.1018 -1.0422
12026TIP3    H257494   1.767   0.412   4.667 -0.8136 -0.1645 -0.5395
12027TIP3   OH257495   5.944   5.083  16.456 -0.1687  0.7078  0.7484
12027TIP3    H157496   5.898   5.091  16.373 -1.6865  1.3193  1.6370
12027TIP3    H257497   5.894   5.019  16.506  2.0057 -1.3716  0.3884
12028TIP3   OH257498   4.489   0.113  13.004 -0.0457  0.6647  0.4428
12028TIP3    H157499   4.579   0.092  12.979 -0.8488 -2.5151  0.0745
12028TIP3    H257500   4.483   0.086  13.095 -0.7977  0.2853  0.2805
12029TIP3   OH257501   6.300   4.168   1.351 -0.2539  0.5477 -0.1147
12029TIP3    H157502   6.341   4.250   1.325 -0.9552  1.3939  1.4210
12029TIP3    H257503   6.355   4.135   1.422 -0.7462  0.3483  0.1700
12030TIP3   OH257504   1.793   5.932   4.677  0.2595  0.3692  0.1913
12030TIP3    H157505   1.767   5.989   4.749  1.9113  1.3830 -0.0083
12030TIP3    H257506   1.759   5.975   4.599 -3.1257 -1.6293  0.4140
12031TIP3   OH257507   2.917   3.881   0.171  0.6204  0.0578  0.1159
12031TIP3    H157508   2.918   3.839   0.257 -0.5383 -0.6552 -0.1997
12031TIP3    H257509   2.934   3.973   0.189 -2.7181  0.4823  1.4636
12032TIP3   OH257510   1.208   2.064   4.428  0.0973  0.0958  0.2575
12032TIP3    H157511   1.116   2.062   4.402  0.0431 -1.4876  0.5240
12032TIP3    H257512   1.253   2.013   4.361  0.8784  1.4280 -0.2357
12033TIP3   OH257513   3.955   3.549   6.313  0.3382  0.2313 -0.1143
12033TIP3    H157514   3.968   3.627   6.258  0.2646  1.8036  2.0192
12033TIP3    H257515   4.035   3.545   6.366 -0.7577  0.3473  1.5647
12034TIP3   OH257516   5.655   5.917  16.287  0.0825 -0.7078  0.8777
12034TIP3    H157517   5.649   5.851  16.355  1.5681  0.4091  2.1191
12034TIP3    H257518   5.748   5.940  16.283 -0.2973  0.8055 -0.0066
12035TIP3   OH257519   3.184   3.557   4.060  0.3672 -0.4164  0.4656
12035TIP3    H157520   3.205   3.479   4.008  0.9905 -0.5447  0.9023
12035TIP3    H257521   3.192   3.528   4.151 -2.9321 -0.8017  0.6836
12036TIP3   OH257522   4.988   4.169   2.234 -0.0179  0.4365  0.0579
12036TIP3    H157523   5.002   4.227   2.159  0.4355  1.0225  0.5940
12036TIP3    H257524   5.045   4.094   2.218 -2.0871 -0.8542 -1.6592
12037TIP3   OH257525   5.719   3.234  10.990 -0.3201  0.4849 -0.2565
12037TIP3    H157526   5.777   3.161  10.970 -0.3311  0.0709  1.1766
12037TIP3    H257527   5.771   3.312  10.969 -0.0290  0.0890 -1.0383
12038TIP3   OH257528   3.870   0.786   3.286  0.0293 -0.7144  0.6601
12038TIP3    H157529   3.859   0.810   3.378 -1.0571 -2.0648  0.8957
12038TIP3    H257530   3.809   0.714   3.272  1.0710 -1.3437 -0.8073
12039TIP3   OH257531   5.497   1.472   5.287  0.0348  0.0213  0.3794
12039TIP3    H157532   5.510   1.441   5.377  0.4790  0.3744  0.4355
12039TIP3    H257533   5.561   1.542   5.276  2.0750 -2.0084 -1.1938
12040TIP3   OH257534   4.668   1.810  14.426  0.0225 -0.1322 -0.1077
12040TIP3    H157535   4.670   1.723  14.466 -1.1346  0.1284  0.5548
12040TIP3    H257536   4.604   1.803  14.356  0.2912  0.0476 -0.3712
12041TIP3   OH257537   4.844   0.399  14.519 -0.5948  0.1390 -0.2581
12041TIP3    H157538   4.862   0.310  14.488  0.9208  0.7434 -1.1529
12041TIP3    H257539   4.924   0.448  14.500 -1.4422  1.7260  0.1562
12042TIP3   OH257540   1.977   2.158  14.645  0.3122  0.5848  0.5810
12042TIP3    H157541   1.894   2.127  14.681  0.5182  0.3357  0.8387
12042TIP3    H257542   1.968   2.253  14.643 -0.2023  0.5307  0.0770
12043TIP3   OH257543   5.506   3.413   3.663  0.4789 -0.3965 -0.0979
12043TIP3    H157544   5.453   3.339   3.631  0.8771 -1.5042  1.7315
12043TIP3    H257545   5.510   3.473   3.589  0.1607 -2.2311 -1.6414
12044TIP3   OH257546   3.334   1.124  13.294 -0.2022  0.4533 -0.0169
12044TIP3    H157547   3.429   1.135  13.290  0.1648 -2.4187 -0.2382
12044TIP3    H257548   3.302   1.164  13.213  0.9118  0.6039 -0.4006
12045TIP3   OH257549   3.704   0.096   4.857 -0.3201  0.1156 -0.0609
12045TIP3    H157550   3.798   0.082   4.850 -0.2660  1.2485 -1.9892
12045TIP3    H257551   3.680   0.055   4.940  1.7646 -0.6915  0.1846
12046TIP3   OH257552   1.760   6.037   1.712 -0.4891 -0.7074  0.7551
12046TIP3    H157553   1.791   5.955   1.673  1.1161  0.2599 -0.0647
12046TIP3    H257554   1.674   6.051   1.671  0.7735 -0.1771 -1.8563
12047TIP3   OH257555   0.815   2.604  11.734 -0.4417  0.3908 -0.1229
12047TIP3    H157556   0.848   2.579  11.821  1.7670  1.3255 -0.6533
12047TIP3    H257557   0.864   2.548  11.673  0.2758  1.8771 -0.9364
12048TIP3   OH257558   0.983   3.889  14.344  0.2804  0.0088  0.2319
12048TIP3    H157559   0.922   3.961  14.325 -0.1456 -0.2441  0.6610
12048TIP3    H257560   1.051   3.929  14.398  1.1519  0.5830 -1.2445
12049TIP3   OH257561   0.468   5.056  16.093  0.4610  0.0120  0.2006
12049TIP3    H157562   0.431   5.076  16.007 -0.6282  0.3507  0.7324
12049TIP3    H257563   0.490   5.141  16.130 -2.2400  0.1546  1.6188
12050TIP3   OH257564   5.060   6.050  13.899  0.0775 -0.2633  0.2102
12050TIP3    H157565   5.154   6.064  13.890 -0.0991  0.1840 -0.9489
12050TIP3    H257566   5.053   5.976  13.960  1.1783 -0.8008 -0.2996
12051TIP3   OH257567   3.048   0.991  13.305  0.6756 -0.3492  0.6463
12051TIP3    H157568   3.138   1.022  13.294  1.7166 -2.8830  1.6168
12051TIP3    H257569   3.048   0.947  13.391 -1.6301  0.1156  0.9063
12052TIP3   OH257570   4.888   0.695   5.498 -0.4397  0.8518 -0.0888
12052TIP3    H157571   4.881   0.775   5.549 -1.0786  0.6445  0.1527
12052TIP3    H257572   4.813   0.643   5.524  0.5839 -0.3055  0.5963
12053TIP3   OH257573   3.094   2.733   2.706  0.5132 -0.1360 -0.2827
12053TIP3    H157574   3.094   2.682   2.787 -0.8357  0.2955  0.0104
12053TIP3    H257575   3.141   2.813   2.727 -1.8181  0.9986  0.7705
12054TIP3   OH257576   1.757   3.154  15.965  0.1713 -0.3443 -0.4741
12054TIP3    H157577   1.753   3.250  15.974  0.2368 -0.4878  1.1131
12054TIP3    H257578   1.666   3.127  15.955  0.1426 -0.1377 -0.7946
12055TIP3   OH257579   4.946   2.836   2.770  0.2598  0.1216  0.5392
12055TIP3    H157580   4.906   2.841   2.856 -0.2314 -1.5111  0.4181
12055TIP3    H257581   4.876   2.859   2.709 -0.0192 -0.9891  0.4369
12056TIP3   OH257582   3.147   0.572  13.493 -0.1137 -0.1004  0.2099
12056TIP3    H157583   3.144   0.483  13.456 -1.2923 -0.3348  0.8321
12056TIP3    H257584   3.056   0.601  13.493  0.0458  0.4432  1.5868
12057TIP3   OH257585   5.396   2.247   6.242  0.0463  0.7777 -0.6192
12057TIP3    H157586   5.353   2.216   6.163  1.3262 -1.0411 -0.6195
12057TIP3    H257587   5.431   2.168   6.284  0.9033  1.9017  0.8461
12058TIP3   OH257588   1.892   1.570  15.550 -0.3707 -0.1631  0.2205
12058TIP3    H157589   1.955   1.544  15.483  0.6513  0.4668  0.9251
12058TIP3    H257590   1.836   1.494  15.562  0.0100 -0.5906 -0.7008
12059TIP3   OH257591   5.135   6.739   0.863 -0.0489 -0.5964 -0.5986
12059TIP3    H157592   5.172   6.790   0.935  0.9460 -0.2143 -1.3788
12059TIP3    H257593   5.186   6.658   0.862  0.8082 -0.0520 -1.6981
12060TIP3   OH257594   1.495   1.648  17.097 -0.8773 -0.4521  0.2065
12060TIP3    H157595   1.432   1.717  17.079  0.1350 -0.0157 -1.7425
12060TIP3    H257596   1.539   1.677  17.177 -2.9010 -0.6198  1.4292
12061TIP3   OH257597   0.316   0.622   6.281  0.3524  0.1700  0.0547
12061TIP3    H157598   0.302   0.559   6.352 -0.8972  0.6232  0.2315
12061TIP3    H257599   0.339   0.703   6.326 -0.9472  0.5917 -0.0176
12062TIP3   OH257600   1.398   1.839   3.138  0.4449  0.5363  0.9954
12062TIP3    H157601   1.442   1.913   3.096 -0.6125  1.3844  1.3766
12062TIP3    H257602   1.359   1.876   3.217  0.3860 -0.5506  1.4799
12063TIP3   OH257603   4.953   5.572   3.683  0.1958  0.0464 -0.0709
12063TIP3    H157604   4.961   5.478   3.695 -0.6290 -0.2480 -1.6731
12063TIP3    H257605   4.919   5.582   3.595  0.9632  1.8813 -0.1874
12064TIP3   OH257606   5.042   0.076  12.462 -0.4398 -0.1929 -0.3385
12064TIP3    H157607   4.999   0.081  12.377 -0.9929 -0.1417 -0.0576
12064TIP3    H257608   5.074   0.164  12.479  0.6734 -0.4672 -1.0122
12065TIP3   OH257609   6.256   2.591  14.447  0.3464  0.1643 -0.0879
12065TIP3    H157610   6.350   2.600  14.431  0.7275 -0.9891  1.4114
12065TIP3    H257611   6.232   2.510  14.401  0.0576  0.5243 -0.5732
12066TIP3   OH257612   4.824   4.592   3.019  0.3126  0.2600 -0.1279
12066TIP3    H157613   4.845   4.572   3.110  2.2014 -0.5735 -0.7115
12066TIP3    H257614   4.794   4.508   2.982 -0.8428  0.6875 -0.1669
12067TIP3   OH257615   3.756   5.159   4.604  0.5508  0.0197  0.6941
12067TIP3    H157616   3.669   5.170   4.565  1.0763  0.2874 -0.4269
12067TIP3    H257617   3.753   5.073   4.646 -0.6242  0.5108  1.6686
12068TIP3   OH257618   6.062   5.688  10.970  0.2096  0.2437  0.2123
12068TIP3    H157619   6.088   5.770  11.011  2.0860  0.2727 -0.9684
12068TIP3    H257620   6.008   5.715  10.896  1.0218  0.4561 -0.3179
12069TIP3   OH257621   6.761   2.621   0.938  0.1141  0.4832 -0.7231
12069TIP3    H157622   6.748   2.715   0.951 -2.4941  0.2185 -1.2198
12069TIP3    H257623   6.776   2.611   0.844  1.9733  0.5387 -0.4584
12070TIP3   OH257624   4.047   6.552  14.699 -0.6156 -0.6432  0.3569
12070TIP3    H157625   4.040   6.543  14.794 -2.6432 -0.3568  0.2624
12070TIP3    H257626   4.140   6.565  14.682 -0.4814  1.4792  2.4917
12071TIP3   OH257627   2.039   4.773  15.135 -0.5020  0.0533  0.1111
12071TIP3    H157628   1.989   4.693  15.114  0.0377  0.5458 -3.4220
12071TIP3    H257629   2.129   4.752  15.109 -0.4225  1.8978 -1.1662
12072TIP3   OH257630   0.242   2.022   0.103 -0.4818  0.1345 -0.3656
12072TIP3    H157631   0.219   1.930   0.109 -1.4265  0.3854 -0.0077
12072TIP3    H257632   0.327   2.029   0.147 -1.3830 -0.2228  1.4883
12073TIP3   OH257633   0.211   1.062   4.841 -0.0730  0.3213 -0.2152
12073TIP3    H157634   0.288   1.005   4.839  0.4687  1.0041  0.9025
12073TIP3    H257635   0.225   1.119   4.916 -0.1503  2.5747 -1.8316
12074TIP3   OH257636   5.158   0.009  17.058 -0.4517  0.3760 -0.1273
12074TIP3    H157637   5.222   0.061  17.010  0.3295 -1.3664 -1.0230
12074TIP3    H257638   5.177  -0.082  17.033  0.2988 -0.6539  3.8294
12075TIP3   OH257639   5.713   6.692  11.923  0.0388  0.5019  0.4908
12075TIP3    H157640   5.746   6.670  12.010  2.6408 -0.0717 -0.6166
12075TIP3    H257641   5.693   6.785  11.927  3.0645  1.1681  0.8207
12076TIP3   OH257642   6.197   0.335   1.639  0.1354 -0.4095  0.2701
12076TIP3    H157643   6.138   0.353   1.712  0.2285 -0.0280  0.2551
12076TIP3    H257644   6.172   0.248   1.608  0.0049 -0.5152  0.6681
12077TIP3   OH257645   4.715   4.257  13.005 -0.2453 -0.0612  0.3413
12077TIP3    H157646   4.733   4.305  12.924 -1.6817  0.7315  0.4786
12077TIP3    H257647   4.714   4.324  13.073  0.8250 -0.7092  1.0141
12078TIP3   OH257648   0.087   5.469  10.694  0.0188 -0.6510  0.3238
12078TIP3    H157649   0.143   5.437  10.623 -0.2171  0.3887 -0.3469
12078TIP3    H257650   0.023   5.399  10.708 -1.3819  0.0952 -2.1063
12079TIP3   OH257651   0.256   0.554   0.792 -0.3640  0.2748  0.4098
12079TIP3    H157652   0.222   0.641   0.813 -1.3890 -0.6734  2.8897
12079TIP3    H257653   0.180   0.497   0.798  0.4261 -0.9029 -0.6097
12080TIP3   OH257654   0.664   2.694   2.802  0.0810 -0.1560 -0.2281
12080TIP3    H157655   0.577   2.660   2.820  1.0748 -2.0610  1.2178
12080TIP3    H257656   0.721   2.617   2.807  1.7900  0.9662 -1.6098
12081TIP3   OH257657   1.909   0.945  14.690  0.4643 -0.5859 -0.8014
12081TIP3    H157658   1.907   1.004  14.615  1.8687 -1.2254 -1.3602
12081TIP3    H257659   1.829   0.893  14.682 -1.6261  2.2863  0.5891
12082TIP3   OH257660   6.043   2.064   6.676 -0.2146  0.6571  0.4301
12082TIP3    H157661   6.004   1.977   6.666 -2.0852  1.4970  0.2832
12082TIP3    H257662   6.015   2.094   6.762  0.9734  0.8616  0.7633
12083TIP3   OH257663   1.314   2.864  16.852 -0.0016  0.1808 -0.5390
12083TIP3    H157664   1.331   2.958  16.862 -0.9419  0.1874  1.1204
12083TIP3    H257665   1.381   2.822  16.906 -1.7849  0.0311  1.6143
12084TIP3   OH257666   3.088   5.737  13.004  0.3029  0.5623  0.3192
12084TIP3    H157667   3.126   5.728  12.917  0.9745 -0.9663  0.7467
12084TIP3    H257668   3.001   5.697  12.996 -0.2852  1.8905 -0.0490
12085TIP3   OH257669   6.203   5.388  11.261 -0.0602  0.0658  0.0364
12085TIP3    H157670   6.240   5.430  11.339  0.7565 -1.1079  0.2931
12085TIP3    H257671   6.146   5.320  11.294 -1.3348  0.9158 -0.3857
12086TIP3   OH257672   3.905   0.975   2.583  0.1638  0.1518 -0.0675
12086TIP3    H157673   3.816   0.987   2.549  0.3409  1.0920 -0.2179
12086TIP3    H257674   3.896   0.911   2.654 -1.0615  2.3009  1.7730
12087TIP3   OH257675   6.403   1.020  14.217 -0.1268  0.2401  0.3724
12087TIP3    H157676   6.472   1.087  14.214  0.1005 -0.0205 -0.2401
12087TIP3    H257677   6.326   1.064  14.182  0.7309 -0.6506 -2.7517
12088TIP3   OH257678   3.400   1.040  11.749  0.0239  0.1034 -0.5132
12088TIP3    H157679   3.428   0.980  11.679 -0.6842 -0.5347 -0.2534
12088TIP3    H257680   3.330   0.993  11.794 -0.7539  1.2537 -0.4997
12089TIP3   OH257681   1.000   2.212  11.260 -0.5535 -0.8778  0.3442
12089TIP3    H157682   0.989   2.123  11.294  1.1250 -1.3358 -0.2693
12089TIP3    H257683   1.089   2.214  11.225 -0.2108  1.3276  1.2026
12090TIP3   OH257684   1.746   5.571   1.863 -0.0477  0.4023  0.4045
12090TIP3    H157685   1.769   5.627   1.789  0.1369  0.3900  0.4525
12090TIP3    H257686   1.830   5.539   1.896 -0.1377  0.2984  0.5337
12091TIP3   OH257687   0.016   3.195  14.337  0.0348 -0.5681  0.0364
12091TIP3    H157688  -0.026   3.111  14.357 -2.8396  0.6741 -0.6436
12091TIP3    H257689  -0.014   3.216  14.249  3.5273 -0.4626 -1.2059
12092TIP3   OH257690   3.915   2.825  17.015  0.5372 -0.0263  0.0381
12092TIP3    H157691   3.847   2.758  17.003  1.4946 -1.2581  1.3362
12092TIP3    H257692   3.979   2.807  16.946  1.4837 -1.3671  1.2183
12093TIP3   OH257693   5.633   0.461   2.793  0.5642  0.3774 -0.5111
12093TIP3    H157694   5.642   0.534   2.730  1.2861  1.7967  1.2050
12093TIP3    H257695   5.629   0.504   2.878  4.0398 -1.7841  0.7927
12094TIP3   OH257696   4.312   6.462  10.834 -0.1437 -0.0134 -0.2097
12094TIP3    H157697   4.333   6.383  10.784  0.6471  0.4671 -0.6218
12094TIP3    H257698   4.263   6.517  10.773  2.1453  1.2380 -0.9419
12095TIP3   OH257699   0.396   4.149   0.134 -0.6175 -0.0547  0.4788
12095TIP3    H157700   0.421   4.071   0.184  2.2949  0.9475  0.7219
12095TIP3    H257701   0.418   4.127   0.044 -0.6161  0.1762  0.4239
12096TIP3   OH257702   6.171   6.167  14.604 -0.3696  0.0194  0.3282
12096TIP3    H157703   6.220   6.224  14.544  0.3540 -1.9673 -1.0110
12096TIP3    H257704   6.121   6.109  14.547 -0.4073 -1.2713  1.6512
12097TIP3   OH257705   0.885   0.735   6.010 -0.1625 -0.0841  0.5400
12097TIP3    H157706   0.939   0.659   6.032 -0.5106 -0.1579  1.1519
12097TIP3    H257707   0.812   0.700   5.960 -0.2148 -0.1228  0.6444
12098TIP3   OH257708   6.605   5.672  15.641 -0.0082 -0.1619 -0.0456
12098TIP3    H157709   6.543   5.629  15.700  0.3288 -0.3451  0.1767
12098TIP3    H257710   6.655   5.732  15.697  0.5178 -0.5575 -0.0810
12099TIP3   OH257711   3.714   3.294  15.900  0.4600  0.2340  0.0316
12099TIP3    H157712   3.631   3.269  15.940  0.5126  1.6060  1.0173
12099TIP3    H257713   3.779   3.242  15.947  0.1396 -1.1235 -0.9974
12100TIP3   OH257714   0.123   1.841   4.680  0.3554  0.1021 -0.6894
12100TIP3    H157715   0.058   1.795   4.627  0.5417 -0.2205 -0.6407
12100TIP3    H257716   0.201   1.843   4.625 -0.1548  1.8816 -1.3788
12101TIP3   OH257717   5.394   0.826   1.726  0.3966 -0.3805  0.0379
12101TIP3    H157718   5.471   0.783   1.689 -0.3179 -0.2230 -1.6425
12101TIP3    H257719   5.321   0.795   1.673 -0.6534 -0.1305  1.2978
12102TIP3   OH257720   6.400   3.712   1.428 -0.1878  0.1884  0.0935
12102TIP3    H157721   6.473   3.671   1.382 -0.9980 -1.0872 -0.0714
12102TIP3    H257722   6.323   3.690   1.376 -1.3090 -2.4096  2.7029
12103TIP3   OH257723   4.799   4.645  11.068 -0.0179 -0.2572  0.4957
12103TIP3    H157724   4.859   4.630  11.141  0.9892  0.8552 -0.0958
12103TIP3    H257725   4.830   4.586  10.999 -0.1578 -0.3307  0.4936
12104TIP3   OH257726   3.080   1.826   4.565  0.1191  0.3110  0.7036
12104TIP3    H157727   3.073   1.741   4.608  1.3424  0.7844  1.9054
12104TIP3    H257728   3.073   1.889   4.637 -1.4813  1.2655 -0.2552
12105TIP3   OH257729   5.916   4.284   3.326  0.1605  0.4057 -0.2960
12105TIP3    H157730   5.983   4.339   3.285  1.2950 -1.3999 -0.9491
12105TIP3    H257731   5.966   4.222   3.380 -1.0684 -0.1537  0.2112
12106TIP3   OH257732   2.156   0.197   2.034 -0.2361 -0.5234 -0.8091
12106TIP3    H157733   2.234   0.142   2.042  0.0516  0.1010  0.7040
12106TIP3    H257734   2.187   0.286   2.048 -1.3896 -0.3786  1.0053
12107TIP3   OH257735   1.411   5.122  11.754  0.2267 -0.3796 -0.3598
12107TIP3    H157736   1.387   5.079  11.836  2.3273 -1.0259 -0.0468
12107TIP3    H257737   1.412   5.216  11.776 -2.6736 -0.2587 -0.5998
12108TIP3   OH257738   0.340   5.753   0.607  0.0089  0.0236 -0.2530
12108TIP3    H157739   0.411   5.720   0.661 -0.8094 -2.0536 -0.4234
12108TIP3    H257740   0.370   5.739   0.517  0.8251  2.3115 -0.3785
12109TIP3   OH257741   4.779   6.013   0.626  0.0953 -0.7925  0.6284
12109TIP3    H157742   4.757   6.103   0.648 -1.4942 -1.3804  1.5176
12109TIP3    H257743   4.715   5.960   0.673  1.2393 -2.4122  0.4192
12110TIP3   OH257744   1.668   4.830  15.045  0.2261  0.2224 -0.0818
12110TIP3    H157745   1.629   4.856  14.962 -0.2102  0.8897  0.3214
12110TIP3    H257746   1.762   4.826  15.028  0.0673 -0.3982 -0.8034
12111TIP3   OH257747   0.268   2.344   1.752 -0.4917 -0.4031  0.0811
12111TIP3    H157748   0.192   2.351   1.810 -1.3797  0.8401 -1.2143
12111TIP3    H257749   0.341   2.378   1.805 -1.4033  1.3016  0.2673
12112TIP3   OH257750   5.184   2.067  13.056 -0.0500  0.0470  0.1522
12112TIP3    H157751   5.221   1.984  13.025  0.8269  0.3191  0.4551
12112TIP3    H257752   5.159   2.114  12.976  0.0701 -0.2274 -0.0468
12113TIP3   OH257753   1.267   0.759  15.487 -0.0461 -0.3966  0.5632
12113TIP3    H157754   1.236   0.830  15.431 -2.7345 -0.6368  1.6594
12113TIP3    H257755   1.346   0.793  15.528 -0.0647  1.1122 -0.6117
12114TIP3   OH257756   1.241   3.226   3.055  0.1680  0.8021 -0.0433
12114TIP3    H157757   1.207   3.180   3.131  1.1820  1.8868  1.0968
12114TIP3    H257758   1.169   3.227   2.993 -0.6287 -0.2232  0.8483
12115TIP3   OH257759   3.668   1.164  13.752 -0.3483 -0.0549  0.1527
12115TIP3    H157760   3.618   1.197  13.677  2.4010  2.3145 -0.6896
12115TIP3    H257761   3.604   1.161  13.824 -1.8384  2.5054 -1.0094
12116TIP3   OH257762   4.876   2.366   3.605 -0.2043 -0.0379  0.2074
12116TIP3    H157763   4.794   2.337   3.565  0.8400 -0.1215 -1.9690
12116TIP3    H257764   4.891   2.454   3.568  0.7050 -0.0515  0.5132
12117TIP3   OH257765   5.190   5.555   5.765  0.4171 -0.4589  0.4793
12117TIP3    H157766   5.119   5.535   5.827  1.9703  0.9408  2.7782
12117TIP3    H257767   5.268   5.563   5.819  2.2980 -1.5268 -1.9690
12118TIP3   OH257768   0.328   1.662  13.182 -0.5286 -0.0475  0.1609
12118TIP3    H157769   0.411   1.623  13.209 -0.3338  0.6787  0.6528
12118TIP3    H257770   0.277   1.590  13.146 -0.8979 -1.0909  2.7391
12119TIP3   OH257771   2.339   6.780   2.110 -1.0367  0.0350 -0.1879
12119TIP3    H157772   2.333   6.799   2.204  0.7658 -1.8183  0.3522
12119TIP3    H257773   2.425   6.737   2.100 -2.2021 -1.9292 -2.2940
12120TIP3   OH257774   5.302   5.883   0.166  0.0074  0.0114 -0.2774
12120TIP3    H157775   5.359   5.953   0.132 -1.1626  0.3156 -1.6698
12120TIP3    H257776   5.226   5.930   0.202 -0.7802 -0.5300 -1.2151
12121TIP3   OH257777   4.248   6.159   3.890  0.7165 -0.2907  0.2808
12121TIP3    H157778   4.299   6.092   3.846  0.1894 -0.9985  0.7370
12121TIP3    H257779   4.160   6.123   3.896  0.4770  0.3432  0.7233
12122TIP3   OH257780   4.018   5.989   5.505  0.3348  0.3480 -0.3291
12122TIP3    H157781   4.058   5.910   5.541  0.9579  0.4419 -0.8096
12122TIP3    H257782   3.975   6.031   5.580 -1.4487 -1.3077 -0.3783
12123TIP3   OH257783   1.712   2.032  16.566  0.2401  0.2410 -0.0285
12123TIP3    H157784   1.667   2.020  16.482 -0.5092  0.3128  0.3514
12123TIP3    H257785   1.803   2.009  16.548 -0.0161 -0.2482 -0.7410
12124TIP3   OH257786   2.754   3.246  14.945  0.4504 -1.1412 -0.0403
12124TIP3    H157787   2.705   3.212  14.870 -0.7310 -1.4490  0.8504
12124TIP3    H257788   2.845   3.243  14.918  0.1071 -2.0970 -1.1312
12125TIP3   OH257789   5.457   5.391   0.118  0.1186  0.0509  0.8034
12125TIP3    H157790   5.510   5.432   0.187  0.2013  1.2638  0.0326
12125TIP3    H257791   5.379   5.360   0.163  0.6967 -0.2067  1.6481
12126TIP3   OH257792   4.531   0.296   0.709 -0.8404  1.0806 -0.1441
12126TIP3    H157793   4.573   0.312   0.793 -0.8806 -0.3500  0.1625
12126TIP3    H257794   4.465   0.366   0.702 -0.4643  1.5407  0.7450
12127TIP3   OH257795   2.745   5.541  14.835  0.3057  0.4161  0.1601
12127TIP3    H157796   2.706   5.462  14.872  0.2509  0.5767  0.4416
12127TIP3    H257797   2.701   5.551  14.750  0.0035  0.3866  0.3129
12128TIP3   OH257798   3.658   2.079   4.584  0.4737 -0.3229 -0.4573
12128TIP3    H157799   3.628   2.068   4.494  0.9392 -0.1049 -0.6427
12128TIP3    H257800   3.614   2.010   4.633 -1.4475  0.8882 -0.4527
12129TIP3   OH257801   1.356   4.000  12.652 -0.5371  0.3414  0.2743
12129TIP3    H157802   1.419   3.976  12.719  0.3081  2.5080  0.3118
12129TIP3    H257803   1.374   4.093  12.634 -4.0655  1.2072  0.6939
12130TIP3   OH257804   1.743   1.472   5.616 -0.0998 -0.0018  0.4248
12130TIP3    H157805   1.671   1.508   5.669 -0.6435 -0.1361 -0.2282
12130TIP3    H257806   1.719   1.490   5.526 -0.7779 -2.7499  0.0289
12131TIP3   OH257807   3.130   2.945  12.169  0.7232 -0.1067  0.0333
12131TIP3    H157808   3.090   2.928  12.254 -0.4866  0.9846 -0.3082
12131TIP3    H257809   3.223   2.960  12.188  0.3532  0.6741  1.2119
12132TIP3   OH257810   6.463   3.906  16.368  0.3537  0.5272  0.4952
12132TIP3    H157811   6.480   3.870  16.455  1.6414 -3.1962 -1.1920
12132TIP3    H257812   6.395   3.849  16.332 -0.5565  2.3688 -0.7879
12133TIP3   OH257813   0.036   3.899   1.790 -0.1914 -1.1305  0.1323
12133TIP3    H157814   0.006   3.809   1.803 -2.0234 -0.3710  1.3744
12133TIP3    H257815   0.083   3.897   1.706 -1.6414 -2.8830 -0.6646
12134TIP3   OH257816   5.789   0.108  12.340 -0.5367  0.0838  0.3481
12134TIP3    H157817   5.862   0.157  12.302  0.2118 -0.6418  0.8313
12134TIP3    H257818   5.754   0.166  12.408 -1.5301  1.1584 -1.0331
12135TIP3   OH257819   2.432   1.341   5.920 -0.5233  0.3564 -0.4320
12135TIP3    H157820   2.472   1.368   5.838  0.4608  0.5301  0.1034
12135TIP3    H257821   2.475   1.394   5.987 -0.3811 -0.7187  0.3391
12136TIP3   OH257822   3.346   2.344   6.224 -0.2169 -0.6848  0.4164
12136TIP3    H157823   3.375   2.344   6.132  2.4857 -0.6592  1.2147
12136TIP3    H257824   3.292   2.422   6.232 -0.6122 -0.7808 -1.2110
12137TIP3   OH257825   2.565   5.326   3.694  0.1715 -0.2029  0.1878
12137TIP3    H157826   2.617   5.346   3.772 -1.6738 -0.4984  1.5304
12137TIP3    H257827   2.537   5.235   3.707  1.3548 -0.8496 -1.7039
12138TIP3   OH257828   6.246   6.471  12.863 -0.7676 -0.3335 -0.1961
12138TIP3    H157829   6.302   6.504  12.792  2.4427 -1.9408  1.4507
12138TIP3    H257830   6.296   6.490  12.943 -2.9251 -1.2385  1.4096
12139TIP3   OH257831   3.473   0.204  11.183  0.0610 -0.0533  0.0962
12139TIP3    H157832   3.488   0.183  11.091 -1.6071  1.2206 -0.4781
12139TIP3    H257833   3.460   0.299  11.184  2.1519  0.2604  1.9393
12140TIP3   OH257834   3.294   2.548   0.693  0.0259  0.0224 -0.8691
12140TIP3    H157835   3.201   2.566   0.704  0.3866  1.3533  0.1733
12140TIP3    H257836   3.322   2.607   0.624 -0.1597 -1.3255 -2.1304
12141TIP3   OH257837   4.683   0.927  13.422 -0.1961 -0.3261 -0.5248
12141TIP3    H157838   4.597   0.963  13.405 -0.0404  1.2805  1.8217
12141TIP3    H257839   4.699   0.946  13.515  1.0811 -3.9641  0.0927
12142TIP3   OH257840   2.721   6.500  16.896 -0.3460  0.7027 -0.0251
12142TIP3    H157841   2.816   6.491  16.905 -0.6345  0.2859  3.4572
12142TIP3    H257842   2.686   6.415  16.924 -1.8938  2.4530  3.6504
12143TIP3   OH257843   6.754   4.801   5.400  0.1964  0.7469 -0.5841
12143TIP3    H157844   6.820   4.852   5.447 -0.5496 -0.9843  2.4398
12143TIP3    H257845   6.671   4.844   5.421  0.0982  1.6192 -2.6248
12144TIP3   OH257846   4.702   4.984  14.586 -0.1196 -0.1101  0.5864
12144TIP3    H157847   4.619   4.949  14.555 -0.1776  0.7721 -0.2592
12144TIP3    H257848   4.758   4.907  14.597 -1.2437 -0.7661  1.7787
12145TIP3   OH257849   6.598   6.674   3.889 -0.2195 -0.2448  0.2120
12145TIP3    H157850   6.624   6.622   3.813 -0.1894  1.6868 -1.1470
12145TIP3    H257851   6.526   6.625   3.929 -2.4028  0.2574 -2.9335
12146TIP3   OH257852   0.413   5.319  13.719  0.1525  0.6641  0.0115
12146TIP3    H157853   0.494   5.370  13.726 -0.0041  0.9134  0.0388
12146TIP3    H257854   0.344   5.383  13.738  0.0279  0.1579  1.2884
12147TIP3   OH257855   1.128   3.022  12.843  0.4485  0.0842 -0.2515
12147TIP3    H157856   1.068   2.953  12.870  1.7473 -1.0547 -0.2109
12147TIP3    H257857   1.169   3.051  12.924  0.8041  0.0324 -0.4106
12148TIP3   OH257858   0.591   0.841   0.478 -0.4621 -0.4289  0.0027
12148TIP3    H157859   0.671   0.877   0.518 -0.3422 -1.2196  0.4820
12148TIP3    H257860   0.559   0.777   0.541 -1.2703 -0.3920 -0.3630
12149TIP3   OH257861   3.380   0.257  12.049 -0.2460 -0.7544 -0.0555
12149TIP3    H157862   3.310   0.322  12.053  0.5412  0.3164 -2.5220
12149TIP3    H257863   3.339   0.182  12.006 -0.2221 -0.6117 -0.3275
12150TIP3   OH257864   5.394   4.259  13.835  0.3852  0.0312 -0.1456
12150TIP3    H157865   5.376   4.349  13.862  0.8221  0.2305 -0.5211
12150TIP3    H257866   5.469   4.232  13.889  0.6003  0.0751 -0.4263
12151TIP3   OH257867   0.050   5.756   4.677  0.5354  0.3780 -0.3222
12151TIP3    H157868   0.138   5.739   4.642  0.5703  1.0027 -0.5561
12151TIP3    H257869   0.066   5.793   4.763  0.5328  1.2536 -0.6915
12152TIP3   OH257870   0.340   6.290   1.336  0.4591 -0.1106 -0.2420
12152TIP3    H157871   0.348   6.196   1.326  3.0069 -0.0856  1.1205
12152TIP3    H257872   0.419   6.326   1.296 -1.1335  1.5784 -2.0176
12153TIP3   OH257873   3.091   3.178  14.551 -0.1003  0.0170  0.0672
12153TIP3    H157874   3.025   3.164  14.483 -0.1043  2.4458 -0.4517
12153TIP3    H257875   3.172   3.195  14.503 -0.2580  2.4789  0.6269
12154TIP3   OH257876   0.733   1.595   1.239  0.5325 -0.0591  0.8096
12154TIP3    H157877   0.664   1.641   1.191  0.1609 -1.1839  0.2475
12154TIP3    H257878   0.786   1.554   1.171  0.8792 -0.4297  1.2992
12155TIP3   OH257879   4.555   4.564   4.787 -0.7493 -0.0691 -0.1101
12155TIP3    H157880   4.480   4.505   4.779 -1.3085  0.7946 -1.4273
12155TIP3    H257881   4.531   4.624   4.858 -1.9127  1.0503 -1.4228
12156TIP3   OH257882   2.045   3.703  16.344 -0.6884  1.1830  0.2596
12156TIP3    H157883   2.110   3.650  16.390 -0.9156  0.1774 -0.5637
12156TIP3    H257884   2.019   3.769  16.408  0.9406  1.4378  0.6843
12157TIP3   OH257885   5.491   0.586  13.700  0.0533  0.1849  0.2381
12157TIP3    H157886   5.524   0.622  13.782 -0.1028 -0.8645  0.7759
12157TIP3    H257887   5.474   0.662  13.645  0.9141  0.8604  0.8897
12158TIP3   OH257888   6.021   3.516   3.687 -0.5321 -0.4233 -0.3745
12158TIP3    H157889   5.978   3.493   3.604 -1.6731  0.4978 -0.0502
12158TIP3    H257890   6.039   3.610   3.679  0.5276 -0.5977 -0.0935
12159TIP3   OH257891   5.470   4.010  10.613  0.5879 -0.8631 -0.4721
12159TIP3    H157892   5.526   3.935  10.591  0.7570 -0.8080 -0.2308
12159TIP3    H257893   5.521   4.086  10.585  0.3281 -0.8501 -0.9059
12160TIP3   OH257894   4.230   5.041  13.871  0.3925  0.3726 -0.4406
12160TIP3    H157895   4.292   5.038  13.944  1.4413 -0.2211 -1.3490
12160TIP3    H257896   4.245   4.961  13.822 -1.4229 -0.0038 -0.4315
12161TIP3   OH257897   4.530   2.297  11.525  0.2715 -0.6823  0.6054
12161TIP3    H157898   4.590   2.351  11.576 -0.0692 -0.6406  0.9727
12161TIP3    H257899   4.511   2.222  11.581  0.3847 -0.9529  0.2820
12162TIP3   OH257900   5.345   0.537  13.110  0.3292 -0.1612  0.7198
12162TIP3    H157901   5.322   0.444  13.114  0.7648 -0.2260  2.0800
12162TIP3    H257902   5.263   0.583  13.127  0.1543 -0.2977  0.2508
12163TIP3   OH257903   6.142   2.938  12.322 -0.0631  0.0694  0.2725
12163TIP3    H157904   6.228   2.969  12.349 -0.2278  2.5900 -1.8628
12163TIP3    H257905   6.084   2.963  12.393  0.3716  1.7133  0.0605
12164TIP3   OH257906   3.367   4.511  16.570 -0.1251 -0.2708 -0.2724
12164TIP3    H157907   3.313   4.438  16.601 -2.1686 -0.5432 -4.1751
12164TIP3    H257908   3.309   4.587  16.575 -0.4509 -0.2831 -2.9899
12165TIP3   OH257909   4.510   1.151   5.129  0.6008 -0.2235  0.3512
12165TIP3    H157910   4.520   1.246   5.120  1.3180 -0.2061  1.2061
12165TIP3    H257911   4.474   1.122   5.045  0.6450  0.7684 -0.0129
12166TIP3   OH257912   3.375   0.430   5.333  0.1227  0.5908  0.0461
12166TIP3    H157913   3.398   0.523   5.337  2.5432  0.0075  0.5560
12166TIP3    H257914   3.459   0.385   5.326 -1.0607 -1.5367 -0.9839
12167TIP3   OH257915   6.203   4.864  14.903  0.1661 -0.6632 -0.3597
12167TIP3    H157916   6.281   4.817  14.874  1.3771 -0.2294  2.0215
12167TIP3    H257917   6.132   4.800  14.896  0.8065 -1.1947 -2.1570
12168TIP3   OH257918   0.807   4.182   0.252 -0.2182  0.1639  0.2083
12168TIP3    H157919   0.824   4.268   0.290  1.0452  0.6510 -1.4232
12168TIP3    H257920   0.762   4.199   0.170  1.6749 -0.6144 -1.0296
12169TIP3   OH257921   0.228   2.148  11.161  0.3176  0.3802 -0.2343
12169TIP3    H157922   0.170   2.221  11.141  1.7161  1.0074 -2.1302
12169TIP3    H257923   0.316   2.181  11.141  1.1534 -1.1396  0.8683
12170TIP3   OH257924   3.038   3.304   2.496  0.1332 -0.8841  0.7027
12170TIP3    H157925   3.072   3.289   2.584 -0.4119  1.4020  1.3307
12170TIP3    H257926   3.111   3.344   2.449 -0.0657 -0.7121  0.5424
12171TIP3   OH257927   5.782   1.616  12.023 -0.0837 -0.3767  0.1742
12171TIP3    H157928   5.723   1.608  12.098  1.3512  0.6573  1.4633
12171TIP3    H257929   5.771   1.707  11.994  3.0105  0.7423  2.3052
12172TIP3   OH257930   1.769   4.633   0.659 -0.4885 -0.7229  0.1701
12172TIP3    H157931   1.790   4.617   0.566  0.2200 -0.7609  0.3319
12172TIP3    H257932   1.848   4.606   0.706 -0.3461  0.5396  0.6791
12173TIP3   OH257933   6.316   2.332   4.802 -0.0696 -0.3011 -0.0691
12173TIP3    H157934   6.353   2.244   4.812 -0.0366 -0.2499  0.2555
12173TIP3    H257935   6.378   2.389   4.848 -1.7599 -0.4765  2.5055
12174TIP3   OH257936   1.376   6.438  12.745  0.1345 -0.7817 -0.0156
12174TIP3    H157937   1.429   6.449  12.825  0.7188 -1.1657 -0.3409
12174TIP3    H257938   1.308   6.375  12.770 -0.3211 -0.0921  0.4790
12175TIP3   OH257939   1.390   1.034  11.822 -0.3101  1.1626  0.1066
12175TIP3    H157940   1.380   1.128  11.810 -1.3803  1.0002 -0.3199
12175TIP3    H257941   1.344   1.015  11.904  0.3671  1.0872  0.4753
12176TIP3   OH257942   4.318   0.123  15.068  0.3241 -0.0347  0.4377
12176TIP3    H157943   4.349   0.144  15.156  0.3817  0.6371  0.2672
12176TIP3    H257944   4.388   0.156  15.011  0.1157 -0.1343  0.1271
12177TIP3   OH257945   4.744   6.011   1.355 -0.1458  0.4286 -0.2027
12177TIP3    H157946   4.820   5.972   1.398 -1.1055  0.0186  1.1632
12177TIP3    H257947   4.722   6.087   1.410 -0.4477  0.8220 -0.8540
12178TIP3   OH257948   2.596   6.012  17.093  0.3049  0.3259 -0.3728
12178TIP3    H157949   2.590   5.993  16.999 -4.5219 -0.3799 -0.0074
12178TIP3    H257950   2.613   5.926  17.133  0.9062  0.4101 -0.4304
12179TIP3   OH257951   0.830   2.611   2.257  0.5876  0.0861 -0.3836
12179TIP3    H157952   0.825   2.706   2.265  1.0005  0.0898 -0.1503
12179TIP3    H257953   0.853   2.595   2.166  1.3093  0.2380 -0.2307
12180TIP3   OH257954   2.083   4.118   1.269  0.2981 -0.2659 -0.1774
12180TIP3    H157955   2.048   4.061   1.337  0.3929  0.6652  0.6511
12180TIP3    H257956   2.070   4.207   1.302 -0.6942  0.2422 -1.8635
12181TIP3   OH257957   1.141   0.526   6.424 -0.8707 -0.2544 -0.0286
12181TIP3    H157958   1.051   0.495   6.409 -0.7502 -1.2240  1.2040
12181TIP3    H257959   1.182   0.457   6.475  0.8822 -0.2275 -1.3520
12182TIP3   OH257960   2.522   3.709   5.531 -0.5553  0.4719  0.1205
12182TIP3    H157961   2.520   3.764   5.610 -0.3475  0.5428  0.0768
12182TIP3    H257962   2.455   3.747   5.474 -1.6587 -0.4191  0.8194
12183TIP3   OH257963   3.030   1.991   0.336 -0.0661 -0.1390  0.0249
12183TIP3    H157964   3.034   1.896   0.343 -2.5346 -0.3149 -0.5118
12183TIP3    H257965   2.986   2.019   0.417 -1.4830  0.3287 -0.8965
12184TIP3   OH257966   1.451   2.522   2.938 -0.2828  0.1878  0.1580
12184TIP3    H157967   1.393   2.448   2.956  1.5059 -0.7288  2.5260
12184TIP3    H257968   1.539   2.484   2.938  0.4314  1.7093 -2.3644
12185TIP3   OH257969   4.757   1.517   4.391 -0.0065  0.3187 -0.1351
12185TIP3    H157970   4.704   1.437   4.389 -2.5159  1.9531 -0.2675
12185TIP3    H257971   4.736   1.557   4.476  0.2297  1.4962 -0.6323
12186TIP3   OH257972   1.194   5.754   3.967  0.3158 -0.0071  0.0578
12186TIP3    H157973   1.133   5.789   3.902 -0.9924  1.6657  2.1010
12186TIP3    H257974   1.196   5.660   3.950  1.1485  0.5620 -3.2924
12187TIP3   OH257975   4.168   1.277  11.913  0.3291  0.5626 -0.4344
12187TIP3    H157976   4.105   1.208  11.896  0.2228  0.0264  1.9652
12187TIP3    H257977   4.228   1.275  11.838 -0.3942 -1.2906 -0.9672
12188TIP3   OH257978   4.746   3.331   2.471 -0.3146  0.0584  0.0648
12188TIP3    H157979   4.787   3.357   2.388 -0.2941  0.0516  0.0727
12188TIP3    H257980   4.819   3.315   2.530 -0.3508  2.1378  0.7119
12189TIP3   OH257981   4.887   6.351   3.762 -0.0233 -0.1839  0.5718
12189TIP3    H157982   4.932   6.309   3.836 -2.1281 -1.9367  0.9309
12189TIP3    H257983   4.939   6.327   3.686  0.3192 -1.2177  1.1091
12190TIP3   OH257984   1.858   1.859  12.605  0.0714 -0.2271  0.3423
12190TIP3    H157985   1.885   1.951  12.612  1.3907 -0.4776 -1.3132
12190TIP3    H257986   1.824   1.850  12.517  1.1039 -1.6143  0.0598
12191TIP3   OH257987   3.062   3.861   2.984 -1.0846 -0.2602 -0.1376
12191TIP3    H157988   3.113   3.903   3.053 -0.1449  0.2200 -1.0982
12191TIP3    H257989   2.973   3.855   3.019 -0.9248  1.2704  0.5579
12192TIP3   OH257990   0.212   2.950   4.343 -0.6922 -0.5257  0.2135
12192TIP3    H157991   0.190   2.873   4.290  1.2353 -1.8262  1.2163
12192TIP3    H257992   0.168   2.935   4.427 -2.4697  0.7723 -0.4687
12193TIP3   OH257993   3.716   4.182  14.602 -0.1196 -0.3197  0.3430
12193TIP3    H157994   3.762   4.147  14.678  0.5308  1.0698  0.6071
12193TIP3    H257995   3.628   4.203  14.635  0.1022  0.1081  0.6643
12194TIP3   OH257996   6.672   5.588  10.559  0.0112  0.0534 -0.5657
12194TIP3    H157997   6.697   5.656  10.496  0.9276 -0.1014 -0.3785
12194TIP3    H257998   6.750   5.577  10.613 -0.1636 -1.1044 -0.5545
12195TIP3   OH257999   1.735   5.069   5.686 -0.5674 -0.0648 -0.1843
12195TIP3    H158000   1.733   4.974   5.672  0.7272 -0.2016  0.4565
12195TIP3    H258001   1.706   5.106   5.603 -0.1584 -1.0021 -0.7603
12196TIP3   OH258002   5.920   1.022  15.478 -0.2376 -0.3502  0.6598
12196TIP3    H158003   5.880   1.109  15.474  0.5774 -0.0111 -1.2052
12196TIP3    H258004   5.874   0.977  15.548 -1.5351  1.1667  0.8216
12197TIP3   OH258005   5.573   6.596   3.987  0.0492  0.2938 -0.5987
12197TIP3    H158006   5.565   6.689   4.010  0.4309  0.0700  0.4691
12197TIP3    H258007   5.509   6.552   4.044  0.5481 -0.1959 -0.4058
12198TIP3   OH258008   5.690   5.885  15.163  0.0016  0.0608 -0.0983
12198TIP3    H158009   5.668   5.977  15.156  0.7156  0.2390 -0.0585
12198TIP3    H258010   5.620   5.839  15.116 -0.7150  0.5731  0.4648
12199TIP3   OH258011   5.153   1.676   3.548 -0.5770  0.3102  0.1966
12199TIP3    H158012   5.242   1.697   3.576 -0.7519 -0.8823  1.6798
12199TIP3    H258013   5.163   1.647   3.457  0.5004  0.4005  0.2783
12200TIP3   OH258014   6.506   2.258  13.072 -0.3003  0.3156 -0.3212
12200TIP3    H158015   6.411   2.248  13.058 -0.4682 -1.5527  1.9087
12200TIP3    H258016   6.513   2.306  13.154  0.6688 -3.0315  1.6168
12201TIP3   OH258017   1.451   4.429  17.158 -0.2144 -0.3817  0.1764
12201TIP3    H158018   1.461   4.465  17.070 -1.5599  0.2552  0.2749
12201TIP3    H258019   1.480   4.339  17.150 -1.2916 -0.6251 -1.1632
12202TIP3   OH258020   2.752   4.171   0.849  0.1863 -0.0454 -0.3962
12202TIP3    H158021   2.842   4.171   0.881  0.7099 -1.4410 -1.8119
12202TIP3    H258022   2.699   4.195   0.926  1.4573 -2.6263  1.3532
12203TIP3   OH258023   0.787   3.296  13.811  0.6439  0.0342 -0.2165
12203TIP3    H158024   0.742   3.223  13.854  0.1076 -0.0111 -0.8413
12203TIP3    H258025   0.843   3.333  13.879  1.9818 -1.8308 -0.2506
12204TIP3   OH258026   0.489   4.192  10.626  0.8140 -0.0616  0.0057
12204TIP3    H158027   0.496   4.286  10.642 -1.3043  0.4585 -1.8269
12204TIP3    H258028   0.528   4.180  10.539  1.6482 -0.9942  0.4957
12205TIP3   OH258029   4.256   1.785   6.436  0.1266 -0.1462 -0.1446
12205TIP3    H158030   4.318   1.851   6.407  1.1919 -1.0504  0.0561
12205TIP3    H258031   4.199   1.770   6.360  0.3287  0.4683 -0.4184
12206TIP3   OH258032   5.228   4.666   3.342  0.0166 -0.0151 -0.1853
12206TIP3    H158033   5.208   4.640   3.253  0.9852 -0.2043 -0.3559
12206TIP3    H258034   5.229   4.762   3.340  1.8474 -0.0263 -0.8063
12207TIP3   OH258035   4.026   5.320  13.197  0.0842  0.1684  0.4453
12207TIP3    H158036   4.065   5.357  13.118  0.1212  1.0199  0.8529
12207TIP3    H258037   4.074   5.361  13.269 -1.1673  0.7963  0.9407
12208TIP3   OH258038   1.097   2.358  14.634  0.2492  0.1759  0.3612
12208TIP3    H158039   1.040   2.347  14.710  0.6056  1.2512  0.7926
12208TIP3    H258040   1.049   2.317  14.562 -1.4524  1.7725  0.5555
12209TIP3   OH258041   0.460   0.431  15.180 -0.2353  0.0769  0.1556
12209TIP3    H158042   0.445   0.338  15.196  0.0831  0.2101  1.2504
12209TIP3    H258043   0.455   0.472  15.266  2.1123  0.7132  0.0204
12210TIP3   OH258044   6.532   0.356  15.469  0.3185  0.1267 -0.0683
12210TIP3    H158045   6.554   0.377  15.378 -0.8639  1.0562 -0.1521
12210TIP3    H258046   6.437   0.365  15.473  0.3496 -0.0926  1.2115
12211TIP3   OH258047   4.732   1.992  16.218  0.0795  0.2383  0.1165
12211TIP3    H158048   4.641   1.990  16.189  0.4677 -1.6332 -1.0722
12211TIP3    H258049   4.730   1.954  16.306 -0.0946 -1.4453 -0.5843
12212TIP3   OH258050   3.187   0.768  15.614 -0.1943 -0.4220  0.0093
12212TIP3    H158051   3.173   0.806  15.527  2.5172 -2.1032 -1.2256
12212TIP3    H258052   3.168   0.675  15.604  0.6837 -0.7349  1.0431
12213TIP3   OH258053   3.398   3.040   0.057 -0.4458  0.1938 -0.1070
12213TIP3    H158054   3.481   3.063   0.098 -0.5790 -0.9626  0.8608
12213TIP3    H258055   3.339   3.111   0.081  0.2475  0.9967 -0.7614
12214TIP3   OH258056   0.208   3.547  13.612  0.7710  0.7215  0.1003
12214TIP3    H158057   0.226   3.494  13.535  2.7103  0.1120  0.9430
12214TIP3    H258058   0.292   3.585  13.636 -0.0351  1.8323  1.2347
12215TIP3   OH258059   2.801   2.597  15.763 -0.5696  0.0701 -0.6891
12215TIP3    H158060   2.733   2.543  15.723  0.8549 -2.3245  0.0528
12215TIP3    H258061   2.878   2.540  15.768  1.0762  2.2688 -0.1726
12216TIP3   OH258062   5.144   5.312   3.136  0.0352 -0.0888  0.0023
12216TIP3    H158063   5.128   5.309   3.231 -1.8103 -0.9202 -0.3121
12216TIP3    H258064   5.103   5.394   3.108  4.1112  2.2926  0.4698
12217TIP3   OH258065   3.922   5.434  12.539 -0.7189 -0.2432 -0.3256
12217TIP3    H158066   3.990   5.369  12.555 -0.4339  0.1133 -0.0655
12217TIP3    H258067   3.843   5.396  12.577 -0.6382 -0.5974 -0.5071
12218TIP3   OH258068   3.150   6.108   2.769 -0.0710  0.3780  0.5761
12218TIP3    H158069   3.186   6.126   2.682  1.6322 -0.0766  1.1723
12218TIP3    H258070   3.057   6.126   2.760 -0.3759 -2.1514 -2.0454
12219TIP3   OH258071   6.705   2.688  16.130 -0.0670  0.0806 -0.2746
12219TIP3    H158072   6.633   2.717  16.074  1.1866  0.5650 -1.6528
12219TIP3    H258073   6.772   2.756  16.122  0.8474 -0.7078  0.4277
12220TIP3   OH258074   5.794   6.607  16.766  0.3650 -0.0215  0.0732
12220TIP3    H158075   5.711   6.644  16.797  1.1471  1.5794  0.3121
12220TIP3    H258076   5.806   6.528  16.818  0.7130  1.6093  2.5681
12221TIP3   OH258077   2.254   5.592  11.568 -0.0375 -0.3058 -0.0712
12221TIP3    H158078   2.260   5.590  11.473  2.5395 -2.2813  0.0677
12221TIP3    H258079   2.176   5.540  11.588 -0.7108  0.2949 -1.0960
12222TIP3   OH258080   1.097   3.756   1.589 -0.5259 -0.0052  0.0819
12222TIP3    H158081   1.052   3.814   1.528  0.9757  0.9401 -0.1490
12222TIP3    H258082   1.029   3.729   1.651 -1.5878  0.7187 -0.7500
12223TIP3   OH258083   1.845   1.619   6.363 -0.1313 -0.0787 -0.1123
12223TIP3    H158084   1.914   1.565   6.325  2.4011  0.7133  3.0961
12223TIP3    H258085   1.803   1.562   6.427 -0.7360  0.2458 -0.2194
12224TIP3   OH258086   4.500   6.242  12.600 -0.6350  0.1285 -0.2302
12224TIP3    H158087   4.573   6.235  12.538 -0.5881  2.8443 -0.5765
12224TIP3    H258088   4.439   6.173  12.574  1.8199 -2.2595  0.1316
12225TIP3   OH258089   3.901   0.416   3.840 -0.0859 -0.1966 -0.0201
12225TIP3    H158090   3.821   0.368   3.863  0.9012 -2.0234 -0.2826
12225TIP3    H258091   3.877   0.467   3.763 -0.3082 -2.7355 -1.6866
12226TIP3   OH258092   3.952   1.691   0.813  0.1606  0.4318 -0.7361
12226TIP3    H158093   3.940   1.767   0.870 -0.8030 -2.0997  2.5785
12226TIP3    H258094   4.045   1.689   0.794  0.9376 -0.0563  2.8375
12227TIP3   OH258095   5.996   1.250   3.832 -0.2557  0.8396  0.3276
12227TIP3    H158096   5.992   1.345   3.820 -3.6137  0.8004  0.6102
12227TIP3    H258097   5.964   1.236   3.922  0.1536 -0.5724  0.2635
12228TIP3   OH258098   6.014   6.744  14.891 -0.3498  0.2536  0.1956
12228TIP3    H158099   5.991   6.764  14.801  2.8983 -1.0420 -0.9998
12228TIP3    H258100   6.098   6.787  14.905 -0.7284  0.3156  2.5575
12229TIP3   OH258101   6.668   5.924  11.103  0.1208 -0.2810 -0.4570
12229TIP3    H158102   6.658   5.990  11.172 -1.4376 -1.1035  0.1121
12229TIP3    H258103   6.747   5.876  11.128  0.1522  0.1025  0.1901
12230TIP3   OH258104   3.683   4.102   4.833  0.0268 -0.0982  0.5012
12230TIP3    H158105   3.706   4.191   4.857 -0.6112 -0.2983  1.8624
12230TIP3    H258106   3.704   4.049   4.910  2.0588 -1.4218 -0.8782
12231TIP3   OH258107   1.423   1.327  15.781 -0.2060  0.1444 -0.3511
12231TIP3    H158108   1.373   1.284  15.711  0.8915 -3.2950  0.8886
12231TIP3    H258109   1.372   1.311  15.860 -0.1527  1.8631  0.0513
12232TIP3   OH258110   4.276   4.333  13.285  1.0810  0.4404 -0.1802
12232TIP3    H158111   4.328   4.261  13.249 -1.4607 -1.2062 -0.6320
12232TIP3    H258112   4.269   4.395  13.213  2.3106  0.6493 -0.1406
12233TIP3   OH258113   1.105   5.313  13.153  0.2055  0.3424 -0.0853
12233TIP3    H158114   1.132   5.226  13.185 -1.0128  0.2719  0.7969
12233TIP3    H258115   1.070   5.296  13.065 -0.4116 -0.1338  0.2472
12234TIP3   OH258116   5.191   1.842   4.656 -0.4730 -0.4918  0.6034
12234TIP3    H158117   5.191   1.773   4.589  0.4957  1.2591 -1.2665
12234TIP3    H258118   5.234   1.802   4.732  1.6177 -1.4410 -1.0272
12235TIP3   OH258119   1.726   2.497   2.047  0.0904 -0.4471  0.5813
12235TIP3    H158120   1.820   2.514   2.055  0.2979 -1.9770  1.5769
12235TIP3    H258121   1.715   2.408   2.081 -1.4759 -0.9222 -1.0979
12236TIP3   OH258122   6.193   6.740   1.906 -0.2373  0.5550  0.0136
12236TIP3    H158123   6.225   6.732   1.996  1.2249  0.3433 -0.5042
12236TIP3    H258124   6.204   6.833   1.886  0.2147  0.4522 -0.2190
12237TIP3   OH258125   0.318   6.340  15.167 -0.2171  0.3302 -0.3419
12237TIP3    H158126   0.387   6.309  15.225 -0.4124  0.2709 -0.1403
12237TIP3    H258127   0.291   6.263  15.117 -1.6631 -0.1552  1.1401
12238TIP3   OH258128   5.015   6.428   1.655 -0.1167  0.1711 -0.1482
12238TIP3    H158129   5.110   6.438   1.666 -0.2084  1.0380 -0.1813
12238TIP3    H258130   4.983   6.403   1.742  0.2661 -1.0619 -0.3516
12239TIP3   OH258131   1.877   2.037  12.880  0.0798 -0.5038  0.4219
12239TIP3    H158132   1.805   1.974  12.878 -0.0835 -0.2963 -1.0669
12239TIP3    H258133   1.850   2.105  12.818  1.5792 -0.4466 -0.1795
12240TIP3   OH258134   3.429   3.232  15.093  0.2016 -0.3219 -0.1891
12240TIP3    H158135   3.349   3.282  15.077  1.0477  1.6076  1.3068
12240TIP3    H258136   3.492   3.267  15.029 -0.3610 -2.4599 -1.9709
12241TIP3   OH258137   3.707   5.344   2.700 -0.1852  0.0056 -0.8223
12241TIP3    H158138   3.689   5.435   2.675 -0.1516  0.5106  0.8661
12241TIP3    H258139   3.621   5.304   2.708 -0.3692  0.7454  1.3445
12242TIP3   OH258140   1.626   2.710  11.270  0.1821 -0.4225 -0.3035
12242TIP3    H158141   1.700   2.700  11.330 -1.7272  0.1844  2.2573
12242TIP3    H258142   1.645   2.790  11.222  0.5969  0.4679  1.2817
12243TIP3   OH258143   1.824   3.829   4.338  0.1848 -0.8092  0.0303
12243TIP3    H158144   1.829   3.758   4.274  0.0826  0.8320 -1.8806
12243TIP3    H258145   1.915   3.845   4.363  0.3618 -0.6026 -0.7202
12244TIP3   OH258146   5.441   3.029   1.958 -0.6092  0.4595 -0.5279
12244TIP3    H158147   5.451   3.117   1.996 -0.0148  0.0654  0.2200
12244TIP3    H258148   5.530   2.995   1.952 -0.7790  0.1886 -1.5001
12245TIP3   OH258149   0.083   2.516  12.733 -0.1428 -0.0958 -1.1048
12245TIP3    H158150   0.006   2.510  12.789  0.2039  2.1593 -0.3729
12245TIP3    H258151   0.158   2.508  12.793  0.2318 -2.1462 -1.7940
12246TIP3   OH258152   2.257   5.262  14.272  0.5999  0.4282 -0.5536
12246TIP3    H158153   2.194   5.311  14.219 -0.3431 -0.6043 -0.4146
12246TIP3    H258154   2.323   5.231  14.211  1.2713  1.9707 -0.6229
12247TIP3   OH258155   3.294   2.848   2.220  0.4004 -0.4630 -0.2252
12247TIP3    H158156   3.346   2.928   2.222 -1.2877  0.6542  1.6992
12247TIP3    H258157   3.266   2.835   2.311 -0.5906 -2.4113 -0.7620
12248TIP3   OH258158   2.010   4.779  13.915  0.4711 -0.2857  0.1662
12248TIP3    H158159   2.053   4.815  13.992  1.0075 -0.0373 -0.2419
12248TIP3    H258160   2.017   4.684  13.926  0.8053 -0.2493  0.2835
12249TIP3   OH258161   6.463   6.455  14.891  0.7654 -0.2950 -0.5727
12249TIP3    H158162   6.392   6.427  14.834 -0.2777  1.9810 -0.4755
12249TIP3    H258163   6.436   6.543  14.921  3.7680  0.7502 -0.7947
12250TIP3   OH258164   6.202   2.252  14.693  0.3048  0.3655  0.0648
12250TIP3    H158165   6.139   2.321  14.675 -1.6583 -1.7461 -1.6319
12250TIP3    H258166   6.251   2.243  14.611  0.3570 -0.3964  0.1737
12251TIP3   OH258167   1.832   4.265  16.801 -0.4159  0.0495 -0.6543
12251TIP3    H158168   1.899   4.258  16.869 -0.1671 -0.9770 -0.9907
12251TIP3    H258169   1.843   4.353  16.765 -1.6361  1.2138  1.7310
12252TIP3   OH258170   5.734   4.872  16.141 -0.4343  0.0802  0.6701
12252TIP3    H158171   5.698   4.948  16.187 -1.4972  0.1848 -0.3106
12252TIP3    H258172   5.657   4.828  16.104  0.3981  0.0249 -1.0374
12253TIP3   OH258173   2.410   4.925  14.428 -0.0090 -0.3992 -0.4012
12253TIP3    H158174   2.345   4.994  14.411 -1.9960 -1.9680  0.6704
12253TIP3    H258175   2.386   4.854  14.369  1.8980 -0.2776 -1.3424
12254TIP3   OH258176   1.635   6.703  15.032 -0.0009  0.0345  0.9421
12254TIP3    H158177   1.577   6.733  15.101 -1.0421 -0.3913  0.2661
12254TIP3    H258178   1.661   6.615  15.059  0.0137  0.0689  1.0401
12255TIP3   OH258179   2.543   2.209  15.572  0.1826 -0.1671  0.3845
12255TIP3    H158180   2.516   2.155  15.498  1.0750  1.3063 -1.0369
12255TIP3    H258181   2.472   2.199  15.636 -2.3190  1.2702 -2.0501
12256TIP3   OH258182   0.695   1.114  15.796  0.3890  0.1986 -0.0898
12256TIP3    H158183   0.619   1.149  15.749  0.9304 -0.3794 -1.3998
12256TIP3    H258184   0.701   1.023  15.768  0.7079 -0.1682  1.1231
12257TIP3   OH258185   5.036   4.105   4.823 -0.1643 -0.5406 -0.2606
12257TIP3    H158186   5.075   4.189   4.846 -1.0108 -0.0241 -0.7221
12257TIP3    H258187   5.002   4.117   4.735  0.4243 -1.6146 -0.6512
12258TIP3   OH258188   0.413   5.133  14.617  0.1974 -0.3900 -0.6461
12258TIP3    H158189   0.399   5.092  14.532 -0.5217 -1.2622 -0.1183
12258TIP3    H258190   0.507   5.130  14.630  0.2263 -1.0846 -1.0000
12259TIP3   OH258191   5.855   5.726  16.871  0.2675 -0.2011 -0.1096
12259TIP3    H158192   5.770   5.770  16.861  0.6386  0.6997  0.6755
12259TIP3    H258193   5.862   5.671  16.794  0.5611  2.3909 -2.0017
12260TIP3   OH258194   5.161   3.554   2.102  1.0107 -0.6106  0.4705
12260TIP3    H158195   5.153   3.462   2.076  1.4120 -0.5289  0.0556
12260TIP3    H258196   5.082   3.571   2.153  0.6913 -1.0418  0.1242
12261TIP3   OH258197   1.085   0.544   4.478 -0.2335 -0.2950  0.6375
12261TIP3    H158198   1.028   0.470   4.461  1.3600 -1.3912 -0.0697
12261TIP3    H258199   1.031   0.621   4.460 -1.9637 -1.2696  1.5991
12262TIP3   OH258200   6.684   1.975   4.459 -0.4142  0.2115  0.0272
12262TIP3    H158201   6.602   2.024   4.446 -1.0058 -0.4059  1.3760
12262TIP3    H258202   6.748   2.042   4.485 -0.9458  0.4484  0.7528
12263TIP3   OH258203   2.758   1.766   5.369 -0.1794 -0.1845 -0.2414
12263TIP3    H158204   2.749   1.674   5.342  0.7832 -0.2201 -0.4409
12263TIP3    H258205   2.673   1.788   5.407  0.2375 -1.7528  1.6349
12264TIP3   OH258206   4.186   5.293  14.852  0.8594 -0.1868 -0.7881
12264TIP3    H158207   4.217   5.367  14.799 -1.0768  1.9598  0.9517
12264TIP3    H258208   4.263   5.267  14.902  1.6103  0.5713 -1.5162
12265TIP3   OH258209   5.551   0.349  13.542 -0.4097  0.1450  0.1924
12265TIP3    H158210   5.545   0.386  13.454 -0.9030  0.4384  0.3423
12265TIP3    H258211   5.533   0.423  13.600 -1.1748 -0.2773  0.5072
12266TIP3   OH258212   6.671   2.927  14.383  0.5336  0.5676  0.4981
12266TIP3    H158213   6.706   2.838  14.392  0.6334  0.4412 -0.9351
12266TIP3    H258214   6.679   2.965  14.470  1.0190 -0.6424  0.9974
12267TIP3   OH258215   6.310   0.700   2.106 -0.5727 -0.3222 -0.1142
12267TIP3    H158216   6.319   0.775   2.165  1.1471 -0.2777 -0.4206
12267TIP3    H258217   6.376   0.637   2.136  0.9060  0.0391 -2.4839
12268TIP3   OH258218   0.276   5.642   2.087 -0.3720  0.2555  0.4246
12268TIP3    H158219   0.284   5.720   2.142  1.3838  0.6809 -0.4086
12268TIP3    H258220   0.237   5.674   2.006 -0.1364  0.1607  0.2749
12269TIP3   OH258221   2.065   4.564   0.594 -0.4217 -0.1118 -0.0516
12269TIP3    H158222   2.106   4.611   0.521 -0.4075 -0.1661 -0.0789
12269TIP3    H258223   2.106   4.477   0.593 -1.5982 -0.6594 -0.9899
12270TIP3   OH258224   3.121   3.510   3.375  0.1560  0.6748  0.6392
12270TIP3    H158225   3.150   3.554   3.295  0.8780 -2.0938 -0.6971
12270TIP3    H258226   3.087   3.426   3.345  0.9423 -0.6510  3.2950
12271TIP3   OH258227   1.884   1.900  12.245  0.1714 -0.2608 -0.3633
12271TIP3    H158228   1.951   1.867  12.185 -0.9534  0.8040 -2.2419
12271TIP3    H258229   1.867   1.989  12.216  0.2100  0.5653  2.0947
12272TIP3   OH258230   1.812   4.963  16.658  0.3430 -0.0261  0.0560
12272TIP3    H158231   1.814   5.003  16.572  0.0086 -0.7187 -0.2767
12272TIP3    H258232   1.825   4.869  16.641 -1.7790 -0.4288  0.5927
12273TIP3   OH258233   5.074   4.590   2.868  0.2271 -0.4546 -0.1364
12273TIP3    H158234   4.989   4.611   2.906 -1.1328 -3.1001 -1.5824
12273TIP3    H258235   5.074   4.634   2.783 -0.2520 -1.4952 -0.6867
12274TIP3   OH258236   5.969   4.830   2.963 -0.1113 -0.1748  0.3005
12274TIP3    H158237   6.033   4.824   2.891 -1.0632 -0.7523 -0.5030
12274TIP3    H258238   5.933   4.742   2.970 -1.3411  0.3239  0.2788
12275TIP3   OH258239   4.605   2.601  12.125  0.5320  0.9559 -0.1248
12275TIP3    H158240   4.647   2.664  12.182  0.5978  0.6308  0.1872
12275TIP3    H258241   4.671   2.580  12.059  0.8224  0.5251  0.3013
12276TIP3   OH258242   6.323   2.589   3.073  0.1233 -0.3049 -0.3690
12276TIP3    H158243   6.293   2.562   2.986 -1.0865  0.4956 -0.2168
12276TIP3    H258244   6.380   2.664   3.056  0.5500 -0.6622 -0.5272
12277TIP3   OH258245   2.437   5.518  15.625 -0.3791  0.8455  0.0525
12277TIP3    H158246   2.379   5.471  15.565 -1.0605  1.0272  0.5605
12277TIP3    H258247   2.457   5.455  15.694 -0.7125  1.0659  0.3561
12278TIP3   OH258248   1.400   3.998   4.228 -0.5852 -0.4407  0.3567
12278TIP3    H158249   1.384   3.953   4.311 -0.4024 -1.3465 -0.0919
12278TIP3    H258250   1.329   3.968   4.171 -0.2020 -0.5155 -0.0814
12279TIP3   OH258251   4.725   1.521   1.569 -0.4343 -0.2209 -0.6126
12279TIP3    H158252   4.635   1.495   1.590 -0.4261  0.0174 -0.2769
12279TIP3    H258253   4.777   1.444   1.592 -0.5244 -0.2657 -0.5537
12280TIP3   OH258254   3.413   6.159   2.876  0.7380 -0.0477 -0.2073
12280TIP3    H158255   3.322   6.162   2.847  1.1490 -0.8722 -1.6371
12280TIP3    H258256   3.415   6.090   2.942  0.3986 -0.2640 -0.4244
12281TIP3   OH258257   2.914   3.666   4.919  0.3615  0.3574 -0.3902
12281TIP3    H158258   2.863   3.661   4.838 -0.8705  0.8105  0.3292
12281TIP3    H258259   2.857   3.626   4.985 -0.5333  3.8604  1.1055
12282TIP3   OH258260   0.840   4.255  10.797 -0.0966  0.1356 -0.2136
12282TIP3    H158261   0.872   4.183  10.743 -0.8554  0.1998 -0.7642
12282TIP3    H258262   0.893   4.252  10.877  0.8318 -0.1400 -0.8452
12283TIP3   OH258263   0.404   2.594  11.075 -0.7966 -0.2341  0.1339
12283TIP3    H158264   0.468   2.652  11.115 -0.7588  0.1039 -0.4204
12283TIP3    H258265   0.331   2.592  11.138 -0.1926 -0.7383  0.8317
12284TIP3   OH258266   2.716   5.437  13.522  0.5974  0.0364 -0.1370
12284TIP3    H158267   2.792   5.420  13.577  1.1533  1.5020 -0.4337
12284TIP3    H258268   2.729   5.526  13.490 -0.9090  0.0553 -0.7293
12285TIP3   OH258269   1.050   5.034   1.678 -0.2944 -0.0713  0.1655
12285TIP3    H158270   1.138   5.055   1.709 -0.6902 -0.4778  1.6015
12285TIP3    H258271   1.012   4.980   1.747 -2.0422  0.9711  0.0701
12286TIP3   OH258272   0.661   0.253  11.839  0.0445  0.8184  0.2161
12286TIP3    H158273   0.676   0.271  11.932 -1.6844  1.2584  0.4174
12286TIP3    H258274   0.602   0.322  11.810 -1.8425 -1.0458 -0.4878
12287TIP3   OH258275   4.688   4.188  12.600  0.0232  0.3607  0.7749
12287TIP3    H158276   4.598   4.166  12.575  0.8778 -2.3512 -0.1539
12287TIP3    H258277   4.716   4.115  12.656  1.4985  1.3646  1.3767
12288TIP3   OH258278   3.880   2.413  16.118 -0.1980  0.4243 -0.3453
12288TIP3    H158279   3.903   2.483  16.057 -1.4721  0.3971 -0.8617
12288TIP3    H258280   3.861   2.459  16.200  0.2320  0.5666 -0.3208
12289TIP3   OH258281   0.349   3.375   3.861 -0.1538  0.1893  0.1089
12289TIP3    H158282   0.276   3.404   3.806  1.4621 -0.8545 -2.6752
12289TIP3    H258283   0.350   3.280   3.852  1.3437  0.1727  0.3510
12290TIP3   OH258284   2.465   4.388   2.355 -0.3257 -0.2473 -0.9151
12290TIP3    H158285   2.463   4.330   2.431  0.3656 -0.1283 -0.7996
12290TIP3    H258286   2.440   4.332   2.282 -0.1185 -0.5777 -0.7361
12291TIP3   OH258287   3.804   6.535   4.672  0.4486  0.9648 -0.5447
12291TIP3    H158288   3.722   6.514   4.716  0.5288  1.7911  0.0142
12291TIP3    H258289   3.865   6.554   4.744  0.7726  1.6144 -0.9884
12292TIP3   OH258290   0.348   1.581   5.706 -0.0299  0.1568 -0.2969
12292TIP3    H158291   0.375   1.673   5.701  1.9827 -0.3379  0.7770
12292TIP3    H258292   0.253   1.584   5.710  0.1099  2.3411  2.5598
12293TIP3   OH258293   4.874   3.316  13.023  0.7059 -0.1233 -0.9863
12293TIP3    H158294   4.827   3.236  13.046 -0.1574  0.0737 -2.0421
12293TIP3    H258295   4.963   3.285  13.002  1.2604 -0.4078  1.6115
12294TIP3   OH258296   4.427   4.281  12.285 -0.3054  0.3809 -0.1639
12294TIP3    H158297   4.434   4.284  12.190 -1.3879 -0.8346 -0.2974
12294TIP3    H258298   4.349   4.334  12.305 -0.4594  0.0916 -0.0011
12295TIP3   OH258299   1.041   2.618   1.578 -0.3019  0.1022 -0.1265
12295TIP3    H158300   1.005   2.533   1.553 -2.4842  1.0041 -0.2600
12295TIP3    H258301   1.051   2.614   1.673 -0.7644 -0.1836 -0.0891
12296TIP3   OH258302   5.840   5.255   0.911 -0.0098  0.1012  0.0525
12296TIP3    H158303   5.876   5.170   0.885 -0.2258 -0.0857  0.3604
12296TIP3    H258304   5.914   5.316   0.902 -0.2414  0.1719 -1.6074
12297TIP3   OH258305   5.514   6.242  10.339  0.1081 -0.3489 -0.1685
12297TIP3    H158306   5.482   6.155  10.364 -0.8852 -0.1259 -0.6336
12297TIP3    H258307   5.434   6.293  10.327  0.7010  0.9665  1.3033
12298TIP3   OH258308   6.150   0.464  15.232 -0.0545  0.4696  0.0150
12298TIP3    H158309   6.064   0.503  15.247 -0.9686 -1.0764 -0.9281
12298TIP3    H258310   6.187   0.451  15.319 -1.0526  0.6005  0.4639
12299TIP3   OH258311   4.249   2.697   3.305 -0.2403  0.1501 -0.2096
12299TIP3    H158312   4.225   2.789   3.290  1.7696  0.5131 -1.2555
12299TIP3    H258313   4.255   2.690   3.400 -1.2134  0.8886 -0.0839
12300TIP3   OH258314   1.459   0.508   0.599  0.0627 -0.2461 -0.3965
12300TIP3    H158315   1.520   0.443   0.632  0.3867 -0.4534 -1.3862
12300TIP3    H258316   1.491   0.591   0.634  1.0093 -0.3328 -1.0373
12301TIP3   OH258317   2.563   3.807  12.604 -0.0212  0.0172  0.4749
12301TIP3    H158318   2.648   3.849  12.600  0.2546 -0.4476  1.3474
12301TIP3    H258319   2.533   3.804  12.513  0.4473  1.0752  0.2796
12302TIP3   OH258320   6.399   5.054  16.523 -0.2080 -0.2246  0.4148
12302TIP3    H158321   6.493   5.058  16.509 -0.0840 -2.7114  0.2485
12302TIP3    H258322   6.362   5.047  16.435 -0.4330 -0.7854  0.5483
12303TIP3   OH258323   0.099   5.847  16.159 -0.7409 -0.6100  0.0121
12303TIP3    H158324   0.171   5.910  16.157 -1.4969  0.3200  1.3833
12303TIP3    H258325   0.087   5.821  16.068 -1.5904  2.5962 -0.8607
12304TIP3   OH258326   6.071   3.728   2.850 -0.3506  0.6460 -0.3948
12304TIP3    H158327   6.006   3.797   2.858 -0.9827 -0.1860  1.8787
12304TIP3    H258328   6.155   3.774   2.853 -0.7766  1.3740  0.7018
12305TIP3   OH258329   6.039   1.409   6.125 -0.3394 -0.1070 -0.0191
12305TIP3    H158330   6.134   1.408   6.137 -0.5709  2.4764  2.4517
12305TIP3    H258331   6.024   1.354   6.048  3.2337  0.4008 -1.1481
12306TIP3   OH258332   5.770   5.130   1.214 -0.2653  0.4654  0.5146
12306TIP3    H158333   5.784   5.077   1.292 -1.3021 -0.3486  0.1578
12306TIP3    H258334   5.761   5.067   1.143 -0.3454  1.1594 -0.1076
12307TIP3   OH258335   3.944   1.781   4.421  0.0833 -0.2683 -1.0461
12307TIP3    H158336   3.862   1.769   4.470  0.8089  2.7345  1.0826
12307TIP3    H258337   3.917   1.829   4.343 -0.2679  0.3497 -0.5556
12308TIP3   OH258338   5.823   6.551  12.470 -0.1530 -0.2493 -0.5779
12308TIP3    H158339   5.792   6.641  12.465  1.3050  0.3898  1.1660
12308TIP3    H258340   5.908   6.552  12.425  0.0797 -0.6258 -0.1635
12309TIP3   OH258341   0.452   0.096  15.024  0.0289  0.0089 -0.4563
12309TIP3    H158342   0.539   0.100  14.984  0.2175 -0.4533 -0.1056
12309TIP3    H258343   0.467   0.116  15.116 -0.6358  2.7526 -0.9139
12310TIP3   OH258344   1.203   3.389   6.448  0.1044  0.0782 -0.1556
12310TIP3    H158345   1.183   3.304   6.489  0.0386 -0.1224 -0.6063
12310TIP3    H258346   1.298   3.387   6.436  0.7325  1.7489  3.6203
12311TIP3   OH258347   4.118   2.975   3.556 -0.1021  0.2262 -0.1232
12311TIP3    H158348   4.048   3.037   3.537 -0.2701  0.0655 -0.0186
12311TIP3    H258349   4.185   3.028   3.600  0.7879  0.8601 -2.1664
12312TIP3   OH258350   0.259   0.855   4.518 -0.2003  0.0662 -0.4853
12312TIP3    H158351   0.301   0.937   4.546  1.0737 -0.0077 -2.0458
12312TIP3    H258352   0.217   0.821   4.596  1.5521  0.8542  0.8436
12313TIP3   OH258353   4.587   2.079   0.592 -0.0553 -0.3950  0.4246
12313TIP3    H158354   4.654   2.147   0.584  0.5908 -1.0946 -0.1516
12313TIP3    H258355   4.636   1.998   0.606 -0.7348 -1.0424 -0.8281
12314TIP3   OH258356   3.632   3.977   1.432 -0.2429  0.2295 -0.4332
12314TIP3    H158357   3.656   3.899   1.382 -2.1824 -0.7121  0.0504
12314TIP3    H258358   3.552   4.009   1.390 -0.1760  1.2160  0.1618
12315TIP3   OH258359   5.935   1.958  13.296  0.2408  0.9819  0.2419
12315TIP3    H158360   5.990   1.970  13.219 -1.1753 -1.7569 -1.2727
12315TIP3    H258361   5.879   2.036  13.297  1.1948  1.7075 -0.6864
12316TIP3   OH258362   0.341   2.801   3.930 -0.1391 -0.4031  0.5214
12316TIP3    H158363   0.335   2.808   4.026  1.0930  2.9826  0.4162
12316TIP3    H258364   0.251   2.792   3.901 -0.9610  3.0616  1.7777
12317TIP3   OH258365   6.173   5.753  13.836 -0.0861  0.2053  0.1122
12317TIP3    H158366   6.251   5.747  13.891  0.0706 -0.3275 -0.1652
12317TIP3    H258367   6.200   5.806  13.760 -0.3871  1.2000  0.6850
12318TIP3   OH258368   0.624   5.201   0.298 -0.3803  0.0333  0.8256
12318TIP3    H158369   0.710   5.232   0.269 -0.5730  0.0092  0.2172
12318TIP3    H258370   0.634   5.107   0.308 -0.5285 -0.0746  0.0359
12319TIP3   OH258371   5.637   4.865  11.732 -0.0337 -0.3727  0.2987
12319TIP3    H158372   5.604   4.779  11.703 -0.8301 -0.4118  1.2693
12319TIP3    H258373   5.611   4.925  11.663 -0.1050 -0.7968 -0.0472
12320TIP3   OH258374   3.140   0.734   1.195  0.2058  0.3186 -0.0116
12320TIP3    H158375   3.088   0.731   1.115  0.2587  0.3973 -0.0498
12320TIP3    H258376   3.083   0.778   1.259  0.1788  0.2927 -0.0181
12321TIP3   OH258377   1.203   5.217   4.156  0.5122 -0.2433  0.1797
12321TIP3    H158378   1.141   5.195   4.226  0.6254 -0.2554  0.2748
12321TIP3    H258379   1.250   5.294   4.188 -0.1797  0.4033 -0.3347
12322TIP3   OH258380   4.723   1.267   5.762  0.1533  0.3894 -0.3387
12322TIP3    H158381   4.719   1.210   5.685 -1.3206  1.2046 -0.8735
12322TIP3    H258382   4.750   1.208   5.834 -0.5217 -0.7979 -1.0500
12323TIP3   OH258383   6.409   0.412  12.840  0.4002 -0.1610  0.8638
12323TIP3    H158384   6.480   0.358  12.804  1.1871  0.9888  0.6723
12323TIP3    H258385   6.415   0.398  12.935  0.4487 -0.5807  0.8016
12324TIP3   OH258386   4.822   2.355  11.983 -0.0644  0.6352 -0.1911
12324TIP3    H158387   4.839   2.332  12.074  0.9379 -0.3558 -0.6163
12324TIP3    H258388   4.784   2.275  11.945 -2.2120  1.6144 -0.2040
12325TIP3   OH258389   0.519   0.277   2.480 -0.1512  0.2801  0.0417
12325TIP3    H158390   0.607   0.304   2.504  0.6405 -2.5246  0.4502
12325TIP3    H258391   0.462   0.341   2.522  1.6414  1.5249  0.6305
12326TIP3   OH258392   3.613   6.404  11.444 -0.1387  0.0828 -0.0832
12326TIP3    H158393   3.567   6.388  11.362  0.9235  2.4166 -1.1600
12326TIP3    H258394   3.701   6.368  11.430 -0.2336 -0.3394  0.3760
12327TIP3   OH258395   3.371   6.516   0.153 -0.3020 -0.0902  0.4077
12327TIP3    H158396   3.293   6.571   0.156  0.0862  0.5111 -0.3460
12327TIP3    H258397   3.344   6.434   0.194 -1.8640 -0.5302 -1.4030
12328TIP3   OH258398   6.299   1.268   0.235  0.1988 -0.0019  1.0513
12328TIP3    H158399   6.341   1.327   0.172 -0.9262 -0.5298 -0.2210
12328TIP3    H258400   6.366   1.253   0.302  1.6121  0.1377 -0.2897
12329TIP3   OH258401   4.797   2.093   3.983  0.4964 -0.2659  0.1489
12329TIP3    H158402   4.718   2.073   4.033  0.2728  0.8702  0.2673
12329TIP3    H258403   4.796   2.030   3.911 -1.0374  0.3657 -0.4066
12330TIP3   OH258404   4.922   0.855   2.493  0.5721  0.7100 -0.0385
12330TIP3    H158405   4.945   0.917   2.424 -1.7463  2.1884  0.4638
12330TIP3    H258406   4.899   0.910   2.568 -0.1590 -0.7827  0.8562
12331TIP3   OH258407   2.741   4.867  16.098 -0.1147  0.6638 -0.1257
12331TIP3    H158408   2.729   4.772  16.101  0.8608  0.5511  0.5512
12331TIP3    H258409   2.657   4.901  16.068 -0.3023 -0.4457 -0.8925
12332TIP3   OH258410   5.468   1.722  17.048  0.6093  0.0584  0.0964
12332TIP3    H158411   5.491   1.630  17.048 -1.6039 -0.5824  3.7607
12332TIP3    H258412   5.535   1.765  17.101 -0.0207  0.0844  0.8734
12333TIP3   OH258413   0.959   0.732   5.603  0.0498  0.3298 -0.3300
12333TIP3    H158414   1.012   0.700   5.676  0.7415 -0.2505 -1.0812
12333TIP3    H258415   0.951   0.827   5.619 -1.0998 -0.0166  1.3086
12334TIP3   OH258416   2.182   2.937  13.150 -0.2663  0.2710 -0.1996
12334TIP3    H158417   2.245   3.005  13.171 -0.0622  0.1200 -0.3268
12334TIP3    H258418   2.128   2.975  13.081 -0.4988  0.5061  0.1055
12335TIP3   OH258419   2.176   4.426   5.350 -0.2120 -0.0765 -0.0871
12335TIP3    H158420   2.164   4.476   5.431 -0.4502  0.6879 -0.5819
12335TIP3    H258421   2.205   4.492   5.286  3.2765 -1.2490  0.2045
12336TIP3   OH258422   0.686   1.287  12.657 -0.3428 -0.2643  0.2399
12336TIP3    H158423   0.595   1.311  12.646  0.3310  1.4515 -1.9055
12336TIP3    H258424   0.715   1.338  12.733 -0.5929  0.9326 -0.4504
12337TIP3   OH258425   1.758   4.398  11.565  0.4197 -0.1730 -0.1943
12337TIP3    H158426   1.731   4.391  11.473  0.9847  0.3474 -0.4077
12337TIP3    H258427   1.837   4.343  11.570 -1.3029 -2.6333  0.6986
12338TIP3   OH258428   2.227   1.502  12.646  0.4789 -0.2261 -0.6822
12338TIP3    H158429   2.264   1.584  12.679 -0.4947 -0.3459  0.7322
12338TIP3    H258430   2.279   1.434  12.688 -1.2070 -0.3935  1.1962
12339TIP3   OH258431   0.623   0.685   2.677  0.5264  0.2938  0.3435
12339TIP3    H158432   0.668   0.623   2.734  1.0950 -0.4954 -0.9392
12339TIP3    H258433   0.677   0.764   2.680  0.7859  0.1101  0.5647
12340TIP3   OH258434   5.019   2.773  14.455  0.0868 -0.3387 -0.0484
12340TIP3    H158435   4.993   2.865  14.458  1.3509 -0.0032  1.3112
12340TIP3    H258436   5.030   2.748  14.546  1.9808 -1.1808 -0.4777
12341TIP3   OH258437   3.833   1.236   2.465  0.0398  0.3515 -0.1940
12341TIP3    H158438   3.916   1.203   2.430  0.1644  0.6004 -0.1393
12341TIP3    H258439   3.781   1.259   2.388 -0.1778 -0.2844 -0.2390
12342TIP3   OH258440   6.635   0.918   1.952  0.1444 -0.4323 -0.3072
12342TIP3    H158441   6.540   0.917   1.939  0.1373 -0.3354 -0.2608
12342TIP3    H258442   6.647   0.956   2.039  0.2610  0.3004 -0.6378
12343TIP3   OH258443   3.089   2.402  13.551  0.4295 -0.1543  0.1547
12343TIP3    H158444   3.079   2.308  13.564  0.7737 -0.2851 -0.5039
12343TIP3    H258445   3.170   2.411  13.500 -1.2962  0.2695 -2.5970
12344TIP3   OH258446   3.455   2.510  12.438  0.0013  0.4465 -0.3463
12344TIP3    H158447   3.421   2.424  12.415 -0.3225  0.0438  1.5815
12344TIP3    H258448   3.378   2.567  12.438 -0.0172  0.4224 -0.1662
12345TIP3   OH258449   5.825   2.589   0.853 -0.3080 -0.1068  0.2544
12345TIP3    H158450   5.765   2.663   0.848 -0.9708 -0.7146 -0.9902
12345TIP3    H258451   5.878   2.596   0.774 -0.1830 -0.7883  0.2747
12346TIP3   OH258452   4.668   3.226  12.372  0.1957 -0.5173 -0.4782
12346TIP3    H158453   4.701   3.309  12.407  0.8166 -1.3498  0.9074
12346TIP3    H258454   4.577   3.246  12.347  0.5456  0.7522 -0.7819
12347TIP3   OH258455   0.834   0.553  12.140 -0.1691  0.7243 -0.1614
12347TIP3    H158456   0.902   0.573  12.076 -0.1207 -1.4991 -0.8538
12347TIP3    H258457   0.879   0.504  12.209 -0.6237  1.3265  0.5859
12348TIP3   OH258458   2.478   2.569  14.087 -0.5145  0.9807 -0.3278
12348TIP3    H158459   2.530   2.602  14.159 -0.4209 -0.3826  0.2449
12348TIP3    H258460   2.459   2.646  14.033 -2.0775  2.3395  2.0701
12349TIP3   OH258461   4.087   2.161   4.697 -0.1077 -0.5322 -0.0035
12349TIP3    H158462   4.131   2.168   4.612  1.6435 -0.9998  0.8416
12349TIP3    H258463   4.158   2.163   4.761 -1.4424  0.4160  1.4976
12350TIP3   OH258464   0.398   0.030  15.543  0.3944 -0.2202 -0.0428
12350TIP3    H158465   0.347  -0.014  15.611 -0.7025  2.1283  0.7003
12350TIP3    H258466   0.475   0.065  15.590  0.4482  0.0315 -0.3149
12351TIP3   OH258467   5.421   2.064  13.490 -0.7381  0.2845  0.0525
12351TIP3    H158468   5.363   2.130  13.454 -0.2375  1.7983  1.9196
12351TIP3    H258469   5.378   1.981  13.471 -2.1933  1.2331 -0.8730
12352TIP3   OH258470   4.571   5.363  15.904  0.3781 -0.2598  0.5869
12352TIP3    H158471   4.585   5.443  15.854 -0.5526  0.3519  1.2826
12352TIP3    H258472   4.654   5.316  15.898  1.8713  2.0395  2.4420
12353TIP3   OH258473   5.737   2.783   2.435 -0.0822 -0.1472  0.1327
12353TIP3    H158474   5.643   2.780   2.416 -0.0561  0.1418 -0.0350
12353TIP3    H258475   5.776   2.723   2.371 -0.0928  0.1371 -0.1380
12354TIP3   OH258476   2.176   5.644   3.591 -0.4787  0.4270  0.2096
12354TIP3    H158477   2.270   5.629   3.601 -0.0481  1.6816 -1.6879
12354TIP3    H258478   2.145   5.570   3.539 -0.3978  0.4281  0.1600
12355TIP3   OH258479   1.284   6.075  14.258  0.7926 -0.4467  0.2442
12355TIP3    H158480   1.367   6.058  14.213  1.9875 -0.5858  2.4229
12355TIP3    H258481   1.284   6.015  14.332 -1.9454 -1.4625 -0.5243
12356TIP3   OH258482   5.372   0.963   2.887  0.1356 -0.3552 -0.1944
12356TIP3    H158483   5.289   1.008   2.903 -0.8316 -1.4340 -2.0114
12356TIP3    H258484   5.348   0.871   2.879  1.1063 -0.4135 -3.1804
12357TIP3   OH258485   6.477   4.299  11.363 -0.0567  0.2378  0.1261
12357TIP3    H158486   6.410   4.364  11.382 -0.8502 -0.8961  1.2776
12357TIP3    H258487   6.439   4.243  11.296 -0.5179 -0.7348  1.1657
12358TIP3   OH258488   3.794   5.520   3.935  0.3031 -1.0074  0.0003
12358TIP3    H158489   3.727   5.558   3.992  1.0977 -1.5376  1.3020
12358TIP3    H258490   3.877   5.551   3.971  0.8510 -1.9215 -0.4453
12359TIP3   OH258491   2.716   2.961  12.723  0.4100  0.3213  0.1608
12359TIP3    H158492   2.742   2.926  12.808 -0.8677  0.5559  0.6611
12359TIP3    H258493   2.750   2.898  12.660  0.6328 -0.2997  0.8930
12360TIP3   OH258494   2.476   0.454  17.041  0.4560  0.3356 -0.1149
12360TIP3    H158495   2.398   0.406  17.068  0.1828  0.7765 -0.1157
12360TIP3    H258496   2.472   0.537  17.089  0.1975  0.9430 -1.1442
12361TIP3   OH258497   3.845   2.543   2.461 -0.2098 -0.4985 -0.2172
12361TIP3    H158498   3.892   2.555   2.378 -0.1642 -0.1168 -0.1382
12361TIP3    H258499   3.755   2.526   2.435  0.4459 -4.0099 -0.4823
12362TIP3   OH258500   1.627   3.828   2.345 -0.2134 -0.3411 -0.1342
12362TIP3    H158501   1.704   3.771   2.340 -0.1083 -0.1249 -0.9906
12362TIP3    H258502   1.589   3.826   2.257  1.1352  2.7764 -0.8781
12363TIP3   OH258503   4.737   1.129  16.300 -0.1922 -0.5051 -0.3333
12363TIP3    H158504   4.805   1.069  16.270 -0.3543 -0.8397 -0.0333
12363TIP3    H258505   4.785   1.205  16.334  0.0323 -0.7904 -0.0121
12364TIP3   OH258506   1.648   1.722  14.800  0.0406 -0.7453 -0.3147
12364TIP3    H158507   1.648   1.749  14.708 -0.4573 -2.7298 -0.9052
12364TIP3    H258508   1.701   1.643  14.803 -1.1724 -1.5483  0.8333
12365TIP3   OH258509   6.682   5.659  16.257 -0.7456  0.2125  0.3048
12365TIP3    H158510   6.728   5.736  16.226 -0.6696  0.3259  0.6955
12365TIP3    H258511   6.663   5.677  16.349  0.3352 -0.7203  0.7298
12366TIP3   OH258512   4.067   2.044   1.781 -0.0496 -0.7285 -0.0383
12366TIP3    H158513   4.075   2.137   1.804 -0.9423 -0.7841  0.4986
12366TIP3    H258514   4.119   1.998   1.847  0.5611 -0.6011 -0.4243
12367TIP3   OH258515   2.711   2.168   0.251  0.5969  0.4207  0.2168
12367TIP3    H158516   2.677   2.232   0.313  0.8112  1.5133 -0.7801
12367TIP3    H258517   2.687   2.203   0.165  0.8071 -0.7827 -0.3436
12368TIP3   OH258518   2.807   0.052   3.163  0.3891  0.6952  0.3659
12368TIP3    H158519   2.795  -0.042   3.149 -2.9565  0.7008  2.5993
12368TIP3    H258520   2.846   0.059   3.250  0.4248  1.4032  0.2948
12369TIP3   OH258521   1.779   5.457  13.443 -0.0030  0.2073  0.1658
12369TIP3    H158522   1.727   5.424  13.517 -1.0279  1.3636 -0.0240
12369TIP3    H258523   1.755   5.399  13.370  0.5046 -0.5171  0.5635
12370TIP3   OH258524   0.989   2.584  14.476  0.3234  0.1700 -0.5381
12370TIP3    H158525   1.069   2.605  14.426 -1.0705  0.7949 -2.5886
12370TIP3    H258526   0.998   2.491  14.497  0.2798 -0.5010 -3.2848
12371TIP3   OH258527   4.906   6.330   1.890 -0.8891  0.6140 -0.7223
12371TIP3    H158528   4.900   6.248   1.938 -1.7232 -0.1508 -2.1252
12371TIP3    H258529   4.839   6.386   1.930  0.8127  1.2575  1.3834
12372TIP3   OH258530   6.463   0.755   3.670  0.4466  0.0140  0.8361
12372TIP3    H158531   6.473   0.677   3.724  0.5456 -0.8042 -0.3263
12372TIP3    H258532   6.476   0.829   3.730 -1.4231 -0.8135  2.3043
12373TIP3   OH258533   6.542   2.437  14.643  0.0613 -0.2771  0.6182
12373TIP3    H158534   6.467   2.474  14.596  1.7196  0.4203 -1.6002
12373TIP3    H258535   6.564   2.358  14.594  0.8592 -0.3834  1.1487
12374TIP3   OH258536   2.102   5.661   4.851 -0.0597 -0.1691  0.2423
12374TIP3    H158537   2.148   5.730   4.900 -1.1914 -0.1541  1.2965
12374TIP3    H258538   2.116   5.684   4.759  0.6396  0.7668  0.5761
12375TIP3   OH258539   2.234   1.138   5.973 -0.3574 -0.4186  0.5922
12375TIP3    H158540   2.206   1.138   5.882  0.2462 -0.0031  0.4102
12375TIP3    H258541   2.302   1.205   5.978  0.0067 -0.8264  1.2228
12376TIP3   OH258542   1.321   0.119  14.925 -0.2528  0.0487  0.1068
12376TIP3    H158543   1.344   0.039  14.878 -2.5205 -0.6405  0.0983
12376TIP3    H258544   1.315   0.091  15.017  1.9712  0.9002  0.5318
12377TIP3   OH258545   5.930   5.343   3.306 -0.1669  0.1583  0.4906
12377TIP3    H158546   5.874   5.271   3.336 -0.0725 -0.2407 -0.2827
12377TIP3    H258547   5.997   5.300   3.253  0.1438  0.7729  0.3875
12378TIP3   OH258548   1.190   3.720  10.792 -0.1147  0.0097 -0.2838
12378TIP3    H158549   1.145   3.764  10.720  0.6615  0.2848 -0.6007
12378TIP3    H258550   1.193   3.628  10.765 -0.0463  0.0709 -0.4852
12379TIP3   OH258551   0.235   0.497   5.097  0.1958  0.0390  0.0664
12379TIP3    H158552   0.328   0.505   5.118  0.5354 -0.2293 -1.3187
12379TIP3    H258553   0.215   0.577   5.049 -0.1102 -0.2558 -0.2949
12380TIP3   OH258554   0.355   0.635  11.463 -0.2650  0.6614  0.1029
12380TIP3    H158555   0.275   0.685  11.481 -0.5355  0.3932 -0.3241
12380TIP3    H258556   0.364   0.577  11.538 -0.8965  0.1616 -0.1990
12381TIP3   OH258557   6.132   6.677   2.779 -0.2610  0.3071  0.5123
12381TIP3    H158558   6.041   6.706   2.786 -0.4658  0.1765 -1.2198
12381TIP3    H258559   6.153   6.689   2.686  1.0421 -0.9440  0.6352
12382TIP3   OH258560   1.281   1.819  14.110 -0.1822  0.1899  0.3669
12382TIP3    H158561   1.248   1.886  14.049  0.2619  0.6515  0.6259
12382TIP3    H258562   1.279   1.862  14.196  0.1661 -0.1084  0.5267
12383TIP3   OH258563   0.878   4.064   1.825 -1.2058  0.0406  0.0927
12383TIP3    H158564   0.944   4.067   1.756 -1.7749 -3.0533 -0.6534
12383TIP3    H258565   0.888   4.147   1.871  2.6511 -0.0331 -0.4592
12384TIP3   OH258566   5.033   6.505  10.498  0.1859  0.7450 -0.3255
12384TIP3    H158567   5.013   6.416  10.527  1.2668 -0.2760 -2.5780
12384TIP3    H258568   5.096   6.537  10.563 -0.8821  0.2247  0.9993
12385TIP3   OH258569   4.936   1.290   3.611  0.2214 -0.1528 -0.3623
12385TIP3    H158570   4.894   1.377   3.609  1.9623  0.6908 -0.9439
12385TIP3    H258571   4.884   1.241   3.674 -0.8733  1.2697 -0.1098
12386TIP3   OH258572   3.053   3.432  16.553 -0.0127  0.1200  0.2579
12386TIP3    H158573   3.018   3.367  16.492  0.4437 -1.6626  1.8433
12386TIP3    H258574   2.990   3.504  16.550 -2.3245 -1.7958  0.9281
12387TIP3   OH258575   3.148   0.423   4.602  0.3515  0.4504 -0.0400
12387TIP3    H158576   3.057   0.404   4.576  0.1529  1.5828 -0.1900
12387TIP3    H258577   3.153   0.396   4.693  0.7848 -2.6954 -0.9101
12388TIP3   OH258578   1.532   3.645  16.627 -0.0441  0.0189  0.2625
12388TIP3    H158579   1.538   3.714  16.562 -0.1244 -0.3942 -0.1910
12388TIP3    H258580   1.611   3.655  16.681 -0.6732  1.2172  0.9614
12389TIP3   OH258581   2.377   1.699   0.922 -0.5252  0.0978  0.6545
12389TIP3    H158582   2.342   1.679   1.009 -0.6298  1.1386  0.8632
12389TIP3    H258583   2.452   1.640   0.912  0.3269  0.8940  2.0238
12390TIP3   OH258584   4.373   0.423  16.948 -0.7821 -0.0726 -0.3095
12390TIP3    H158585   4.375   0.332  16.922  0.7390 -0.0574 -0.2976
12390TIP3    H258586   4.465   0.446  16.963 -1.2161  1.2242  0.4731
12391TIP3   OH258587   5.134   3.086  15.412 -0.5963 -0.0189  0.2764
12391TIP3    H158588   5.111   3.008  15.361 -0.0325  0.2400 -0.3951
12391TIP3    H258589   5.050   3.126  15.435 -0.8558  0.3084 -1.1761
12392TIP3   OH258590   1.794   2.907   2.710 -0.0234  0.1668 -0.4482
12392TIP3    H158591   1.770   2.817   2.734 -1.4624  0.6627  0.0086
12392TIP3    H258592   1.887   2.902   2.689  0.2238 -1.1728  0.8914
12393TIP3   OH258593   3.882   6.696  12.295 -0.2911  0.3369  0.1237
12393TIP3    H158594   3.811   6.634  12.311  1.5954 -1.3428  2.1445
12393TIP3    H258595   3.931   6.659  12.222  0.6884 -0.4420  1.1673
12394TIP3   OH258596   1.082   1.842   0.443 -0.6607 -0.0535  0.3366
12394TIP3    H158597   1.126   1.759   0.464 -1.4158 -0.6077 -0.2660
12394TIP3    H258598   1.055   1.876   0.528 -1.7702 -1.2156  0.4692
12395TIP3   OH258599   6.270   0.988  16.051 -0.4829  0.1467  0.5703
12395TIP3    H158600   6.349   1.036  16.028 -0.7793  0.7373  0.8002
12395TIP3    H258601   6.198   1.038  16.012 -0.9588  0.9516  2.4271
12396TIP3   OH258602   2.758   1.095   2.039 -0.4402  0.6098  0.4504
12396TIP3    H158603   2.821   1.139   2.095  0.5692 -0.3374  0.0708
12396TIP3    H258604   2.775   1.129   1.951 -1.2112  1.1882  0.5181
12397TIP3   OH258605   1.889   2.261   0.275  0.0061  0.1121  0.3609
12397TIP3    H158606   1.937   2.192   0.230 -2.5397 -1.8587  0.5708
12397TIP3    H258607   1.902   2.243   0.368 -0.4192  0.0704  0.4150
12398TIP3   OH258608   1.275   5.981   2.417  0.2306  0.3493 -0.0918
12398TIP3    H158609   1.200   5.935   2.378  0.1984 -0.0383  0.4169
12398TIP3    H258610   1.245   6.071   2.429  0.3734  0.5734 -1.3230
12399TIP3   OH258611   2.313   3.618   3.077  0.5326  0.8828  0.5259
12399TIP3    H158612   2.357   3.606   2.993  0.7835  1.8558  0.5176
12399TIP3    H258613   2.220   3.611   3.056  0.6208  0.3810  0.2912
12400TIP3   OH258614   5.541   2.241  16.817 -0.0233  0.1991  0.3937
12400TIP3    H158615   5.611   2.237  16.883  1.8112  2.8923 -1.2951
12400TIP3    H258616   5.583   2.214  16.736 -1.2106  0.8016 -0.4315
12401TIP3   OH258617   4.880   6.463  12.735  0.3227  0.4993 -0.7621
12401TIP3    H158618   4.919   6.436  12.818  1.3435  0.2913 -1.3025
12401TIP3    H258619   4.787   6.476  12.755  0.8177  1.9303  0.7776
12402TIP3   OH258620   2.250   6.384  16.432  0.4223  0.3926  0.5554
12402TIP3    H158621   2.271   6.453  16.369  1.7133  0.5097  1.1143
12402TIP3    H258622   2.231   6.430  16.514 -1.6021  0.2648  0.1962
12403TIP3   OH258623   4.443   4.321   1.874  0.2621  0.3035  0.0123
12403TIP3    H158624   4.532   4.336   1.841  0.4648 -1.0104 -0.0409
12403TIP3    H258625   4.394   4.398   1.845  0.5885 -0.4773 -2.7613
12404TIP3   OH258626   5.141   0.235  11.707  0.2291 -0.0679  0.0178
12404TIP3    H158627   5.173   0.320  11.736  2.8622 -0.8177 -0.6075
12404TIP3    H258628   5.185   0.219  11.624 -1.3123 -1.4402 -0.5726
12405TIP3   OH258629   0.206   6.567  11.309  0.0028 -0.0358  0.2030
12405TIP3    H158630   0.174   6.652  11.280  0.1643 -0.5443 -1.5210
12405TIP3    H258631   0.297   6.563  11.279  0.7419  0.1248  2.3263
12406TIP3   OH258632   6.534   4.590  14.634  0.3993  0.0842  0.8240
12406TIP3    H158633   6.566   4.511  14.678 -0.8588  0.3156  2.1628
12406TIP3    H258634   6.538   4.568  14.541 -1.0266 -1.9811  1.2189
12407TIP3   OH258635   3.181   0.089   2.601 -0.5611 -0.1480 -0.5908
12407TIP3    H158636   3.231   0.159   2.559 -0.3000  0.0936  0.1148
12407TIP3    H258637   3.215   0.085   2.691 -1.4325 -0.3415 -0.2571
12408TIP3   OH258638   0.542   5.673  11.540  0.0254 -0.1605 -0.0341
12408TIP3    H158639   0.542   5.761  11.578  1.4679 -0.2599  0.2197
12408TIP3    H258640   0.629   5.639  11.559 -0.9791 -2.1796  1.0435
12409TIP3   OH258641   4.910   2.616   2.009 -0.4379  0.0857 -0.3027
12409TIP3    H158642   4.913   2.698   1.961 -2.2482  0.3536 -0.0158
12409TIP3    H258643   4.844   2.564   1.964  0.2349 -0.9597 -0.1002
12410TIP3   OH258644   6.705   3.223  16.551 -0.4771 -0.4670  0.4424
12410TIP3    H158645   6.731   3.198  16.463 -0.0299 -0.7000  0.6358
12410TIP3    H258646   6.671   3.142  16.590 -1.0467 -0.2743  0.3507
12411TIP3   OH258647   6.164   1.825  12.658 -0.1754  0.1303  0.3320
12411TIP3    H158648   6.127   1.751  12.610  2.3877 -1.0719  0.1264
12411TIP3    H258649   6.186   1.889  12.590 -0.0425  0.0123  0.2638
12412TIP3   OH258650   5.427   6.734  15.219  0.1366 -0.3557 -0.3660
12412TIP3    H158651   5.335   6.755  15.234 -0.0428  0.0206 -1.8992
12412TIP3    H258652   5.425   6.658  15.160  0.7986 -0.2736 -0.4984
12413TIP3   OH258653   0.127   1.056   1.397 -0.0464  0.8457  0.1587
12413TIP3    H158654   0.166   1.079   1.481  1.9695 -2.1429  0.1387
12413TIP3    H258655   0.202   1.035   1.341 -1.5128 -2.4509 -0.7125
12414TIP3   OH258656   2.591   4.794  12.120  0.4589 -0.1690  0.3826
12414TIP3    H158657   2.657   4.725  12.114 -0.6777 -1.1064 -2.6568
12414TIP3    H258658   2.554   4.785  12.208  0.4675 -3.3577  0.1293
12415TIP3   OH258659   3.387   6.638   4.154 -0.1574  0.2045 -0.0199
12415TIP3    H158660   3.472   6.642   4.197  0.2635  1.5722 -0.9403
12415TIP3    H258661   3.325   6.667   4.221  0.3265  0.9916  0.0980
12416TIP3   OH258662   0.521   2.575   0.759 -0.1305 -0.4720  0.0638
12416TIP3    H158663   0.535   2.626   0.839 -2.9862 -0.0928  0.3473
12416TIP3    H258664   0.608   2.540   0.739  1.4774  2.6160  1.1210
12417TIP3   OH258665   5.529   5.690   4.623 -0.2010 -0.1568  0.6028
12417TIP3    H158666   5.437   5.666   4.611  0.1473 -2.1531  1.6328
12417TIP3    H258667   5.533   5.723   4.713 -0.0588  0.7465  0.2696
12418TIP3   OH258668   5.685   0.929   1.053  0.0680  0.0949  0.2377
12418TIP3    H158669   5.698   0.843   1.014  0.2593 -0.1326  0.7922
12418TIP3    H258670   5.772   0.956   1.083 -0.1340  0.1037  0.8304
12419TIP3   OH258671   6.744   6.063  15.135 -0.2308 -0.0717  0.2486
12419TIP3    H158672   6.743   6.106  15.221 -1.0338 -1.1790  0.7887
12419TIP3    H258673   6.721   6.133  15.074 -1.3098  0.3249  1.1029
12420TIP3   OH258674   3.565   6.432  14.203 -0.2745  0.2399  0.2068
12420TIP3    H158675   3.566   6.348  14.249 -1.2608 -2.1462 -3.9074
12420TIP3    H258676   3.627   6.487  14.251  0.9291 -3.0611  2.5542
12421TIP3   OH258677   3.298   2.089   6.365  0.5715 -0.1165  0.2354
12421TIP3    H158678   3.226   2.034   6.334 -0.7198  1.2540  0.7519
12421TIP3    H258679   3.321   2.143   6.289  2.5459 -2.0204 -0.5999
12422TIP3   OH258680   2.555   1.471   0.248 -0.2611  0.0147 -0.2855
12422TIP3    H158681   2.630   1.509   0.294  0.3959  0.2501 -1.5305
12422TIP3    H258682   2.591   1.394   0.204 -0.7650  0.1096 -0.8612
12423TIP3   OH258683   6.135   2.679   0.146  0.5590 -0.5236  0.4132
12423TIP3    H158684   6.126   2.673   0.241  3.0732 -3.0581  0.5457
12423TIP3    H258685   6.050   2.650   0.112  0.1575 -1.0505  1.8362
12424TIP3   OH258686   5.527   2.445  14.636  0.1178  0.4675 -0.1514
12424TIP3    H158687   5.545   2.351  14.646  0.2935  0.5005 -0.1613
12424TIP3    H258688   5.440   2.448  14.596 -0.4934  0.3255  1.1368
12425TIP3   OH258689   1.058   1.381  12.212  0.1218  0.0396  0.2207
12425TIP3    H158690   1.058   1.355  12.120 -0.7044 -0.4410  0.3598
12425TIP3    H258691   1.030   1.303  12.259 -0.4030  0.5824  0.8049
12426TIP3   OH258692   2.669   0.879  15.762  0.5316 -0.5263 -0.0378
12426TIP3    H158693   2.619   0.815  15.813  0.7168 -0.8282 -0.2315
12426TIP3    H258694   2.707   0.937  15.828  1.0962 -1.1551  0.2092
12427TIP3   OH258695   3.199   0.857   4.514  0.1966  0.3072  0.4298
12427TIP3    H158696   3.222   0.933   4.460 -1.2952 -0.0684 -0.7819
12427TIP3    H258697   3.282   0.827   4.550  0.9242  1.9709  0.1889
12428TIP3   OH258698   5.310   4.023  15.723  0.0251 -0.0119  0.5658
12428TIP3    H158699   5.399   4.012  15.690 -0.0084 -2.2287  1.1238
12428TIP3    H258700   5.318   4.087  15.793  1.2417 -0.3967  0.7911
12429TIP3   OH258701   5.362   6.608   1.121  0.5713  0.3073  0.0464
12429TIP3    H158702   5.317   6.682   1.081  1.0550  0.3656 -0.3969
12429TIP3    H258703   5.450   6.610   1.083  0.8149 -0.0616  0.5770
12430TIP3   OH258704   5.017   6.591  12.225  0.0064  0.1119  0.1862
12430TIP3    H158705   5.109   6.614  12.237 -0.1597 -0.7766  3.5896
12430TIP3    H258706   4.971   6.675  12.228  0.4529  0.3246  1.1786
12431TIP3   OH258707   5.607   4.948  11.127 -0.4847  0.5523 -0.0786
12431TIP3    H158708   5.632   4.941  11.219  2.6296 -0.7939 -0.9685
12431TIP3    H258709   5.570   4.862  11.106  0.2198  0.3315 -0.4480
12432TIP3   OH258710   2.840   2.193   1.398  0.7416 -0.7461  0.0945
12432TIP3    H158711   2.756   2.239   1.399  0.4741 -1.2087 -0.7517
12432TIP3    H258712   2.854   2.167   1.489 -0.1057 -0.7976  0.2123
12433TIP3   OH258713   2.613   3.321   0.195  0.0212 -0.3158 -0.2257
12433TIP3    H158714   2.687   3.284   0.147 -0.6180 -2.1456  0.1415
12433TIP3    H258715   2.601   3.408   0.158  0.7952 -0.9408 -2.0090
12434TIP3   OH258716   1.248   6.183   0.908  0.3463 -0.1642  0.4580
12434TIP3    H158717   1.288   6.212   0.989 -0.5674  0.6756  0.6080
12434TIP3    H258718   1.305   6.218   0.839  0.1844  0.5403  0.6856
12435TIP3   OH258719   4.971   1.337   4.636  0.3568 -0.1644 -0.0252
12435TIP3    H158720   5.044   1.281   4.610 -0.1841 -1.1286  0.4990
12435TIP3    H258721   4.935   1.295   4.714 -0.2434  0.7587  0.2062
12436TIP3   OH258722   4.749   6.629  16.112 -0.0386  0.3344 -0.3045
12436TIP3    H158723   4.665   6.586  16.126  0.0325  0.4889  0.6363
12436TIP3    H258724   4.810   6.583  16.169  0.5896  0.0179 -1.2262
12437TIP3   OH258725   6.678   1.709  12.799 -0.3419  0.2165 -0.0082
12437TIP3    H158726   6.772   1.730  12.795 -0.5886  1.2350 -0.6106
12437TIP3    H258727   6.640   1.753  12.723 -0.8127 -2.9228 -1.6642
12438TIP3   OH258728   6.171   0.665  15.838 -0.0684 -0.5581  0.1666
12438TIP3    H158729   6.234   0.656  15.766  2.0719 -2.2994  2.1771
12438TIP3    H258730   6.105   0.599  15.820  1.8322 -2.7844  1.0939
12439TIP3   OH258731   6.735   5.427   5.202 -0.1700  0.7318  0.0193
12439TIP3    H158732   6.721   5.484   5.278  0.5244  0.6389  0.2182
12439TIP3    H258733   6.755   5.488   5.131  0.6907  0.7356  0.2602
12440TIP3   OH258734   0.928   4.037   4.761  0.1089 -0.3100 -0.2964
12440TIP3    H158735   0.938   4.132   4.754 -1.0339 -0.2444 -1.2258
12440TIP3    H258736   0.920   4.007   4.671  0.2222 -1.2609  0.0040
12441TIP3   OH258737   0.514   2.419   0.442  0.6794 -0.5636 -0.1547
12441TIP3    H158738   0.566   2.373   0.509  0.8493 -1.0892 -0.6503
12441TIP3    H258739   0.568   2.494   0.418  0.2500  0.1102  0.9080
12442TIP3   OH258740   0.645   1.010  11.495  0.0112 -0.1525  0.2146
12442TIP3    H158741   0.711   0.970  11.551  1.1134  0.3826 -0.6913
12442TIP3    H258742   0.678   0.998  11.406 -0.4050  1.3890 -0.1592
12443TIP3   OH258743   2.248   2.210   1.185 -0.4856 -0.3552 -0.0650
12443TIP3    H158744   2.261   2.126   1.141  0.9923  0.5517 -1.4485
12443TIP3    H258745   2.176   2.251   1.136  0.5451  0.2643 -1.1006
12444TIP3   OH258746   1.730   3.194  16.691  0.0589  0.3731  0.2860
12444TIP3    H158747   1.772   3.227  16.611  1.2771  1.0482  1.1755
12444TIP3    H258748   1.675   3.266  16.721  1.2734  0.9552  1.2057
12445TIP3   OH258749   4.534   2.945  13.177 -0.3871  0.7497  0.0755
12445TIP3    H158750   4.564   2.892  13.103 -2.5399 -2.0005  1.0803
12445TIP3    H258751   4.530   2.883  13.250  2.7817  3.6409  2.8380
12446TIP3   OH258752   3.697   5.631   5.088 -0.6792 -0.6051  0.3501
12446TIP3    H158753   3.676   5.708   5.142 -1.4261 -0.4519 -0.1615
12446TIP3    H258754   3.690   5.557   5.149 -2.8749 -0.5843  0.1709
12447TIP3   OH258755   4.418   1.831   3.585 -0.1275  0.1678 -0.1295
12447TIP3    H158756   4.400   1.780   3.664 -0.9347  1.6327  0.6522
12447TIP3    H258757   4.468   1.772   3.529 -2.6513 -2.1467 -0.0550
12448TIP3   OH258758   3.921   5.575  16.438 -0.0384  0.3510 -0.2594
12448TIP3    H158759   3.896   5.622  16.517 -3.8022 -1.1774 -0.4710
12448TIP3    H258760   3.864   5.610  16.370  0.9014 -0.6654 -1.5975
12449TIP3   OH258761   6.123   1.057   5.253  0.5780 -0.3867 -0.0318
12449TIP3    H158762   6.191   1.114   5.290 -1.1209  0.8750  1.1853
12449TIP3    H258763   6.088   1.107   5.179 -0.4039 -0.1551  0.5823
12450TIP3   OH258764   2.398   1.548  16.668 -0.2751  0.1834  0.3155
12450TIP3    H158765   2.314   1.582  16.697 -0.0878 -0.9030  2.1912
12450TIP3    H258766   2.378   1.460  16.634  0.1149 -0.1276  0.8835
12451TIP3   OH258767   4.847   6.023   5.436  0.8551  0.4710 -0.1971
12451TIP3    H158768   4.896   5.941   5.430 -0.4122 -0.4108  1.2209
12451TIP3    H258769   4.867   6.068   5.354  1.8586 -1.0847 -0.8429
12452TIP3   OH258770   5.003   1.796   3.770  0.3892 -0.6098  0.3622
12452TIP3    H158771   5.004   1.890   3.751  0.1184 -0.4153  1.2992
12452TIP3    H258772   5.023   1.755   3.686  3.2068  0.3677  0.4779
12453TIP3   OH258773   2.667   3.182  14.146  0.4329  0.1545  0.5105
12453TIP3    H158774   2.657   3.211  14.055 -0.6784  0.9073  0.8651
12453TIP3    H258775   2.738   3.237  14.180  0.9359 -0.2155  0.0662
12454TIP3   OH258776   4.706   6.443  11.190 -0.5576 -0.1933 -0.1625
12454TIP3    H158777   4.663   6.469  11.108  0.0541  2.5764  0.3372
12454TIP3    H258778   4.663   6.496  11.257  0.4031 -0.8850  1.0169
12455TIP3   OH258779   0.367   6.537  11.608  0.7594  0.3433  0.1899
12455TIP3    H158780   0.310   6.573  11.540 -0.1618  0.7816  1.1750
12455TIP3    H258781   0.436   6.603  11.619  1.6754 -0.3614 -1.2663
12456TIP3   OH258782   1.339   5.209   2.297  0.1725 -0.1667 -0.5427
12456TIP3    H158783   1.299   5.163   2.223 -0.4229 -0.7693  0.1416
12456TIP3    H258784   1.365   5.294   2.261  0.4814 -0.6928 -1.6027
12457TIP3   OH258785   2.302   4.522   0.908  0.2677 -0.4564 -0.2160
12457TIP3    H158786   2.356   4.594   0.876  0.5003  0.3998  1.9704
12457TIP3    H258787   2.212   4.551   0.893  0.3822 -0.8700 -1.7404
12458TIP3   OH258788   4.872   2.430   0.447  0.1314 -0.5957 -0.0931
12458TIP3    H158789   4.852   2.391   0.362 -0.0668 -0.4173 -0.1309
12458TIP3    H258790   4.878   2.357   0.507  1.8440 -0.8741 -0.5559
12459TIP3   OH258791   3.366   0.590  11.394 -0.1453  0.3534 -0.3790
12459TIP3    H158792   3.440   0.648  11.415 -0.9324  1.8266 -1.5501
12459TIP3    H258793   3.385   0.559  11.305 -0.7393  0.4301 -0.5336
12460TIP3   OH258794   2.460   1.350  12.032 -0.0889  0.4877  0.1714
12460TIP3    H158795   2.415   1.334  11.949  0.6403  0.6285 -0.2581
12460TIP3    H258796   2.406   1.416  12.076 -0.7329  0.0618  0.0163
12461TIP3   OH258797   1.829   0.432  14.022 -0.6737  0.1476 -0.1797
12461TIP3    H158798   1.761   0.366  14.030  0.3918 -1.0828 -0.9579
12461TIP3    H258799   1.835   0.448  13.928 -0.5038  0.8927 -0.0383
12462TIP3   OH258800   4.135   3.358   4.984  0.4181  0.4158  0.2068
12462TIP3    H158801   4.060   3.407   5.018 -0.7317  0.3406 -2.0793
12462TIP3    H258802   4.180   3.420   4.927  0.8938 -0.1605 -0.0457
12463TIP3   OH258803   3.057   2.827   5.801 -0.4254  0.1343  0.2294
12463TIP3    H158804   3.070   2.785   5.886 -0.5070  1.3483  0.8555
12463TIP3    H258805   3.004   2.905   5.820  2.1567  2.1422 -0.4320
12464TIP3   OH258806   6.714   2.566  15.580 -0.2207  0.1384 -0.1606
12464TIP3    H158807   6.698   2.515  15.659 -0.7344  0.7043  0.1078
12464TIP3    H258808   6.737   2.501  15.514 -1.9418 -0.5493 -0.1084
12465TIP3   OH258809   6.668   0.831  16.860  0.3306  0.4029 -0.0765
12465TIP3    H158810   6.598   0.767  16.848  1.6647 -0.9628 -0.8379
12465TIP3    H258811   6.687   0.861  16.771  3.4589 -2.2831 -0.3999
12466TIP3   OH258812   0.376   0.657  12.439  0.2487 -0.5097 -0.1548
12466TIP3    H158813   0.320   0.728  12.408  3.0889  2.2669  0.8299
12466TIP3    H258814   0.397   0.680  12.530  0.8816 -2.8534  0.3411
12467TIP3   OH258815   3.760   0.745  11.838 -0.5804  0.1469 -0.7720
12467TIP3    H158816   3.797   0.802  11.771 -0.8912  3.6494  1.8989
12467TIP3    H258817   3.794   0.780  11.921 -0.9180 -3.4710  1.0002
12468TIP3   OH258818   3.218   6.176  13.835 -0.1565 -0.2157 -0.4543
12468TIP3    H158819   3.126   6.196  13.817  0.2211 -0.2481 -2.5464
12468TIP3    H258820   3.251   6.255  13.878 -1.1578 -0.2132  0.3400
12469TIP3   OH258821   0.731   5.985  16.647 -0.7143  0.0184 -0.1843
12469TIP3    H158822   0.729   6.058  16.709  0.0957  0.0568 -0.1942
12469TIP3    H258823   0.775   6.022  16.570  0.6164 -0.7639  0.1845
12470TIP3   OH258824   1.458   1.975  12.830 -0.3569 -0.1405 -0.1571
12470TIP3    H158825   1.459   2.070  12.834  0.8239 -0.1737  0.5501
12470TIP3    H258826   1.412   1.955  12.748  1.1044  1.0662 -1.2991
12471TIP3   OH258827   5.994   6.646   4.336  0.0654 -0.3890  0.0444
12471TIP3    H158828   5.958   6.565   4.372  0.4713 -0.5291  0.1351
12471TIP3    H258829   5.925   6.679   4.278 -1.0236  0.4093  1.7881
12472TIP3   OH258830   1.815   5.318  11.546 -0.4422 -0.4509 -0.6778
12472TIP3    H158831   1.760   5.269  11.484  0.7251 -0.1145 -2.0001
12472TIP3    H258832   1.769   5.401  11.559 -1.0108 -0.7730 -0.5909
12473TIP3   OH258833   0.679   0.184  14.889 -0.7238  0.0624  0.1137
12473TIP3    H158834   0.615   0.223  14.830  0.2070  0.6105 -0.5447
12473TIP3    H258835   0.760   0.232  14.872  0.0014 -0.9865  0.5537
12474TIP3   OH258836   5.872   1.087  12.511 -0.0393 -0.1072 -0.1859
12474TIP3    H158837   5.918   1.013  12.472  0.6659  0.0039  0.4071
12474TIP3    H258838   5.911   1.095  12.599  0.1770  1.2042 -0.3940
12475TIP3   OH258839   2.234   1.262  17.089 -0.7407  1.0069 -0.2410
12475TIP3    H158840   2.312   1.319  17.084  1.0146 -1.1359  1.7081
12475TIP3    H258841   2.228   1.223  17.002  1.0868  0.2839 -0.0577
12476TIP3   OH258842   5.037   0.679  14.076 -0.5910 -0.2811  0.1408
12476TIP3    H158843   5.084   0.641  14.002  0.0269  2.6961 -1.0596
12476TIP3    H258844   5.085   0.649  14.153  0.0609 -1.6366 -0.7871
12477TIP3   OH258845   6.635   3.595  16.811 -0.2821  0.6799  0.0030
12477TIP3    H158846   6.634   3.563  16.902  1.4738 -0.7302 -0.4439
12477TIP3    H258847   6.544   3.583  16.782 -0.6150  0.0689  1.2139
12478TIP3   OH258848   3.736   6.712   0.308 -0.2169 -0.0436 -0.5278
12478TIP3    H158849   3.721   6.798   0.269  0.8893 -0.6028 -2.2703
12478TIP3    H258850   3.826   6.690   0.281 -1.4598 -2.9538 -2.5300
12479TIP3   OH258851   2.392   3.207  13.544  0.2021 -0.0909  0.3132
12479TIP3    H158852   2.298   3.198  13.559  0.4990 -0.6374  1.9387
12479TIP3    H258853   2.407   3.302  13.544  0.0366 -0.0400  2.6743
12480TIP3   OH258854   5.879   1.098   0.196  0.0815 -0.5034 -0.0753
12480TIP3    H158855   5.928   1.021   0.168 -0.4626 -0.2979 -1.6486
12480TIP3    H258856   5.942   1.170   0.189  0.4022 -0.7001  0.7628
12481TIP3   OH258857   4.371   0.068  12.753  0.1014  0.0576  0.9889
12481TIP3    H158858   4.420   0.073  12.836  1.1730  1.1988  0.3052
12481TIP3    H258859   4.430   0.107  12.688 -0.9260 -0.3812 -0.2276
12482TIP3   OH258860   6.579   0.765  11.969 -0.2056 -0.0908 -0.1239
12482TIP3    H158861   6.485   0.783  11.972 -1.0506 -4.3484  1.1980
12482TIP3    H258862   6.594   0.699  12.036  3.6242 -0.1429 -0.8969
12483TIP3   OH258863   5.534   3.549  14.025  0.5532 -0.2388 -0.4919
12483TIP3    H158864   5.566   3.581  13.941  1.5106 -1.3871 -0.5810
12483TIP3    H258865   5.444   3.580  14.031  0.8476  0.7972 -1.4349
12484TIP3   OH258866   1.344   2.515  12.544  0.2832  0.2310 -0.1610
12484TIP3    H158867   1.295   2.456  12.487 -0.2952  0.1562  0.4043
12484TIP3    H258868   1.285   2.589  12.558  0.2608  0.0655  0.6578
12485TIP3   OH258869   1.189   2.429   6.060  0.2731 -0.6580 -0.1578
12485TIP3    H158870   1.200   2.416   5.966  1.4702 -0.2531 -0.0907
12485TIP3    H258871   1.227   2.515   6.077 -0.9372 -0.2474  0.5304
12486TIP3   OH258872   2.868   4.260  17.202 -0.2257  0.3559 -0.1837
12486TIP3    H158873   2.954   4.236  17.168  1.5210  0.8014  3.6834
12486TIP3    H258874   2.849   4.345  17.163  1.7010  0.8602 -0.0463
12487TIP3   OH258875   2.579   6.308  11.983 -0.3350  0.4697 -0.0227
12487TIP3    H158876   2.604   6.314  11.891  0.2200 -1.0514  0.0087
12487TIP3    H258877   2.605   6.219  12.009  0.0001  1.0520  1.7344
12488TIP3   OH258878   3.421   3.307   5.609 -0.4219  0.4882  0.5445
12488TIP3    H158879   3.366   3.376   5.572 -0.1755  0.2519 -0.2604
12488TIP3    H258880   3.376   3.283   5.690 -0.5006  1.6044  0.8485
12489TIP3   OH258881   2.742   4.050   3.508  0.9161 -0.5681 -0.1008
12489TIP3    H158882   2.669   4.084   3.559  0.7090  1.0393 -1.3964
12489TIP3    H258883   2.812   4.115   3.519  1.8830 -1.6935  0.5026
12490TIP3   OH258884   0.219   0.860  16.855  0.0556 -0.0914 -0.1282
12490TIP3    H158885   0.133   0.890  16.827  0.7233  3.1820  1.1125
12490TIP3    H258886   0.208   0.836  16.947  0.7107  1.6370  0.4317
12491TIP3   OH258887   4.938   4.569  15.111  0.4699 -0.2747 -0.8744
12491TIP3    H158888   4.997   4.606  15.045  2.7640  0.4027  1.5203
12491TIP3    H258889   4.867   4.632  15.118  0.0735 -0.4698 -2.8557
12492TIP3   OH258890   1.528   5.692  14.900 -1.0821  0.0668 -0.0701
12492TIP3    H158891   1.483   5.643  14.831 -1.4254  0.3272 -0.0361
12492TIP3    H258892   1.473   5.769  14.914 -0.1473  0.8489 -0.6446
12493TIP3   OH258893   0.168   1.814   5.484  0.2645 -0.1833 -0.3257
12493TIP3    H158894   0.163   1.726   5.446  0.1819 -0.4882  0.3747
12493TIP3    H258895   0.085   1.855   5.459 -0.2002 -0.7114  0.3150
12494TIP3   OH258896   3.880   2.066  11.174  0.2212 -0.2134 -0.1518
12494TIP3    H158897   3.874   2.079  11.079  0.1242 -0.3893 -0.1719
12494TIP3    H258898   3.882   1.971  11.185  1.8570 -0.1681 -0.0712
12495TIP3   OH258899   3.298   1.943  12.389 -0.1402  0.2479  1.1286
12495TIP3    H158900   3.301   1.944  12.293  0.0311 -2.3982  1.0805
12495TIP3    H258901   3.240   2.016  12.411 -1.0343  0.2337 -1.0364
12496TIP3   OH258902   3.080   0.685   0.219 -0.0516 -0.3437 -0.3686
12496TIP3    H158903   3.129   0.627   0.160  0.1803 -0.0808 -0.4359
12496TIP3    H258904   3.147   0.733   0.267 -0.2417  0.2311 -0.6726
12497TIP3   OH258905   2.543   3.374  12.221  0.4208  0.0881 -0.1725
12497TIP3    H158906   2.551   3.458  12.175  0.9308 -0.4849 -1.1419
12497TIP3    H258907   2.557   3.308  12.153  1.6394 -0.7734  0.8827
12498TIP3   OH258908   2.995   5.919   2.456 -0.2919  0.2005 -0.0769
12498TIP3    H158909   3.073   5.969   2.477  0.1254  0.1718 -1.5492
12498TIP3    H258910   2.981   5.932   2.362 -1.0775 -1.1559 -0.1712
12499TIP3   OH258911   0.698   2.817  15.257  0.2520  0.5973 -0.0391
12499TIP3    H158912   0.669   2.782  15.173  0.5758  2.2265 -0.8627
12499TIP3    H258913   0.621   2.861  15.293 -0.2517 -1.2251  1.1497
12500TIP3   OH258914   2.149   6.469  14.944  0.0453  0.3993  0.6049
12500TIP3    H158915   2.084   6.405  14.972  0.4367 -0.6026 -0.7576
12500TIP3    H258916   2.229   6.444  14.991  0.6416 -1.1477 -1.1693
12501TIP3   OH258917   2.558   2.624   0.343 -0.1158 -0.4183 -0.4534
12501TIP3    H158918   2.574   2.677   0.421  0.1301 -0.2317 -0.6296
12501TIP3    H258919   2.641   2.625   0.296  0.4621 -2.4799  0.4637
12502TIP3   OH258920   1.971   0.011   1.924 -0.2162 -0.5794  0.1398
12502TIP3    H158921   2.021   0.090   1.944  0.5965 -0.9590 -0.3843
12502TIP3    H258922   2.021  -0.033   1.855 -1.9715 -0.2699 -1.3957
12503TIP3   OH258923   3.521   2.694  14.639  0.0522  0.3794  0.5094
12503TIP3    H158924   3.474   2.635  14.698  3.0737 -0.4255  2.2182
12503TIP3    H258925   3.489   2.671  14.551 -1.8616 -0.9007  1.5059
12504TIP3   OH258926   2.186   2.575   4.258  0.0586  0.1240  0.2072
12504TIP3    H158927   2.091   2.572   4.253 -0.0238 -0.2951  2.0019
12504TIP3    H258928   2.207   2.668   4.264 -0.1950  0.2520 -0.8211
12505TIP3   OH258929   2.905   6.146  12.450  0.5344 -0.4123 -0.1174
12505TIP3    H158930   2.865   6.059  12.452 -1.7476  0.5780 -0.3897
12505TIP3    H258931   2.958   6.147  12.371  1.7902 -2.0458  0.6843
12506TIP3   OH258932   2.775   4.576  12.083 -0.6239  0.0272 -0.5043
12506TIP3    H158933   2.836   4.504  12.067  0.2043  0.2728  1.4650
12506TIP3    H258934   2.697   4.552  12.033 -0.2631 -2.1003 -0.1044
12507TIP3   OH258935   3.662   6.387  14.764  0.1545  0.5200 -0.0515
12507TIP3    H158936   3.568   6.373  14.758  0.2986 -0.8457  0.6834
12507TIP3    H258937   3.674   6.479  14.742 -1.1474  0.2182 -2.1934
12508TIP3   OH258938   3.942   5.933  12.071 -0.3953  0.1854 -0.1091
12508TIP3    H158939   3.984   5.952  11.987 -1.1420  1.1720 -0.2757
12508TIP3    H258940   4.008   5.886  12.121  0.6419  1.0370 -0.6514
12509TIP3   OH258941   0.074   3.171  12.804 -0.1511 -0.1617  0.5170
12509TIP3    H158942  -0.017   3.153  12.779 -0.2772 -0.4938  1.1957
12509TIP3    H258943   0.089   3.261  12.777 -1.2979  0.5439  2.1068
12510TIP3   OH258944   6.272   1.181   5.477 -0.1384 -0.5657 -0.0364
12510TIP3    H158945   6.362   1.214   5.472 -0.5958  0.5354 -1.2292
12510TIP3    H258946   6.219   1.259   5.496 -0.8672 -1.1842  0.5304
12511TIP3   OH258947   3.538   1.338  13.586  0.0681 -0.2185  0.0414
12511TIP3    H158948   3.461   1.396  13.588 -0.0478 -0.3640  3.5382
12511TIP3    H258949   3.605   1.389  13.541 -1.5656  0.5738 -1.5748
12512TIP3   OH258950   2.408   6.640   5.829 -0.0588 -0.3930  0.0178
12512TIP3    H158951   2.443   6.624   5.917 -0.1308 -2.1665 -0.2616
12512TIP3    H258952   2.481   6.620   5.770 -0.2361  0.0975 -0.3774
12513TIP3   OH258953   6.779   2.213  14.219 -0.0295 -0.2988 -0.2488
12513TIP3    H158954   6.810   2.170  14.139  0.5118  0.8501 -0.6596
12513TIP3    H258955   6.757   2.140  14.278  0.3074 -1.1453 -1.1541
12514TIP3   OH258956   0.430   0.610   6.031 -0.0474 -0.3974 -0.1295
12514TIP3    H158957   0.383   0.645   6.107  1.0653  3.3591 -1.1004
12514TIP3    H258958   0.473   0.531   6.064 -2.7640 -1.0593  2.0858
12515TIP3   OH258959   1.760   2.630  12.031  0.0308 -0.0916  0.5340
12515TIP3    H158960   1.856   2.632  12.034  0.0304  0.8501  0.0721
12515TIP3    H258961   1.739   2.630  11.938 -0.4353  1.9035  0.6027
12516TIP3   OH258962   1.661   0.235  11.931  0.1845  0.6360 -0.1339
12516TIP3    H158963   1.748   0.217  11.893  0.0126 -0.5893  0.0137
12516TIP3    H258964   1.679   0.262  12.020  0.3825 -0.7066  0.2547
12517TIP3   OH258965   0.741   1.392  12.228 -0.1688  0.9051  0.7337
12517TIP3    H158966   0.827   1.385  12.270  0.0779 -1.1325 -0.0454
12517TIP3    H258967   0.683   1.339  12.283 -0.5386  0.8660  0.3087
12518TIP3   OH258968   5.978   6.696  15.287  0.2124 -0.4511 -0.0687
12518TIP3    H158969   5.932   6.708  15.204  0.6653 -0.4908 -0.3273
12518TIP3    H258970   5.989   6.785  15.321 -0.4749 -0.4716  0.2278
12519TIP3   OH258971   0.995   0.444   6.113  0.5183  0.4153  0.2792
12519TIP3    H158972   0.972   0.463   6.204  0.2461 -2.3166  0.8155
12519TIP3    H258973   1.041   0.360   6.116 -2.0753 -1.2152 -2.3954
12520TIP3   OH258974   4.265   6.577  11.546 -0.1104  0.0643  0.0079
12520TIP3    H158975   4.281   6.482  11.552 -0.0379  0.0288 -0.7301
12520TIP3    H258976   4.192   6.585  11.485 -3.0821  0.2180  3.3675
12521TIP3   OH258977   1.288   0.256  16.811 -0.3121 -0.5099  0.0968
12521TIP3    H158978   1.345   0.265  16.735 -0.1086  0.7162  0.3820
12521TIP3    H258979   1.226   0.329  16.803 -1.5009 -1.4935  0.0866
12522TIP3   OH258980   0.768   4.422  15.693  0.4332 -0.2548 -0.2933
12522TIP3    H158981   0.681   4.439  15.731  1.3100  1.2826  1.0824
12522TIP3    H258982   0.749   4.381  15.609 -1.6098 -1.8212  0.8612
12523TIP3   OH258983   6.060   3.520  15.906  0.1786 -0.1984 -0.2696
12523TIP3    H158984   6.011   3.603  15.901  0.2596  0.0315  2.1742
12523TIP3    H258985   5.992   3.454  15.920  0.3759 -0.1037  1.2420
12524TIP3   OH258986   2.668   6.295  15.631 -0.1668  0.2562 -0.4138
12524TIP3    H158987   2.667   6.381  15.590 -0.2715  0.0650 -0.8081
12524TIP3    H258988   2.667   6.314  15.725  3.1616  0.7499 -0.4280
12525TIP3   OH258989   6.769   3.928   3.657 -0.7565 -0.6393  0.4870
12525TIP3    H158990   6.851   3.882   3.672  0.8128  1.7947 -0.3571
12525TIP3    H258991   6.738   3.953   3.744  1.3386  1.6830  0.5926
12526TIP3   OH258992   1.124   0.484   5.830 -0.0043 -0.1568 -0.0999
12526TIP3    H158993   1.123   0.434   5.911  0.4209  0.1373  0.0895
12526TIP3    H258994   1.217   0.496   5.810 -0.0946 -1.8922 -1.6582
12527TIP3   OH258995   1.061   0.656   1.944  0.3257  0.0159  0.8374
12527TIP3    H158996   0.987   0.707   1.977 -0.4458  0.1581 -1.0813
12527TIP3    H258997   1.021   0.580   1.901  1.2635  0.2519 -0.4794
12528TIP3   OH258998   5.552   0.064   3.542 -0.0640  0.4541  0.1937
12528TIP3    H158999   5.603  -0.018   3.538 -1.3753 -0.4101  0.8870
12528TIP3    H259000   5.516   0.072   3.454 -1.1973 -0.5496  0.5542
12529TIP3   OH259001   4.218   3.091  14.716  0.1689 -0.0185  0.7207
12529TIP3    H159002   4.289   3.027  14.709 -0.9849 -1.1073 -1.8898
12529TIP3    H259003   4.142   3.039  14.742  0.0063  0.9337  2.2247
12530TIP3   OH259004   4.725   6.727   1.020 -0.3898  0.1891 -0.1710
12530TIP3    H159005   4.727   6.639   0.982  0.9209  0.7287 -1.3628
12530TIP3    H259006   4.715   6.786   0.945 -1.4226  1.0598  0.6299
12531TIP3   OH259007   0.994   0.696   5.342  0.4956  0.6600  0.1305
12531TIP3    H159008   0.949   0.771   5.304 -0.1460  0.1255 -0.1593
12531TIP3    H259009   0.984   0.707   5.437 -3.5583 -1.4621  0.0323
12532TIP3   OH259010   4.795   2.104  11.583  0.3870  0.2190  0.6465
12532TIP3    H159011   4.867   2.044  11.565  0.7634  0.9213 -0.1748
12532TIP3    H259012   4.829   2.191  11.562 -1.3277  0.3675 -1.7631
12533TIP3   OH259013   4.229   1.998   0.772  0.0057  0.7428  0.1482
12533TIP3    H159014   4.155   2.007   0.831  0.8100 -0.2014  1.3107
12533TIP3    H259015   4.293   2.063   0.802  0.2826  0.4900  0.1114
12534TIP3   OH259016   1.933   6.673  13.983  0.4665  0.0208  0.1346
12534TIP3    H159017   1.871   6.622  14.035  1.0803  0.2612  1.1182
12534TIP3    H259018   1.910   6.654  13.892  0.3599 -1.6036  0.4836
12535TIP3   OH259019   3.848   6.419   2.148  0.9680  0.5018 -0.2104
12535TIP3    H159020   3.754   6.434   2.134  0.7700 -0.7333 -0.1936
12535TIP3    H259021   3.890   6.492   2.102  0.0595  0.1324 -1.6584
12536TIP3   OH259022   0.183   5.520   4.869 -0.2072  0.2313 -0.9913
12536TIP3    H159023   0.261   5.555   4.911 -1.0458 -0.0065  0.8228
12536TIP3    H259024   0.201   5.426   4.860 -0.1991  0.2093 -0.7528
12537TIP3   OH259025   3.677   6.705   1.975 -0.5568  0.3138  0.5530
12537TIP3    H159026   3.746   6.643   1.948  0.2362  1.1020  0.7560
12537TIP3    H259027   3.608   6.649   2.012  0.8609 -0.3404  2.2613
12538TIP3   OH259028   0.375   3.271   2.183 -0.2605  0.0287  0.0756
12538TIP3    H159029   0.321   3.222   2.245  0.3863  1.1656  1.5558
12538TIP3    H259030   0.465   3.241   2.200 -0.2519 -1.0464 -1.6321
12539TIP3   OH259031   5.485   2.747  14.733  0.4557  0.1136  0.0078
12539TIP3    H159032   5.458   2.803  14.660  0.6522  1.7681  1.1796
12539TIP3    H259033   5.404   2.708  14.764  0.3462 -0.4648 -0.9746
12540TIP3   OH259034   0.751   0.623   4.561  0.4827 -0.5242 -0.3978
12540TIP3    H159035   0.770   0.714   4.540  0.7663 -0.3233  0.7014
12540TIP3    H259036   0.812   0.572   4.508  0.3729 -0.0734 -0.9550
12541TIP3   OH259037   2.705   0.232   1.538 -0.0427  0.1009 -0.4856
12541TIP3    H159038   2.661   0.198   1.616 -0.7445 -3.1004 -2.1502
12541TIP3    H259039   2.798   0.216   1.553 -0.3016 -2.0056 -0.9039
12542TIP3   OH259040   2.910   2.332  11.257 -0.3280  0.2066 -0.1676
12542TIP3    H159041   2.946   2.383  11.330 -1.6963 -1.3038  1.5968
12542TIP3    H259042   2.839   2.386  11.222  0.4137  0.9890 -0.4831
12543TIP3   OH259043   2.516   6.025  16.026 -0.2199 -0.7721  0.4187
12543TIP3    H159044   2.603   5.987  16.040 -0.4512 -1.0123  1.2241
12543TIP3    H259045   2.515   6.049  15.933  0.6731 -0.8530  0.3860
12544TIP3   OH259046   3.973   1.057   4.300  0.0553  0.3116  0.8960
12544TIP3    H159047   3.967   1.106   4.383  0.9472  3.7723 -0.9715
12544TIP3    H259048   3.882   1.038   4.277 -0.2030 -0.7213  2.6753
12545TIP3   OH259049   6.313   1.022  15.161 -0.1962  0.3305 -0.3550
12545TIP3    H159050   6.272   0.963  15.097 -1.7612  0.8544  0.1397
12545TIP3    H259051   6.242   1.044  15.221  0.5835  2.0581 -0.0486
12546TIP3   OH259052   2.937   4.555   3.496 -0.2850  0.2896  0.2769
12546TIP3    H159053   2.929   4.461   3.483 -2.1706  0.2915  1.2126
12546TIP3    H259054   3.022   4.567   3.537 -0.9834 -1.2322  2.2314
12547TIP3   OH259055   4.959   2.180  13.888  0.0771 -0.0594  0.8430
12547TIP3    H159056   5.015   2.107  13.915  0.2849 -0.6125 -1.0193
12547TIP3    H259057   4.921   2.213  13.970  1.8886 -0.6840  1.9460
12548TIP3   OH259058   3.081   0.311  12.083 -0.2070 -0.2673 -0.0304
12548TIP3    H159059   3.047   0.400  12.076  2.4528  0.8995  1.0209
12548TIP3    H259060   3.058   0.270  11.999  0.7713  2.2480 -1.5953
12549TIP3   OH259061   4.769   4.161   5.106  0.0004 -0.0953  0.4846
12549TIP3    H159062   4.722   4.086   5.144  2.8703 -2.1866  0.0407
12549TIP3    H259063   4.837   4.181   5.171  0.0747  1.3059 -0.0180
12550TIP3   OH259064   3.369   5.330  16.164  0.3126  0.0682  0.1119
12550TIP3    H159065   3.334   5.298  16.081  1.2228  2.4420 -1.2244
12550TIP3    H259066   3.325   5.414  16.179 -1.0646 -1.0775  2.8941
12551TIP3   OH259067   2.289   1.994   1.024  0.4882 -0.1251 -0.0102
12551TIP3    H159068   2.236   1.946   0.961  1.4704 -1.4333  0.1345
12551TIP3    H259069   2.358   2.034   0.972 -0.4500  1.3291 -0.1582
12552TIP3   OH259070   1.140   3.218   4.363  0.0951  0.0001  0.2451
12552TIP3    H159071   1.201   3.244   4.432  1.1931 -0.4974 -0.5175
12552TIP3    H259072   1.095   3.141   4.399  0.4234 -0.0547  0.5456
12553TIP3   OH259073   5.532   2.708   1.302 -0.0172 -0.3876 -0.7909
12553TIP3    H159074   5.538   2.706   1.398 -1.8963 -2.1830 -0.6776
12553TIP3    H259075   5.519   2.801   1.281 -0.5480 -0.0829  0.7773
12554TIP3   OH259076   3.617   2.784   5.726  0.0662 -0.4782 -0.2149
12554TIP3    H159077   3.596   2.707   5.779  0.6879  0.1828  1.0338
12554TIP3    H259078   3.549   2.847   5.749  0.9292  0.1738  0.6078
12555TIP3   OH259079   4.760   0.908  16.491  0.0392 -0.0720  0.1062
12555TIP3    H159080   4.789   0.955  16.570 -1.1113 -0.0027  0.4912
12555TIP3    H259081   4.708   0.973  16.443  1.0472  0.0101 -0.9177
12556TIP3   OH259082   1.709   0.175  14.046  0.1486  0.0287 -0.1625
12556TIP3    H159083   1.720   0.094  13.995  0.6511 -1.1817  1.8003
12556TIP3    H259084   1.629   0.161  14.096 -0.4697  1.2989 -0.7790
12557TIP3   OH259085   3.034   5.779  14.241  0.4024 -0.5833  0.6033
12557TIP3    H159086   2.989   5.855  14.203 -1.8107 -1.5403  1.2256
12557TIP3    H259087   3.110   5.816  14.285  0.4624  1.0431 -0.8033
12558TIP3   OH259088   2.579   5.667   2.279  0.1002 -0.2705  0.0282
12558TIP3    H159089   2.672   5.675   2.262  0.1896 -0.8992  0.2011
12558TIP3    H259090   2.564   5.573   2.289 -0.1161 -0.0349  2.4063
12559TIP3   OH259091   1.379   1.527  10.979 -0.6368 -0.7689  0.1084
12559TIP3    H159092   1.392   1.437  11.010  2.5805  0.0919  1.5049
12559TIP3    H259093   1.410   1.525  10.888  1.3795 -0.6873  0.7535
12560TIP3   OH259094   6.155   2.401   4.580 -0.1050 -0.3563 -0.2816
12560TIP3    H159095   6.212   2.371   4.651  0.3023 -0.7273 -0.7612
12560TIP3    H259096   6.073   2.354   4.594  0.1191 -0.7545 -0.3055
12561TIP3   OH259097   3.697   1.080   6.048 -0.0550 -0.1359 -0.1315
12561TIP3    H159098   3.787   1.078   6.083 -0.5125 -0.6754  1.0290
12561TIP3    H259099   3.666   1.169   6.066  0.8104  0.5955 -2.0364
12562TIP3   OH259100   1.131   2.619  13.735  0.4417  0.5451  0.1572
12562TIP3    H159101   1.160   2.541  13.688 -1.0889  0.1041 -0.0802
12562TIP3    H259102   1.037   2.606  13.749  0.4493  1.6662  1.4280
12563TIP3   OH259103   3.833   5.689  12.844 -0.2944 -0.0376  0.0911
12563TIP3    H159104   3.859   5.599  12.863 -0.7749 -0.5679 -1.7134
12563TIP3    H259105   3.746   5.681  12.805  0.2772  1.0603 -1.4728
12564TIP3   OH259106   3.442   2.884   3.171 -0.5313 -0.4185  0.0586
12564TIP3    H159107   3.507   2.896   3.101  0.7496 -1.8218  0.9868
12564TIP3    H259108   3.441   2.967   3.217 -0.1862 -0.0210 -0.6379
12565TIP3   OH259109   4.086   4.176   0.750 -0.3621 -0.5452  0.3125
12565TIP3    H159110   4.090   4.127   0.833 -1.2410  0.8130  1.1593
12565TIP3    H259111   4.050   4.261   0.774  0.1612  0.1536 -1.3421
12566TIP3   OH259112   2.670   6.264   3.141  0.2669  0.1632 -0.2825
12566TIP3    H159113   2.577   6.285   3.128 -0.1525 -1.5667 -0.1779
12566TIP3    H259114   2.688   6.193   3.080  1.9614  1.5601 -1.4616
12567TIP3   OH259115   5.597   5.211   4.997 -0.1033  0.1983 -0.2215
12567TIP3    H159116   5.555   5.268   5.062  0.0656  0.8311 -0.6672
12567TIP3    H259117   5.540   5.134   4.994 -0.5066  0.4701  0.1564
12568TIP3   OH259118   5.285   2.898   5.433  0.1525  0.2725 -0.3089
12568TIP3    H159119   5.286   2.950   5.352  0.7418 -0.2246 -0.6275
12568TIP3    H259120   5.340   2.948   5.494  2.0345 -0.7684 -1.1271
12569TIP3   OH259121   5.383   1.784  15.268 -0.3823  0.4338 -0.3956
12569TIP3    H159122   5.465   1.812  15.309  0.4230  0.4294 -1.9510
12569TIP3    H259123   5.325   1.859  15.276  0.5461  1.2598 -1.2780
12570TIP3   OH259124   6.583   0.569   1.014  0.2174  0.0047 -0.4409
12570TIP3    H159125   6.501   0.534   0.981  0.7972 -0.8922 -0.9464
12570TIP3    H259126   6.589   0.656   0.975 -0.4154  0.0117 -0.5281
12571TIP3   OH259127   4.318   1.473   3.300  0.2376 -0.1953  0.3697
12571TIP3    H159128   4.368   1.428   3.367  0.1404 -1.8728 -0.6322
12571TIP3    H259129   4.228   1.442   3.313 -0.0011  0.4761  0.3006
12572TIP3   OH259130   3.491   0.317   3.264  0.8919 -0.4137 -0.3998
12572TIP3    H159131   3.446   0.232   3.256  1.2041 -0.4562 -1.9448
12572TIP3    H259132   3.515   0.339   3.174 -1.1554  2.4115 -0.3324
12573TIP3   OH259133   3.574   5.460  14.403 -0.9384 -0.0109 -0.1704
12573TIP3    H159134   3.577   5.480  14.497 -0.1873  0.5055 -0.2972
12573TIP3    H259135   3.480   5.460  14.382 -1.0620  1.1145  0.3257
12574TIP3   OH259136   1.496   4.757   3.963  0.0484  0.5296  0.6171
12574TIP3    H159137   1.450   4.735   3.882 -1.5807 -0.4150  1.7660
12574TIP3    H259138   1.579   4.709   3.956 -0.0758  0.4547 -0.4968
12575TIP3   OH259139   0.568   1.175  15.134 -0.4598  0.2430 -0.1201
12575TIP3    H159140   0.632   1.224  15.084 -0.4451  1.0480  0.6729
12575TIP3    H259141   0.588   1.195  15.225 -0.8118 -0.7909  0.1945
12576TIP3   OH259142   2.832   3.571   3.133  0.3569  0.4629  0.2478
12576TIP3    H159143   2.867   3.584   3.221  0.4015 -0.3743  0.3650
12576TIP3    H259144   2.806   3.658   3.104  1.2437  0.8865  0.7043
12577TIP3   OH259145   4.748   3.338  12.050  0.1845  0.4547  0.4749
12577TIP3    H159146   4.655   3.334  12.072 -0.1131  0.8921 -0.6743
12577TIP3    H259147   4.752   3.311  11.958  1.4010 -1.3592  1.0280
12578TIP3   OH259148   2.068   4.042  15.565 -0.3030  0.5858  0.4381
12578TIP3    H159149   2.068   4.109  15.497 -0.7329  0.2124  0.0673
12578TIP3    H259150   2.056   4.090  15.647  1.2258  1.1351  0.3459
12579TIP3   OH259151   2.718   3.777  15.335  0.1343 -0.0887  0.1613
12579TIP3    H159152   2.735   3.685  15.358 -0.1772 -0.1955 -0.0416
12579TIP3    H259153   2.786   3.798  15.271 -0.8680 -0.7023 -1.1121
12580TIP3   OH259154   4.356   3.801   0.721  0.6095 -0.5808 -0.4703
12580TIP3    H159155   4.364   3.891   0.753  0.9014  0.1538 -2.5120
12580TIP3    H259156   4.438   3.759   0.748  0.5009 -0.2161  0.4392
12581TIP3   OH259157   6.213   4.621  12.498 -0.4438  0.0705  0.0502
12581TIP3    H159158   6.216   4.562  12.422 -0.6323 -0.4512  0.4486
12581TIP3    H259159   6.276   4.690  12.477 -0.5909  0.0028 -0.6423
12582TIP3   OH259160   2.359   5.097  12.252 -0.4011 -0.5585 -0.0474
12582TIP3    H159161   2.332   5.036  12.321  2.2040 -0.3115  1.2645
12582TIP3    H259162   2.377   5.179  12.298  2.5890 -0.7431 -0.7887
12583TIP3   OH259163   1.921   3.934   0.606 -0.0058  0.0720 -0.1746
12583TIP3    H159164   1.920   3.906   0.697 -1.2289  0.1053 -0.1712
12583TIP3    H259165   1.935   3.853   0.556 -1.6976 -0.3116 -0.0684
12584TIP3   OH259166   1.595   3.910  17.203  0.1047  0.2072 -0.4424
12584TIP3    H159167   1.645   3.976  17.153  1.2651 -0.7467 -0.5814
12584TIP3    H259168   1.549   3.860  17.136  0.2287  0.0742 -0.4287
12585TIP3   OH259169   6.762   0.341   3.651 -0.4110 -0.0774  0.0421
12585TIP3    H159170   6.794   0.254   3.676  2.1298  1.1840  1.3278
12585TIP3    H259171   6.746   0.334   3.557 -0.2237 -1.9320  0.1215
12586TIP3   OH259172   5.296   3.848  11.282  0.6013 -0.4088 -0.2052
12586TIP3    H159173   5.258   3.787  11.219 -0.2695 -0.1939  0.1013
12586TIP3    H259174   5.224   3.869  11.341  1.3166 -0.3330  0.6520
12587TIP3   OH259175   6.104   1.553   2.244  0.4237 -0.2103 -0.2766
12587TIP3    H159176   6.110   1.513   2.331 -0.5073 -1.0210 -0.5765
12587TIP3    H259177   6.148   1.490   2.186  0.8207  0.2088 -0.4360
12588TIP3   OH259178   5.173   0.699  11.982  0.2371  0.1548 -0.0182
12588TIP3    H159179   5.149   0.709  12.074  2.7388  1.9248  0.4956
12588TIP3    H259180   5.253   0.646  11.983 -0.0092 -0.2586 -1.2046
12589TIP3   OH259181   0.576   5.232  14.371  0.0655 -0.1509  0.2986
12589TIP3    H159182   0.658   5.261  14.332  0.5009 -1.9199 -0.1178
12589TIP3    H259183   0.602   5.183  14.449 -0.7013  1.1819  1.4278
12590TIP3   OH259184   3.423   6.452   1.633  0.1755 -0.8606 -0.2007
12590TIP3    H159185   3.360   6.507   1.587  0.6379 -0.2679 -0.1286
12590TIP3    H259186   3.427   6.371   1.582  0.0221 -0.5531 -0.7011
12591TIP3   OH259187   1.724   6.228  15.104  0.3299  0.3521  0.0636
12591TIP3    H159188   1.727   6.145  15.152  0.0187  0.0176 -0.4836
12591TIP3    H259189   1.688   6.205  15.019  0.5117  1.0058 -0.1968
12592TIP3   OH259190   2.062   5.382  11.632 -0.5740  0.4233  0.3204
12592TIP3    H159191   1.976   5.356  11.599 -0.0132 -0.3033 -0.5867
12592TIP3    H259192   2.125   5.339  11.574  0.4018  3.0538 -0.6297
12593TIP3   OH259193   4.219   4.643  14.558  0.3485  0.0856 -0.1989
12593TIP3    H159194   4.200   4.691  14.477  0.7541  2.1938  0.9116
12593TIP3    H259195   4.155   4.676  14.621 -0.7918 -2.4671  0.0408
12594TIP3   OH259196   6.602   1.100  16.905 -0.8189 -0.3684 -0.0507
12594TIP3    H159197   6.668   1.127  16.969 -1.2250  0.6995 -0.0572
12594TIP3    H259198   6.588   1.007  16.922  2.9760 -1.4470 -2.0894
12595TIP3   OH259199   5.491   4.077   2.419 -0.3534 -0.3231  0.2330
12595TIP3    H159200   5.450   4.057   2.504  0.7859 -1.8490  0.4487
12595TIP3    H259201   5.497   3.992   2.376  0.7879  0.1815 -0.6011
12596TIP3   OH259202   3.936   4.039   6.260 -0.3072 -0.5526  0.2624
12596TIP3    H159203   3.925   3.964   6.319  0.0921 -0.8815 -0.0808
12596TIP3    H259204   4.030   4.043   6.244 -0.3551 -0.1251  0.0859
12597TIP3   OH259205   0.026   6.391   1.642 -0.3487  0.9293  0.0946
12597TIP3    H159206   0.039   6.428   1.554  0.3497  0.3398 -0.0554
12597TIP3    H259207   0.115   6.375   1.674 -0.6441 -0.5511  0.1911
12598TIP3   OH259208   5.319   0.337   6.229  0.1096  0.5557 -0.9994
12598TIP3    H159209   5.317   0.253   6.275  0.8661  0.2919 -1.4414
12598TIP3    H259210   5.288   0.400   6.293  3.5912  0.5914  0.7683
12599TIP3   OH259211   6.141   3.997   1.213 -0.3273  0.4842  0.0969
12599TIP3    H159212   6.188   4.059   1.268  1.5914  0.3444 -1.3353
12599TIP3    H259213   6.208   3.958   1.157 -1.7534 -1.6677 -0.1819
12600TIP3   OH259214   5.489   6.653   1.814 -0.2695  0.3335  0.3562
12600TIP3    H159215   5.568   6.706   1.805 -0.3894  0.6069  0.8818
12600TIP3    H259216   5.508   6.573   1.764  0.5753  0.1440  0.9552
12601TIP3   OH259217   0.004   6.117  15.971 -0.1169 -0.1787  0.4959
12601TIP3    H159218   0.003   6.124  16.066  1.4298 -2.3055  0.6934
12601TIP3    H259219   0.096   6.114  15.947 -0.4707  1.0079 -1.1535
12602TIP3   OH259220   4.096   2.780   5.320 -0.3418 -0.0164  0.6071
12602TIP3    H159221   4.020   2.725   5.305 -0.7091  0.7743 -0.4664
12602TIP3    H259222   4.072   2.865   5.283  1.1176  0.2030  0.1454
12603TIP3   OH259223   5.300   6.303  15.844 -0.0702 -0.4113  0.0180
12603TIP3    H159224   5.363   6.369  15.815  1.0092 -1.2860  0.3309
12603TIP3    H259225   5.263   6.339  15.925  0.6061 -0.2413  0.2588
12604TIP3   OH259226   1.854   2.445   5.139  0.3948  0.0423  0.2506
12604TIP3    H159227   1.832   2.352   5.133  1.0217 -0.0847 -0.1198
12604TIP3    H259228   1.875   2.459   5.231  1.7127 -0.5057  0.0454
12605TIP3   OH259229   2.673   5.743   1.142 -0.3287  0.3413  0.0709
12605TIP3    H159230   2.652   5.832   1.171 -0.6993 -0.0830  1.1654
12605TIP3    H259231   2.591   5.694   1.152 -0.2135 -0.0484 -0.8365
12606TIP3   OH259232   5.192   4.928  11.350 -0.6906 -0.4360  0.3700
12606TIP3    H159233   5.169   4.842  11.315  1.1640 -0.2363 -1.4810
12606TIP3    H259234   5.222   4.910  11.439  0.8177 -1.9143 -0.3908
12607TIP3   OH259235   3.914   5.095  10.872  0.0457 -0.1898  0.1151
12607TIP3    H159236   3.940   5.015  10.827 -1.7423 -1.2825  0.9177
12607TIP3    H259237   3.874   5.149  10.804  0.3395 -0.4280 -0.2493
12608TIP3   OH259238   6.493   5.876  14.246  0.5573 -0.0554  0.1758
12608TIP3    H159239   6.491   5.839  14.334  1.0941 -0.0406  0.2002
12608TIP3    H259240   6.581   5.913  14.238  0.5059 -0.0407 -0.3576
12609TIP3   OH259241   2.660   2.446  11.166 -0.0675  0.0056 -0.1068
12609TIP3    H159242   2.622   2.511  11.107 -2.5340 -1.1439  0.1348
12609TIP3    H259243   2.590   2.428  11.229  1.6337 -0.6623  1.6267
12610TIP3   OH259244   4.481   3.044   4.692  0.1146 -0.2163  0.2696
12610TIP3    H159245   4.446   3.110   4.752 -0.8452  0.4851 -1.0421
12610TIP3    H259246   4.405   2.994   4.664  0.3697  0.2058 -1.2546
12611TIP3   OH259247   0.959   0.246   4.128 -0.2907 -0.5195 -0.1147
12611TIP3    H159248   1.003   0.329   4.147  2.5347 -2.0152  0.2344
12611TIP3    H259249   0.907   0.263   4.049  1.7462  1.0982 -1.1538
12612TIP3   OH259250   6.515   3.139  15.517 -0.1144  0.6096  0.3924
12612TIP3    H159251   6.576   3.070  15.544 -0.9140  0.7036  2.4885
12612TIP3    H259252   6.523   3.205  15.585 -0.9937  1.5987 -0.4583
12613TIP3   OH259253   2.502   1.428  10.893  0.6589 -0.1445  0.1909
12613TIP3    H159254   2.535   1.517  10.885  1.0835 -0.2076  1.2068
12613TIP3    H259255   2.451   1.414  10.813 -1.9309  2.0574  1.3490
12614TIP3   OH259256   5.869   4.693   1.312 -0.4752 -0.2875 -0.8996
12614TIP3    H159257   5.834   4.664   1.228  1.3586 -1.5639 -1.2477
12614TIP3    H259258   5.853   4.620   1.372 -3.1630  1.2166  0.2773
12615TIP3   OH259259   0.967   4.746   5.082 -0.1731 -0.4584 -0.5285
12615TIP3    H159260   1.033   4.740   5.013 -0.3577 -0.1883 -0.7323
12615TIP3    H259261   0.929   4.659   5.087  1.2038 -1.0163  0.5995
12616TIP3   OH259262   3.153   6.099  12.729  0.4160 -0.2717 -0.0658
12616TIP3    H159263   3.197   6.095  12.815 -1.1752 -1.7419  0.6847
12616TIP3    H259264   3.207   6.044  12.672 -0.0785 -1.5544  0.6942
12617TIP3   OH259265   6.694   1.996  13.230  0.0840 -0.0846  0.4252
12617TIP3    H159266   6.649   2.004  13.314  0.1454  0.6311  0.3974
12617TIP3    H259267   6.752   1.921  13.240  0.6921  0.4868  1.3084
12618TIP3   OH259268   0.584   5.724  12.686  0.0017  0.6148 -0.0530
12618TIP3    H159269   0.649   5.757  12.748 -0.3277  0.6321  0.2825
12618TIP3    H259270   0.633   5.662  12.631  0.2501  0.4601  0.3386
12619TIP3   OH259271   2.725   5.194  15.155 -0.3904 -0.4826  0.1224
12619TIP3    H159272   2.820   5.184  15.146 -0.4512 -1.9609  0.9975
12619TIP3    H259273   2.690   5.107  15.136 -1.5134 -0.1419  0.6102
12620TIP3   OH259274   4.659   2.885  15.741  0.4930  0.5979  0.0414
12620TIP3    H159275   4.740   2.928  15.770  0.2494  1.3808 -0.4454
12620TIP3    H259276   4.668   2.878  15.646 -0.9649  2.6935 -0.2843
12621TIP3   OH259277   4.679   5.176  13.478  0.4816 -0.0151 -0.0080
12621TIP3    H159278   4.662   5.086  13.507 -0.6661 -0.0129 -0.6115
12621TIP3    H259279   4.675   5.228  13.558  0.5177 -0.4186  0.2578
12622TIP3   OH259280   1.697   0.586   1.457  0.7487 -0.0685  0.3743
12622TIP3    H159281   1.724   0.501   1.492 -0.2316 -0.7772 -0.5710
12622TIP3    H259282   1.656   0.566   1.373  2.0371  1.4995 -0.6714
12623TIP3   OH259283   2.659   6.264  15.066 -0.3388 -0.4307 -0.4557
12623TIP3    H159284   2.699   6.347  15.090  3.1205 -2.4194  1.0068
12623TIP3    H259285   2.660   6.263  14.970  0.9429  0.5728 -0.4515
12624TIP3   OH259286   0.574   1.354   3.554 -0.7374  0.3320  0.7380
12624TIP3    H159287   0.623   1.352   3.637 -0.6115  0.4248  0.6660
12624TIP3    H259288   0.634   1.314   3.490 -1.1723 -0.5504  0.8704
12625TIP3   OH259289   4.310   2.390   0.505  0.1163  0.2478  0.3097
12625TIP3    H159290   4.218   2.364   0.513  0.1759  0.0618  0.3941
12625TIP3    H259291   4.307   2.484   0.490 -0.0278  0.5868  2.3163
12626TIP3   OH259292   1.524   2.960   4.997  0.1229 -0.0466 -0.1190
12626TIP3    H159293   1.617   2.969   5.020  0.1616 -1.9435  0.5246
12626TIP3    H259294   1.495   3.050   4.982  1.8792  0.6364  0.3726
12627TIP3   OH259295   0.234   3.673  11.503 -0.0706 -0.5564 -0.2457
12627TIP3    H159296   0.243   3.637  11.416  0.3759 -0.6542 -0.1615
12627TIP3    H259297   0.240   3.598  11.562 -1.2646 -0.6028 -0.1688
12628TIP3   OH259298   3.189   3.528   6.362 -0.0763 -0.2766  0.1973
12628TIP3    H159299   3.251   3.600   6.370 -0.8865  0.3517  0.9097
12628TIP3    H259300   3.225   3.459   6.419  0.8875 -0.5857 -0.7662
12629TIP3   OH259301   2.303   6.629  16.242  0.2776  0.1873  0.1818
12629TIP3    H159302   2.370   6.575  16.200  1.7812  0.3518  2.3008
12629TIP3    H259303   2.307   6.713  16.196  0.0037 -0.5078 -1.1385
12630TIP3   OH259304   2.537   2.632   0.840 -0.2862  0.1409  0.0700
12630TIP3    H159305   2.594   2.579   0.785 -0.0304  1.2338 -0.7477
12630TIP3    H259306   2.451   2.625   0.798 -0.4009 -0.1857  0.3598
12631TIP3   OH259307   3.037   2.700  11.073  0.4132  0.7363  0.5233
12631TIP3    H159308   3.081   2.733  10.995 -0.2612  0.6951  0.1235
12631TIP3    H259309   3.014   2.778  11.123  1.0574  0.7523  0.8020
12632TIP3   OH259310   2.264   0.457   2.357 -0.0985 -0.9647  0.0698
12632TIP3    H159311   2.296   0.524   2.297  0.0905 -2.6132 -1.7222
12632TIP3    H259312   2.331   0.452   2.425 -0.4576  1.1298  0.6224
12633TIP3   OH259313   0.776   2.658   4.367  0.6940  0.4404  0.2582
12633TIP3    H159314   0.755   2.733   4.422  0.0707 -0.3001  1.0543
12633TIP3    H259315   0.778   2.693   4.278 -4.6685  0.4832 -0.0017
12634TIP3   OH259316   4.988   4.574   2.587 -0.3320  0.2269 -0.4435
12634TIP3    H159317   5.009   4.490   2.545  1.3260  0.2851  0.2675
12634TIP3    H259318   4.939   4.622   2.520  0.8645 -0.3357 -1.7400
12635TIP3   OH259319   6.506   0.096   1.750 -0.4287  0.1371  0.0171
12635TIP3    H159320   6.530   0.183   1.721  0.3281 -0.5168 -1.3884
12635TIP3    H259321   6.589   0.055   1.775 -1.0170  0.5754  2.9363
12636TIP3   OH259322   4.949   6.007   4.343  0.0444  0.2132 -0.5333
12636TIP3    H159323   4.993   5.973   4.264  0.3303 -0.8359  0.0745
12636TIP3    H259324   4.874   5.949   4.356  1.4373 -1.2216  1.4295
12637TIP3   OH259325   0.222   4.400   4.110  0.2977  0.3875  0.2213
12637TIP3    H159326   0.219   4.411   4.015  0.7017  0.3779  0.2070
12637TIP3    H259327   0.141   4.441   4.141 -0.1674 -0.2141 -0.1839
12638TIP3   OH259328   1.323   5.372   6.554 -0.4889 -0.2902 -0.3427
12638TIP3    H159329   1.319   5.327   6.638 -1.2412 -0.1974 -0.3280
12638TIP3    H259330   1.262   5.325   6.498  0.7508 -0.9717 -1.1506
12639TIP3   OH259331   3.352   1.303   3.414 -0.5655 -0.1654 -0.4960
12639TIP3    H159332   3.307   1.336   3.336 -0.2473  0.2141 -0.5192
12639TIP3    H259333   3.358   1.378   3.472 -0.8350 -0.4591 -0.0848
12640TIP3   OH259334   6.309   1.522   2.715  0.8278 -0.4869 -0.0688
12640TIP3    H159335   6.316   1.427   2.722  1.6977 -0.4432 -0.3472
12640TIP3    H259336   6.390   1.555   2.753  0.0676  0.1876  1.0096
12641TIP3   OH259337   3.304   6.224   1.961  0.0154 -0.1445  0.2500
12641TIP3    H159338   3.354   6.278   1.901 -2.1583  2.5365  0.7183
12641TIP3    H259339   3.221   6.271   1.971 -1.8833 -3.4872  0.8780
12642TIP3   OH259340   1.912   5.737   2.239 -0.4977 -0.0246 -0.0805
12642TIP3    H159341   2.001   5.739   2.274  0.1620  2.9335 -1.8112
12642TIP3    H259342   1.922   5.717   2.146 -1.6828 -0.2807 -0.1647
12643TIP3   OH259343   4.782   4.686  15.584  0.2867 -0.1471  0.4236
12643TIP3    H159344   4.723   4.761  15.574 -0.5323 -0.7054  1.0413
12643TIP3    H259345   4.863   4.723  15.618 -0.3713  0.3562  1.4510
12644TIP3   OH259346   4.238   5.333  11.238  0.0052  0.2709  0.2711
12644TIP3    H159347   4.175   5.396  11.273  0.0174 -0.8471  2.3715
12644TIP3    H259348   4.189   5.251  11.230  0.2421  0.2909 -1.5637
12645TIP3   OH259349   5.106   2.483   2.120 -0.3669 -0.3645 -0.1293
12645TIP3    H159350   5.048   2.548   2.080 -0.9321 -2.1777 -2.3958
12645TIP3    H259351   5.179   2.476   2.058  1.3860  0.5534  1.7790
12646TIP3   OH259352   5.974   5.722  14.007 -0.1338 -0.2869  0.2823
12646TIP3    H159353   6.011   5.749  14.091  0.0505  0.8150 -0.1456
12646TIP3    H259354   6.044   5.737  13.944 -0.0926 -1.6133  0.0034
12647TIP3   OH259355   3.291   4.404  16.170  0.8863 -0.3249 -0.2910
12647TIP3    H159356   3.320   4.410  16.261 -0.6401 -0.1953  0.2003
12647TIP3    H259357   3.226   4.474  16.161  2.8062  1.2474 -2.1824
12648TIP3   OH259358   2.913   0.296  14.384 -0.0596  0.5024 -0.2205
12648TIP3    H159359   2.970   0.221  14.401 -0.0538  0.1566 -1.7204
12648TIP3    H259360   2.854   0.298  14.459  0.6713 -0.3026  0.3978
12649TIP3   OH259361   2.812   4.171  14.371 -0.2032  0.0595  0.5337
12649TIP3    H159362   2.721   4.198  14.359 -0.0057  0.8039  0.7306
12649TIP3    H259363   2.811   4.115  14.449 -0.6969 -0.9665 -0.1872
12650TIP3   OH259364   2.462   4.728   2.444  0.5338 -0.4264 -0.6458
12650TIP3    H159365   2.367   4.729   2.438  0.4732 -0.3175  0.3569
12650TIP3    H259366   2.491   4.693   2.359 -0.4311 -1.5031 -0.5399
12651TIP3   OH259367   3.415   3.815   1.964  0.2855  0.3186 -0.0541
12651TIP3    H159368   3.353   3.847   2.030 -0.8706 -2.4893  0.2837
12651TIP3    H259369   3.367   3.818   1.882 -0.0924 -1.1768  0.0947
12652TIP3   OH259370   2.697   4.294   5.130 -0.2072  0.3143  0.1089
12652TIP3    H159371   2.641   4.301   5.052  0.5982  0.4441 -0.4649
12652TIP3    H259372   2.642   4.250   5.195  0.2354 -3.0070 -1.6622
12653TIP3   OH259373   5.681   4.837   0.341  0.0715  0.0236  0.2212
12653TIP3    H159374   5.720   4.913   0.383 -2.0242  0.0221  2.2651
12653TIP3    H259375   5.684   4.769   0.408 -3.0925 -0.0606  0.3380
12654TIP3   OH259376   3.891   4.736   5.186 -0.1981  0.5481  0.0667
12654TIP3    H159377   3.959   4.781   5.135 -0.3884 -0.0403 -0.7206
12654TIP3    H259378   3.815   4.794   5.180  0.2924  1.3370  1.1682
12655TIP3   OH259379   5.751   6.576  14.622  0.8877 -0.1968 -0.3315
12655TIP3    H159380   5.813   6.647  14.631 -0.2326  0.8650 -0.8265
12655TIP3    H259381   5.736   6.545  14.711 -0.0075  1.4180  0.1012
12656TIP3   OH259382   1.484   4.335  13.408  0.0177 -0.3127  0.0309
12656TIP3    H159383   1.428   4.258  13.419  1.6324 -1.5285  0.0723
12656TIP3    H259384   1.492   4.345  13.313 -1.1506  0.5510  0.0092
12657TIP3   OH259385   0.166   6.747  16.437  0.0060 -0.1230 -0.2027
12657TIP3    H159386   0.128   6.664  16.465  0.3578 -0.3681 -0.4429
12657TIP3    H259387   0.108   6.814  16.473 -1.4973 -0.5262 -1.8443
12658TIP3   OH259388   3.007   6.174  17.116  0.6313  0.1694  0.1712
12658TIP3    H159389   3.087   6.160  17.065  1.0180  0.3967  0.7078
12658TIP3    H259390   2.955   6.095  17.101  1.6018 -0.6297  0.9826
12659TIP3   OH259391   3.367   2.601   5.565  0.0046 -0.2914  0.5661
12659TIP3    H159392   3.293   2.565   5.614  0.4314  1.3219  2.4238
12659TIP3    H259393   3.328   2.629   5.482 -1.1966 -0.7483  0.9602
12660TIP3   OH259394   0.003   6.395  14.141  0.2746 -0.2073 -0.0587
12660TIP3    H159395  -0.056   6.459  14.180 -0.9806 -1.0562 -0.5141
12660TIP3    H259396   0.020   6.427  14.053 -0.9210 -0.8491 -0.5303
12661TIP3   OH259397   4.094   2.344  11.291 -0.1297 -0.2003  0.2929
12661TIP3    H159398   4.000   2.337  11.279 -0.1881 -1.9335  1.6080
12661TIP3    H259399   4.116   2.274  11.353  1.8216  1.0038  1.0176
12662TIP3   OH259400   0.049   0.538   5.307  0.0007 -0.1131 -0.2028
12662TIP3    H159401   0.075   0.576   5.391 -1.1232 -1.5005  0.7822
12662TIP3    H259402   0.123   0.557   5.249  0.8502  0.7456  1.1264
12663TIP3   OH259403   2.454   3.746  12.343  0.2491  0.2857  0.0685
12663TIP3    H159404   2.477   3.746  12.250  1.8360  1.5149  0.4428
12663TIP3    H259405   2.495   3.667  12.377  0.8557  0.5715  0.0039
12664TIP3   OH259406   1.891   3.577  14.569  0.3776  0.8243  0.4267
12664TIP3    H159407   1.946   3.511  14.528 -1.2726  0.0406 -0.6154
12664TIP3    H259408   1.915   3.659  14.525  1.2130  0.6167  0.4974
12665TIP3   OH259409   3.617   1.588  16.308 -0.8835  0.0475  0.2365
12665TIP3    H159410   3.627   1.660  16.246 -0.7089 -0.1908 -0.0151
12665TIP3    H259411   3.707   1.563  16.330 -0.9436  0.3065  0.7937
12666TIP3   OH259412   0.029   2.564   0.695  0.4559  0.4516 -0.3761
12666TIP3    H159413   0.115   2.528   0.673  0.4083  2.0166 -3.2806
12666TIP3    H259414  -0.033   2.509   0.649 -0.0376  0.1814  0.5929
12667TIP3   OH259415   2.984   5.281  11.602  0.3095  0.0477 -0.1185
12667TIP3    H159416   3.063   5.306  11.650  0.7218  2.4289 -1.8945
12667TIP3    H259417   2.912   5.301  11.661  0.9835 -1.3736  1.2084
12668TIP3   OH259418   3.760   1.941   5.878 -0.4571 -0.0860  0.0572
12668TIP3    H159419   3.791   1.954   5.788  2.1138 -0.2410  0.8945
12668TIP3    H259420   3.829   1.890   5.920 -1.9838 -0.6602  1.9327
12669TIP3   OH259421   1.658   1.263  14.126  0.2137 -0.4068 -0.6673
12669TIP3    H159422   1.588   1.328  14.128 -0.4050 -1.0805  1.7463
12669TIP3    H259423   1.725   1.299  14.184 -0.4211 -2.1718  1.2339
12670TIP3   OH259424   0.530   0.851   3.462 -0.0272  0.1119 -0.1795
12670TIP3    H159425   0.519   0.943   3.485  0.0932  1.0839 -3.7162
12670TIP3    H259426   0.451   0.809   3.497 -1.0365  1.9168 -0.1880
12671TIP3   OH259427   2.824   1.570  14.505  0.6395  0.2863  0.0482
12671TIP3    H159428   2.762   1.546  14.436 -0.8583  1.7192  0.8672
12671TIP3    H259429   2.833   1.665  14.497  0.7113  0.4244  1.6025
12672TIP3   OH259430   2.408   5.672  14.286 -0.6040  0.7376 -0.2531
12672TIP3    H159431   2.448   5.758  14.300 -1.8862  1.2647  0.1797
12672TIP3    H259432   2.460   5.633  14.215  0.5410  1.4951  0.1578
12673TIP3   OH259433   4.302   4.388  14.560  0.0650  0.1471  0.4549
12673TIP3    H159434   4.312   4.362  14.469  1.6214 -0.5647  0.8127
12673TIP3    H259435   4.289   4.483  14.557  1.1168  0.2730 -0.4482
12674TIP3   OH259436   3.411   1.342   3.722 -0.2473 -0.5695  0.2320
12674TIP3    H159437   3.365   1.408   3.670  0.5637 -0.3982 -0.2709
12674TIP3    H259438   3.412   1.379   3.811 -0.4747 -0.2590  0.1063
12675TIP3   OH259439   2.017   3.417  10.735  0.1957  0.5247 -0.4491
12675TIP3    H159440   2.013   3.493  10.793 -2.6526  1.7860 -2.1821
12675TIP3    H259441   2.042   3.452  10.650 -2.7415 -0.1529 -1.6574
12676TIP3   OH259442   1.329   6.393  11.507 -0.3772 -0.4283 -0.1475
12676TIP3    H159443   1.350   6.334  11.579  0.6063  1.8617  1.5246
12676TIP3    H259444   1.384   6.470  11.523 -2.1686  1.2469 -1.8275
12677TIP3   OH259445   6.623   6.674   4.586  0.5250  0.2086 -0.1529
12677TIP3    H159446   6.687   6.607   4.563  0.8144  0.9025 -1.3959
12677TIP3    H259447   6.675   6.745   4.624  0.5321  0.8565 -1.3460
12678TIP3   OH259448   1.916   4.364   0.794  0.1040  0.5136  0.3918
12678TIP3    H159449   1.978   4.337   0.726  0.8845  1.5391  0.6926
12678TIP3    H259450   1.958   4.438   0.837 -0.6107  0.1795  1.6830
12679TIP3   OH259451   1.484   2.989  13.786 -0.9703  0.5347  0.3535
12679TIP3    H159452   1.464   2.964  13.876  0.2936  1.5816  0.9571
12679TIP3    H259453   1.453   2.917  13.732 -2.2975  0.1757  1.5845
12680TIP3   OH259454   0.809   3.722   1.674 -1.0237  0.5702 -0.1143
12680TIP3    H159455   0.824   3.649   1.614 -2.6082  0.3988 -0.3427
12680TIP3    H259456   0.822   3.685   1.761 -1.2594  0.1515 -0.2547
12681TIP3   OH259457   1.223   6.120   0.109  0.3272 -0.3586 -0.3451
12681TIP3    H159458   1.168   6.118   0.187  0.6966  0.4038 -0.0730
12681TIP3    H259459   1.211   6.033   0.070  0.8439 -1.0538  1.0328
12682TIP3   OH259460   3.196   5.126  12.887  0.8980 -0.3199 -0.3780
12682TIP3    H159461   3.162   5.193  12.828  1.7124 -0.4358 -0.9866
12682TIP3    H259462   3.125   5.062  12.894  0.8549 -0.3966 -1.3863
12683TIP3   OH259463   4.332   3.090   0.544  0.1406  0.8568 -0.1767
12683TIP3    H159464   4.403   3.125   0.490  1.0696  0.2083  0.6099
12683TIP3    H259465   4.267   3.060   0.480  1.3901 -0.2527 -0.9663
12684TIP3   OH259466   2.877   2.974  11.212 -0.5477 -0.5169  0.1606
12684TIP3    H159467   2.816   3.010  11.277 -0.6484  0.5121 -0.4991
12684TIP3    H259468   2.820   2.950  11.138 -0.1344  0.5376 -0.4967
12685TIP3   OH259469   1.731   5.422  13.021 -0.0168 -0.4086  0.0140
12685TIP3    H159470   1.823   5.441  13.003  0.2841 -0.6814  1.2201
12685TIP3    H259471   1.690   5.508  13.034 -0.2906 -0.1899 -2.1169
12686TIP3   OH259472   5.698   6.103  13.182  0.3625  0.3635  0.2134
12686TIP3    H159473   5.604   6.089  13.197  0.0436  2.1246 -0.0077
12686TIP3    H259474   5.703   6.193  13.149  1.9670 -0.3688 -1.5486
12687TIP3   OH259475   4.009   3.290  11.697  0.2595 -0.0382  0.1474
12687TIP3    H159476   4.104   3.276  11.701  1.1210  4.8032 -0.0816
12687TIP3    H259477   3.990   3.348  11.770 -2.3239  0.1719 -0.6436
12688TIP3   OH259478   4.669   6.036  16.543 -0.0245  0.0849  0.6076
12688TIP3    H159479   4.648   6.086  16.622  1.3357 -0.2079  1.1725
12688TIP3    H259480   4.716   5.959  16.575 -0.1307 -0.4213 -0.4300
12689TIP3   OH259481   0.099   5.243   5.709 -0.3104  0.2749  0.1067
12689TIP3    H159482   0.011   5.231   5.746 -0.4736 -0.7186 -0.5941
12689TIP3    H259483   0.131   5.155   5.694  0.3552  0.6497 -0.7329
12690TIP3   OH259484   4.414   4.027   0.861  0.0875 -0.4493  0.0505
12690TIP3    H159485   4.500   4.070   0.857 -0.7291  1.1709 -0.7050
12690TIP3    H259486   4.395   4.020   0.955 -0.3067  1.9922  0.1797
12691TIP3   OH259487   2.408   1.194  16.064 -0.4425  0.6158 -0.3482
12691TIP3    H159488   2.407   1.098  16.071 -0.2247  0.6965  0.9647
12691TIP3    H259489   2.433   1.211  15.973  2.2305 -0.5623  0.1333
12692TIP3   OH259490   1.414   4.952  14.203  0.1381 -0.1432  0.0560
12692TIP3    H159491   1.485   4.923  14.145  0.3181 -1.2253  0.8197
12692TIP3    H259492   1.359   4.875  14.214  0.0468  0.0874  1.2500
12693TIP3   OH259493   6.443   6.713   4.311  0.4025  0.3142 -0.1149
12693TIP3    H159494   6.491   6.753   4.384 -0.0424 -1.0156  0.9244
12693TIP3    H259495   6.443   6.619   4.331  2.4583 -0.3795 -3.1336
12694TIP3   OH259496   3.549   3.199   3.846  0.4948 -0.0759  0.1510
12694TIP3    H159497   3.453   3.201   3.849  0.3251 -2.9929 -1.2898
12694TIP3    H259498   3.573   3.266   3.783 -0.6371  0.0577 -0.1455
12695TIP3   OH259499   1.045   4.046  12.747 -0.5753 -0.3015  0.3286
12695TIP3    H159500   1.136   4.017  12.738 -0.4427  0.4006 -0.7134
12695TIP3    H259501   0.999   3.970  12.784  0.0707 -1.3060 -0.8820
12696TIP3   OH259502   4.829   2.782   3.153 -0.2072 -0.1761  0.3582
12696TIP3    H159503   4.795   2.727   3.083  1.2071 -0.5608 -0.0419
12696TIP3    H259504   4.923   2.766   3.153  0.1376  1.7249  0.6863
12697TIP3   OH259505   1.629   3.235  16.277 -0.2751  0.4006  0.7758
12697TIP3    H159506   1.689   3.265  16.345  0.0202  0.8081  0.3467
12697TIP3    H259507   1.649   3.142  16.266  0.8480  0.7080  0.0758
12698TIP3   OH259508   6.653   0.782   0.807  0.1580  1.2879 -0.1232
12698TIP3    H159509   6.599   0.840   0.860  1.6040  1.2403  1.4419
12698TIP3    H259510   6.617   0.790   0.719 -2.1406  1.5273  0.8168
12699TIP3   OH259511   4.435   6.670  16.503 -0.3647  0.1878  0.2650
12699TIP3    H159512   4.367   6.644  16.565  1.4207 -1.4159  1.5971
12699TIP3    H259513   4.391   6.732  16.444 -3.5942 -2.5376 -0.3452
12700TIP3   OH259514   0.050   2.063   2.219 -0.2275 -0.3139 -0.5806
12700TIP3    H159515   0.089   2.150   2.231 -1.8701  0.3465  0.1239
12700TIP3    H259516   0.068   2.042   2.127 -1.1599  1.4767 -1.2102
12701TIP3   OH259517   5.343   3.990  13.701 -0.4930 -0.2872 -0.1624
12701TIP3    H159518   5.253   4.022  13.710 -0.6700 -1.0110  0.6802
12701TIP3    H259519   5.397   4.066  13.722 -0.9084  0.0856 -0.4349
12702TIP3   OH259520   3.398   2.434   4.340  0.2830 -0.6115 -0.4012
12702TIP3    H159521   3.443   2.507   4.382 -0.3237 -0.2661 -0.3448
12702TIP3    H259522   3.364   2.381   4.412 -0.6670 -0.0757 -0.4527
12703TIP3   OH259523   5.915   4.575  12.069  0.5720 -0.0999 -0.8232
12703TIP3    H159524   5.926   4.661  12.029  1.5978 -0.1200 -0.6037
12703TIP3    H259525   5.821   4.559  12.066  0.2012  1.6865  0.4926
12704TIP3   OH259526   3.570   0.948   0.501  0.5160 -0.1004  0.5142
12704TIP3    H159527   3.649   1.002   0.507  1.0881 -0.9512  0.6535
12704TIP3    H259528   3.499   1.012   0.498  1.2265  0.6869 -0.0541
12705TIP3   OH259529   5.867   4.054   0.745 -0.5883  0.0635 -0.4470
12705TIP3    H159530   5.827   4.132   0.783  1.0551  0.1698  1.1530
12705TIP3    H259531   5.936   4.088   0.689  1.2600 -0.2396  1.5838
12706TIP3   OH259532   1.213   0.863  13.609  0.5387 -0.2943  0.8744
12706TIP3    H159533   1.177   0.781  13.577  1.6019 -0.1683 -0.6690
12706TIP3    H259534   1.261   0.839  13.688  1.0063 -1.1908  0.3218
12707TIP3   OH259535   5.890   6.302  11.164  0.3315 -0.4292 -0.1155
12707TIP3    H159536   5.916   6.392  11.184 -0.4510 -0.1538 -0.3313
12707TIP3    H259537   5.797   6.299  11.187  0.2264 -1.0299 -0.6294
12708TIP3   OH259538   5.471   3.169   3.836 -0.1762  0.3105  0.3199
12708TIP3    H159539   5.514   3.206   3.758 -0.8366 -1.7197 -1.0424
12708TIP3    H259540   5.542   3.128   3.885  0.1906  1.3036  0.6442
12709TIP3   OH259541   2.090   4.744   2.566 -0.1528  0.3279 -0.1321
12709TIP3    H159542   2.103   4.732   2.660  0.4166 -0.2754 -0.2809
12709TIP3    H259543   2.130   4.828   2.546 -1.1117  0.9019  0.3279
12710TIP3   OH259544   1.307   0.489   2.264  0.1997 -0.0818  0.5390
12710TIP3    H159545   1.250   0.441   2.204  1.4476  0.1460 -0.8457
12710TIP3    H259546   1.331   0.426   2.331  0.2413 -0.8329 -0.1835
12711TIP3   OH259547   1.562   2.584   3.426  0.0186 -0.3230 -0.4735
12711TIP3    H159548   1.556   2.672   3.390  1.6836 -0.3734 -0.8933
12711TIP3    H259549   1.639   2.586   3.482 -1.5417 -0.7305  1.7848
12712TIP3   OH259550   3.011   3.604  14.403 -0.2518 -0.2067 -0.2083
12712TIP3    H159551   3.099   3.573  14.421 -0.1735  0.0074 -0.2182
12712TIP3    H259552   3.011   3.695  14.433 -0.2855 -0.0191 -0.7776
12713TIP3   OH259553   1.843   0.663  16.474  0.5830 -0.0930  0.0928
12713TIP3    H159554   1.881   0.642  16.559 -1.3003  0.3362  1.0813
12713TIP3    H259555   1.749   0.650  16.486  0.1471  1.3392 -1.5022
12714TIP3   OH259556   3.492   1.094   4.517  0.1640 -0.0530 -0.3949
12714TIP3    H159557   3.523   1.185   4.522  0.2221 -0.1062  0.3176
12714TIP3    H259558   3.431   1.086   4.591  0.4914 -0.7184 -0.1966
12715TIP3   OH259559   6.443   4.947   4.155 -0.2346 -0.4325 -0.7571
12715TIP3    H159560   6.468   4.894   4.231  1.1335  1.6628  0.2936
12715TIP3    H259561   6.432   4.884   4.085  0.2048 -2.2352  0.7529
12716TIP3   OH259562   1.931   3.666   4.623  0.1696  0.4081 -0.6289
12716TIP3    H159563   1.956   3.634   4.709 -2.1570 -0.0558 -0.1032
12716TIP3    H259564   1.957   3.759   4.623  1.1572  0.1436  0.1423
12717TIP3   OH259565   6.533   6.714  13.642 -0.1966 -0.2752 -0.1400
12717TIP3    H159566   6.442   6.727  13.670 -0.2848  0.8132 -0.9225
12717TIP3    H259567   6.585   6.758  13.710 -0.1922 -1.8530  0.9023
12718TIP3   OH259568   1.255   6.604  11.818 -0.3459 -0.4278  0.2445
12718TIP3    H159569   1.343   6.578  11.846 -0.1618  0.3309  0.3865
12718TIP3    H259570   1.196   6.553  11.873  0.0073 -0.6551  0.4147
12719TIP3   OH259571   6.523   2.014   3.217  0.3272 -0.0827  0.1166
12719TIP3    H159572   6.436   1.978   3.198  1.6787 -3.0563 -0.7560
12719TIP3    H259573   6.552   1.966   3.294  1.9248 -0.3845 -0.6645
12720TIP3   OH259574   2.018   4.169  12.596 -0.2286 -0.1819  0.4096
12720TIP3    H159575   2.096   4.156  12.651  0.0103 -2.1390 -0.3587
12720TIP3    H259576   2.050   4.222  12.523  0.9322 -2.7445 -1.0086
12721TIP3   OH259577   2.589   2.246  11.848  0.0250  0.4116  0.3157
12721TIP3    H159578   2.556   2.176  11.793 -0.6458  0.2743  0.8927
12721TIP3    H259579   2.665   2.208  11.892  0.6725  0.5775 -0.6397
12722TIP3   OH259580   1.071   0.333   0.789  0.1126 -0.1980  0.1962
12722TIP3    H159581   1.142   0.284   0.831  0.5182  1.2004  1.1836
12722TIP3    H259582   0.991   0.298   0.827  0.3418 -0.7000  0.2263
12723TIP3   OH259583   5.876   2.700  12.667  0.3564  0.2726  0.2712
12723TIP3    H159584   5.848   2.792  12.676 -0.6233 -0.0281  0.3281
12723TIP3    H259585   5.795   2.650  12.676  0.9170 -0.6079  0.3721
12724TIP3   OH259586   3.840   3.677   1.986  0.6469  0.0018 -0.0182
12724TIP3    H159587   3.835   3.769   1.961  0.9136 -0.2004 -0.8269
12724TIP3    H259588   3.748   3.648   1.992  0.5832 -0.4587 -2.6971
12725TIP3   OH259589   0.027   3.336   5.354  0.2430  0.2480  0.3026
12725TIP3    H159590   0.079   3.385   5.290  1.3052 -0.3359  0.7115
12725TIP3    H259591   0.036   3.244   5.327 -1.0193  0.1871  0.0611
12726TIP3   OH259592   0.815   1.787  15.217  0.0953  0.3250 -0.1850
12726TIP3    H159593   0.756   1.774  15.143  0.9027 -1.9800 -0.4791
12726TIP3    H259594   0.862   1.868  15.196 -1.3246  0.9529 -1.0406
12727TIP3   OH259595   0.090   6.142  12.331  0.3945  0.4800  0.0379
12727TIP3    H159596   0.056   6.110  12.247  2.1273 -2.1718  0.2972
12727TIP3    H259597   0.064   6.234  12.334 -2.1540 -0.1135 -2.1239
12728TIP3   OH259598   3.227   5.799   3.081  0.0312 -0.3438  0.7932
12728TIP3    H159599   3.147   5.845   3.108  0.3725 -0.5927  2.2809
12728TIP3    H259600   3.229   5.721   3.137 -0.2892 -1.9429 -1.3699
12729TIP3   OH259601   0.841   2.426   5.176  0.1553 -0.3404 -0.1905
12729TIP3    H159602   0.856   2.343   5.221 -0.0754 -0.5755 -0.5450
12729TIP3    H259603   0.759   2.459   5.213  1.5581  1.0001  1.8297
12730TIP3   OH259604   4.222   4.343  13.610  0.0238 -0.3062  0.4545
12730TIP3    H159605   4.224   4.274  13.544  0.7568 -0.9576  1.1418
12730TIP3    H259606   4.172   4.414  13.569 -2.4897 -1.9954  0.4924
12731TIP3   OH259607   0.283   4.850   3.381  0.1552 -0.1959  0.5576
12731TIP3    H159608   0.351   4.848   3.314 -1.0472  3.3300 -0.8682
12731TIP3    H259609   0.203   4.873   3.333 -1.0056  0.9201  2.9708
12732TIP3   OH259610   1.328   0.608  11.117  0.7474  0.5594 -0.1781
12732TIP3    H159611   1.283   0.591  11.034  0.0843 -1.1011  0.4886
12732TIP3    H259612   1.414   0.643  11.091 -0.5717  2.9627 -1.4723
12733TIP3   OH259613   2.756   6.635  16.120  0.0683  0.5347 -0.7080
12733TIP3    H159614   2.716   6.721  16.130 -0.0233  0.3922  0.2562
12733TIP3    H259615   2.848   6.652  16.103 -0.3679  0.8703 -2.8094
12734TIP3   OH259616   3.444   5.519   1.213  0.5228  0.3639 -0.3873
12734TIP3    H159617   3.428   5.534   1.119 -0.3852 -0.4309 -0.3639
12734TIP3    H259618   3.441   5.424   1.223 -0.5952  0.5014  0.6571
12735TIP3   OH259619   3.696   6.122   2.993  0.6363  0.1425  0.1462
12735TIP3    H159620   3.635   6.134   2.921  0.8223  0.4096  0.0294
12735TIP3    H259621   3.759   6.057   2.961  0.3188 -0.2540  0.3283
12736TIP3   OH259622   6.196   0.653   1.858 -0.0461  0.1912 -0.0168
12736TIP3    H159623   6.194   0.650   1.953 -1.7020 -0.4020 -0.0451
12736TIP3    H259624   6.250   0.578   1.832 -2.0038 -1.4200  0.4144
12737TIP3   OH259625   0.924   5.649   6.549  0.2788 -0.2963 -0.2628
12737TIP3    H159626   0.919   5.560   6.514  0.8830 -0.1645 -0.6858
12737TIP3    H259627   0.994   5.646   6.614 -1.1910 -0.6740  1.3583
12738TIP3   OH259628   0.373   1.307  11.347  0.2475 -0.0222  0.1341
12738TIP3    H159629   0.437   1.375  11.368  1.0544 -0.6604 -0.2834
12738TIP3    H259630   0.331   1.338  11.267 -0.3270  0.6345  0.6706
12739TIP3   OH259631   4.996   2.997  12.845 -0.1437  0.5991 -0.6906
12739TIP3    H159632   5.034   3.053  12.776 -0.1911  0.5952 -0.7186
12739TIP3    H259633   5.002   2.908  12.809  1.3433  0.4154 -0.0109
12740TIP3   OH259634   1.590   2.072  15.466  0.6900 -0.2813  0.0652
12740TIP3    H159635   1.505   2.115  15.467  1.0655  0.4731 -0.0725
12740TIP3    H259636   1.609   2.060  15.373 -0.5788 -3.1103  0.0988
12741TIP3   OH259637   1.461   2.374   0.140 -0.1748  0.1399  0.3559
12741TIP3    H159638   1.471   2.465   0.167  3.7429  0.1190 -0.6877
12741TIP3    H259639   1.516   2.325   0.202 -1.2149 -1.3501  0.1144
12742TIP3   OH259640   6.221   3.659  13.298 -0.1412 -0.2379 -0.9795
12742TIP3    H159641   6.155   3.710  13.345 -0.0183 -0.2104 -0.8366
12742TIP3    H259642   6.293   3.720  13.283 -0.5201 -0.0250 -1.9253
12743TIP3   OH259643   3.330   3.050   0.671  0.0889 -0.4176 -0.2079
12743TIP3    H159644   3.425   3.061   0.676  0.2179 -0.6710 -1.8693
12743TIP3    H259645   3.309   3.063   0.578 -1.4729 -0.5595  0.1119
12744TIP3   OH259646   6.054   6.198  16.900  0.3191  0.2480 -0.2449
12744TIP3    H159647   6.005   6.143  16.840 -1.1793  0.7262  0.5179
12744TIP3    H259648   6.135   6.150  16.916  0.6134 -0.0017 -2.4256
12745TIP3   OH259649   4.978   4.834  14.468 -0.2717 -0.1652  0.7399
12745TIP3    H159650   5.069   4.861  14.478 -0.3372  0.6051 -0.5610
12745TIP3    H259651   4.983   4.747  14.427 -0.1142 -0.4555  1.3720
12746TIP3   OH259652   6.485   6.311  13.062  0.3200 -0.5572 -0.1310
12746TIP3    H159653   6.393   6.284  13.065 -0.2610  1.4719  1.5890
12746TIP3    H259654   6.506   6.335  13.152  1.4180  2.6147 -1.1783
12747TIP3   OH259655   6.777   2.622  11.485  0.0099 -0.5393 -0.0336
12747TIP3    H159656   6.735   2.597  11.403  1.4622 -0.6519 -0.7535
12747TIP3    H259657   6.740   2.563  11.550 -1.5209 -0.1204 -0.5108
12748TIP3   OH259658   5.183   3.364  15.453  0.1828  0.5456 -0.0927
12748TIP3    H159659   5.181   3.391  15.361  0.5972 -0.3368 -0.3643
12748TIP3    H259660   5.195   3.269  15.450 -1.2438  0.3158  0.8456
12749TIP3   OH259661   4.234   1.037   6.325  0.4430  0.6556  0.3792
12749TIP3    H159662   4.281   1.055   6.407 -0.9990  1.9136  0.9579
12749TIP3    H259663   4.176   0.964   6.346  1.8430 -0.6580 -0.2339
12750TIP3   OH259664   4.428   0.870   1.987 -0.1617  0.0479  0.1679
12750TIP3    H159665   4.437   0.923   1.908  1.2875 -0.2606  0.1266
12750TIP3    H259666   4.361   0.805   1.965 -2.9199  2.5850  0.6297
12751TIP3   OH259667   0.614   0.560  13.277  0.4016  0.2324  0.0788
12751TIP3    H159668   0.673   0.548  13.351  0.6172  1.5874  0.1442
12751TIP3    H259669   0.625   0.481  13.224 -1.0350 -1.5599  2.3600
12752TIP3   OH259670   4.196   3.212  14.413  0.1227 -0.2729  0.2687
12752TIP3    H159671   4.117   3.165  14.442  1.5791 -2.8854  0.0981
12752TIP3    H259672   4.234   3.245  14.494 -1.7555  2.0709  0.2528
12753TIP3   OH259673   1.063   3.144  15.988 -0.1403  0.1811 -0.1226
12753TIP3    H159674   1.043   3.091  16.065  0.6141 -0.9114 -0.6788
12753TIP3    H259675   1.152   3.177  16.004 -0.4075  0.8698 -0.0203
12754TIP3   OH259676   1.101   3.623   4.367  0.1458  0.5886  0.0274
12754TIP3    H159677   1.088   3.596   4.458  1.1548  0.7501  0.2253
12754TIP3    H259678   1.195   3.612   4.352 -0.1530 -0.3009 -1.2727
12755TIP3   OH259679   2.247   1.156   2.262  0.1855 -0.0620  0.1575
12755TIP3    H159680   2.285   1.069   2.271 -0.3810 -0.4470 -1.1301
12755TIP3    H259681   2.248   1.191   2.351 -1.9109 -2.3766  1.1653
12756TIP3   OH259682   0.666   5.306   3.543  0.3826  0.6360 -0.0670
12756TIP3    H159683   0.659   5.392   3.502 -1.6130  0.2907 -0.5185
12756TIP3    H259684   0.638   5.320   3.633  0.9759  0.6304  0.1229
12757TIP3   OH259685   0.641   3.752   4.122  0.5654 -0.0577  0.5861
12757TIP3    H159686   0.699   3.700   4.177 -0.0535  0.4957  1.7711
12757TIP3    H259687   0.556   3.707   4.125  0.4388  0.1551  0.3474
12758TIP3   OH259688   1.273   2.692   6.087 -0.0394  0.4313 -0.1859
12758TIP3    H159689   1.264   2.761   6.152 -1.0259  0.6420 -0.5389
12758TIP3    H259690   1.260   2.736   6.003  1.6259  0.2389 -0.5663
12759TIP3   OH259691   4.018   2.579  15.597  0.1268 -0.3941 -0.5566
12759TIP3    H159692   4.016   2.674  15.607  2.5668 -0.3736 -0.0218
12759TIP3    H259693   4.072   2.563  15.520  1.9131 -1.4097  0.8626
12760TIP3   OH259694   2.586   1.837   2.122  0.2793  0.8270  0.3623
12760TIP3    H159695   2.595   1.919   2.170 -0.2672 -0.0127  1.9401
12760TIP3    H259696   2.518   1.789   2.169  1.6117 -1.1308  0.3486
12761TIP3   OH259697   1.247   1.462   5.032 -0.1344 -0.1185 -0.2185
12761TIP3    H159698   1.276   1.508   5.111 -0.2645  0.1113 -0.3056
12761TIP3    H259699   1.196   1.387   5.065  2.8911 -2.1585  0.0440
12762TIP3   OH259700   3.629   3.103   0.728  0.0863 -0.5432  0.0933
12762TIP3    H159701   3.666   3.018   0.750  0.7194 -0.2107  0.3310
12762TIP3    H259702   3.670   3.127   0.645  0.5269 -0.1115  0.4288
12763TIP3   OH259703   1.409   2.222  14.023  0.3972 -0.5343  0.1490
12763TIP3    H159704   1.419   2.302  13.972  1.9736 -0.2095  0.9535
12763TIP3    H259705   1.321   2.229  14.062 -0.1270  0.0149 -1.0941
12764TIP3   OH259706   5.791   1.093  13.926 -0.4411 -0.3046  0.2724
12764TIP3    H159707   5.750   1.013  13.894 -0.3065 -0.3773  0.2811
12764TIP3    H259708   5.718   1.154  13.939 -0.3824  0.1572 -1.4150
12765TIP3   OH259709   1.528   0.991   5.156  0.1383 -0.2544  0.5590
12765TIP3    H159710   1.572   0.934   5.219  0.8080 -1.4620 -0.9454
12765TIP3    H259711   1.498   1.066   5.207  0.2199 -1.4411  2.3871
12766TIP3   OH259712   2.020   2.096   0.118  0.2997  0.0813  0.1601
12766TIP3    H159713   2.020   2.005   0.089  0.9566 -0.3267  1.3815
12766TIP3    H259714   2.102   2.132   0.084  0.0251  0.2294 -0.3492
12767TIP3   OH259715   4.292   3.899  15.381 -0.0040 -0.3710  0.1361
12767TIP3    H159716   4.277   3.993  15.377 -1.7703 -0.6359 -0.2984
12767TIP3    H259717   4.220   3.862  15.330  1.1450 -1.9132 -0.3965
12768TIP3   OH259718   2.898   1.396   0.938  0.3708 -0.4327  0.5569
12768TIP3    H159719   2.935   1.402   0.849 -0.5437  0.9896  0.2435
12768TIP3    H259720   2.850   1.314   0.939  1.0392 -0.8332 -0.0196
12769TIP3   OH259721   1.944   6.768   0.862  0.0878 -0.1154  0.0824
12769TIP3    H159722   1.981   6.832   0.801  1.6254 -0.9147  0.1544
12769TIP3    H259723   1.874   6.815   0.907 -1.4790  0.3312 -2.7082
12770TIP3   OH259724   5.589   3.414   1.511  0.5074 -0.3431 -0.1280
12770TIP3    H159725   5.578   3.483   1.576 -1.2346  0.6543 -1.4546
12770TIP3    H259726   5.684   3.399   1.508  0.7605  0.8373  1.3358
12771TIP3   OH259727   3.769   6.223  15.425  0.1664 -0.2438 -0.2188
12771TIP3    H159728   3.815   6.168  15.361  1.1367 -1.0621  1.1428
12771TIP3    H259729   3.801   6.311  15.407  0.8954 -0.5523 -0.4765
12772TIP3   OH259730   1.008   6.710  14.990 -0.5323 -0.0879 -0.5474
12772TIP3    H159731   1.013   6.804  14.977  0.9967  0.0889  1.2352
12772TIP3    H259732   0.929   6.697  15.043  0.7212  0.4455  1.4654
12773TIP3   OH259733   2.179   3.888  14.151 -0.3712 -0.6118 -0.1938
12773TIP3    H159734   2.272   3.897  14.133 -0.7401 -0.0405 -1.9433
12773TIP3    H259735   2.161   3.949  14.222  0.0136  1.5422 -1.9040
12774TIP3   OH259736   5.208   5.218  11.045  0.4513 -0.2806  0.1645
12774TIP3    H159737   5.291   5.260  11.028  0.6124 -0.9785 -0.8233
12774TIP3    H259738   5.231   5.127  11.066 -0.0172 -0.3463  0.4002
12775TIP3   OH259739   0.433   0.327   4.935  0.3318  0.6982  0.1136
12775TIP3    H159740   0.508   0.379   4.906  1.3944 -0.3520  0.9179
12775TIP3    H259741   0.435   0.333   5.031 -0.5955  0.6553  0.1360
12776TIP3   OH259742   0.035   4.846  11.165 -0.7189 -0.0140  0.1973
12776TIP3    H159743  -0.053   4.877  11.145 -0.6760 -0.0385 -0.0289
12776TIP3    H259744   0.022   4.774  11.227 -0.8748 -0.2441 -0.1027
12777TIP3   OH259745   6.140   5.355  14.333 -0.3639  0.7445  0.4337
12777TIP3    H159746   6.127   5.416  14.260  1.6082  0.9069  0.1844
12777TIP3    H259747   6.082   5.282  14.314  1.7389 -0.2529 -2.5176
12778TIP3   OH259748   4.922   2.151   0.596 -0.3227  0.5236 -0.3476
12778TIP3    H159749   4.935   2.213   0.668  1.5054 -0.1487 -0.0749
12778TIP3    H259750   4.943   2.066   0.634 -1.0926 -0.0567 -1.2114
12779TIP3   OH259751   4.273   6.432   5.435 -0.1399  0.3510  0.6612
12779TIP3    H159752   4.199   6.426   5.496 -0.6226  0.9467  0.1422
12779TIP3    H259753   4.283   6.526   5.420 -0.6520  0.1646 -0.9449
12780TIP3   OH259754   0.525   6.473   6.125  0.4583 -0.1460  0.3891
12780TIP3    H159755   0.432   6.497   6.117  0.4316 -0.6094 -0.7335
12780TIP3    H259756   0.554   6.518   6.204 -1.0890 -1.1535  1.5565
12781TIP3   OH259757   5.609   4.709   2.901  0.2680  0.1365 -0.2368
12781TIP3    H159758   5.529   4.754   2.872 -0.5751 -0.0378  1.7116
12781TIP3    H259759   5.630   4.649   2.829 -0.8508  0.8128 -1.1571
12782TIP3   OH259760   3.337   1.825  16.236 -0.6064 -0.1271  0.3718
12782TIP3    H159761   3.343   1.860  16.324  1.0561 -2.4492  1.2485
12782TIP3    H259762   3.252   1.782  16.232 -1.4283  1.4922  0.2341
12783TIP3   OH259763   3.621   3.633   4.857 -0.3401  0.2317 -0.2756
12783TIP3    H159764   3.682   3.636   4.931 -2.2491  1.1607  1.3087
12783TIP3    H259765   3.577   3.549   4.866 -0.7829  0.4719 -0.1704
12784TIP3   OH259766   5.747   2.646  11.536  0.3863 -0.1194 -0.0438
12784TIP3    H159767   5.804   2.654  11.612  2.1029 -0.8672 -1.2320
12784TIP3    H259768   5.805   2.652  11.461 -1.1498 -0.4587 -1.2982
12785TIP3   OH259769   2.185   6.260   5.551 -0.0887 -0.6350 -0.2003
12785TIP3    H159770   2.214   6.179   5.510  2.3559  0.1479 -0.0959
12785TIP3    H259771   2.235   6.266   5.632 -2.0022 -0.1886  1.0052
12786TIP3   OH259772   1.963   4.513  12.738  0.0378  0.1242 -0.2240
12786TIP3    H159773   1.968   4.565  12.818 -2.0553 -1.7092  1.1624
12786TIP3    H259774   2.046   4.465  12.735  0.5511  0.9680  0.2807
12787TIP3   OH259775   6.075   2.747  11.728 -0.5287 -0.1373  0.2626
12787TIP3    H159776   6.140   2.765  11.660 -0.8442 -3.2057 -0.9334
12787TIP3    H259777   6.022   2.827  11.733  1.0600  1.0513 -1.2841
12788TIP3   OH259778   4.033   5.038  11.530 -0.4676 -0.0351 -0.6594
12788TIP3    H159779   4.047   4.977  11.603 -1.4879 -0.0943 -0.5142
12788TIP3    H259780   4.089   5.113  11.551  2.8825 -1.9730 -2.1398
12789TIP3   OH259781   6.213   1.061   2.676  0.4257  0.1816  0.1053
12789TIP3    H159782   6.147   1.028   2.737 -1.2218  2.3343 -0.4195
12789TIP3    H259783   6.290   1.079   2.730  0.4874 -2.0179  0.7973
12790TIP3   OH259784   2.243   5.344  13.865  0.7169  0.0507 -0.0139
12790TIP3    H159785   2.195   5.390  13.934 -1.2985 -3.3939  1.0616
12790TIP3    H259786   2.265   5.259  13.904  2.4371 -0.7277 -2.5329
12791TIP3   OH259787   5.357   2.818  13.273 -0.5432 -0.4092  0.0675
12791TIP3    H159788   5.315   2.900  13.296 -1.1419 -0.8255  0.4547
12791TIP3    H259789   5.285   2.759  13.251 -0.1081 -0.7733 -0.3908
12792TIP3   OH259790   0.619   1.145   4.429  0.4704  0.0312  0.2094
12792TIP3    H159791   0.622   1.142   4.333 -1.2150  2.4852  0.0428
12792TIP3    H259792   0.661   1.228   4.452 -1.4711  0.7212  1.4137
12793TIP3   OH259793   3.226   6.590   1.503 -0.3274 -0.0160  0.4326
12793TIP3    H159794   3.257   6.672   1.464  0.1128 -0.2251  0.3404
12793TIP3    H259795   3.137   6.579   1.469  0.8454 -1.3504 -2.3342
12794TIP3   OH259796   3.958   0.198   4.142  0.2979  0.1093  0.0290
12794TIP3    H159797   3.957   0.125   4.081 -1.8059  0.0493  0.0951
12794TIP3    H259798   3.889   0.177   4.206  0.2103  1.7484  0.4990
12795TIP3   OH259799   5.489   2.481   1.721 -0.1500 -0.2224 -0.0268
12795TIP3    H159800   5.513   2.394   1.751 -1.4062 -0.7029 -0.3573
12795TIP3    H259801   5.432   2.465   1.646 -0.0780  0.8871 -0.3210
12796TIP3   OH259802   0.977   4.041  16.908 -0.2493  0.7016 -0.2444
12796TIP3    H159803   1.006   4.132  16.899 -1.4067  1.0225 -0.7906
12796TIP3    H259804   0.924   4.041  16.988 -0.8451  0.6555 -0.6430
12797TIP3   OH259805   6.028   2.605  12.471  0.3369 -0.0934  0.3931
12797TIP3    H159806   5.958   2.639  12.526  0.3094 -1.1454  1.0285
12797TIP3    H259807   6.054   2.523  12.513  1.4771 -0.0617 -0.2195
12798TIP3   OH259808   6.744   5.699   3.938 -0.2738  0.4245  0.2172
12798TIP3    H159809   6.697   5.708   3.854 -0.1101 -1.8010 -0.1247
12798TIP3    H259810   6.836   5.710   3.915 -0.3053  0.8088  0.2689
12799TIP3   OH259811   1.634   6.644  13.063  0.5762  0.1412 -0.1458
12799TIP3    H159812   1.554   6.592  13.055  0.3921  0.5598 -1.1808
12799TIP3    H259813   1.605   6.728  13.099  0.3747  0.6794 -1.5343
12800TIP3   OH259814   2.865   5.074  10.684  0.3556 -0.2524  0.0751
12800TIP3    H159815   2.926   5.139  10.651  2.0864 -1.0503  1.6015
12800TIP3    H259816   2.843   5.103  10.772 -1.6016  0.1010 -0.5148
12801TIP3   OH259817   2.202   4.168  12.797 -0.6551 -0.2730 -0.0744
12801TIP3    H159818   2.185   4.237  12.862 -1.3165  0.2848 -0.8215
12801TIP3    H259819   2.210   4.088  12.848 -0.4634  0.2737  0.7609
12802TIP3   OH259820   2.262   4.115   0.219 -0.0806 -0.0298  0.3586
12802TIP3    H159821   2.223   4.179   0.159 -0.7972 -1.0903 -0.3240
12802TIP3    H259822   2.202   4.040   0.216  1.3473 -1.1936  0.2677
12803TIP3   OH259823   1.957   3.808   0.861  0.3731  0.2326  0.1206
12803TIP3    H159824   1.953   3.840   0.951 -0.2835 -0.9550  0.5310
12803TIP3    H259825   1.892   3.738   0.858  0.4827  0.1815 -1.2459
12804TIP3   OH259826   2.745   6.609   0.298  0.2718 -0.3078 -0.1212
12804TIP3    H159827   2.837   6.618   0.322 -0.0640  0.3712  0.9205
12804TIP3    H259828   2.742   6.531   0.243  1.6585  0.3438 -1.1536
12805TIP3   OH259829   5.121   3.728   4.699  0.4499 -0.1432 -0.1525
12805TIP3    H159830   5.186   3.724   4.770 -1.0578  0.8984  1.3274
12805TIP3    H259831   5.071   3.808   4.717 -0.4483 -0.2737 -1.9810
12806TIP3   OH259832   2.818   3.511   2.119 -0.2482  0.1361  0.4278
12806TIP3    H159833   2.795   3.419   2.102  2.0624 -0.3662 -0.0772
12806TIP3    H259834   2.877   3.535   2.048  0.7938  1.4007  1.6982
12807TIP3   OH259835   3.517   4.585   2.648  0.2381 -0.1755 -0.0186
12807TIP3    H159836   3.594   4.595   2.592  1.3288  0.2448  1.5279
12807TIP3    H259837   3.450   4.640   2.607  1.0067  0.1117 -0.9020
12808TIP3   OH259838   1.674   0.895   4.669  0.4532 -0.1756  0.3709
12808TIP3    H159839   1.687   0.983   4.635  0.6912  0.8607  3.0269
12808TIP3    H259840   1.583   0.895   4.698  0.7019 -0.5389  1.1452
12809TIP3   OH259841   3.704   3.466   4.263 -0.3917 -0.3722 -0.0498
12809TIP3    H159842   3.763   3.393   4.280 -1.4332 -1.1660  0.2004
12809TIP3    H259843   3.620   3.425   4.241 -1.2303  0.7448  0.9934
12810TIP3   OH259844   5.274   5.562  15.577 -0.1005  0.0136 -0.3619
12810TIP3    H159845   5.217   5.485  15.583  0.7127 -0.6024 -0.4652
12810TIP3    H259846   5.331   5.544  15.503  1.6961 -0.3699  1.0814
12811TIP3   OH259847   1.093   2.990   2.247  0.1219  0.1473  0.5173
12811TIP3    H159848   1.171   3.010   2.299  0.0806  1.3608  0.1227
12811TIP3    H259849   1.114   2.906   2.205 -0.0709 -1.1542  2.9146
12812TIP3   OH259850   0.413   4.096   5.466 -0.2393 -0.3256 -0.1834
12812TIP3    H159851   0.471   4.163   5.429 -0.9730  0.4024 -0.0350
12812TIP3    H259852   0.334   4.100   5.413 -0.9393  0.0903  0.8672
12813TIP3   OH259853   4.076   6.669   6.132 -0.4202 -0.2655 -0.5272
12813TIP3    H159854   4.158   6.702   6.168 -1.3605 -1.9778  3.4353
12813TIP3    H259855   4.008   6.708   6.187 -2.0604 -1.5599 -1.5745
12814TIP3   OH259856   0.627   1.569  16.742 -0.2453 -0.1961 -0.0736
12814TIP3    H159857   0.601   1.561  16.834 -0.7265 -1.4124 -0.3102
12814TIP3    H259858   0.548   1.548  16.693 -0.0208  0.5753 -0.7731
12815TIP3   OH259859   4.662   0.153  15.782  0.0499 -0.7678  0.2880
12815TIP3    H159860   4.614   0.222  15.736 -1.8393 -1.6109  0.9299
12815TIP3    H259861   4.715   0.112  15.714 -0.3330  0.0324 -0.5085
12816TIP3   OH259862   1.669   2.420   4.433  0.4391  0.0464  0.1853
12816TIP3    H159863   1.691   2.483   4.364 -0.4581  1.4996  1.1972
12816TIP3    H259864   1.576   2.402   4.421  0.3441  0.0860  0.8503
12817TIP3   OH259865   5.110   0.199  13.602  0.1743 -0.5720 -0.1138
12817TIP3    H159866   5.160   0.261  13.654  1.8692 -1.6880 -0.3648
12817TIP3    H259867   5.087   0.247  13.523  0.4855  0.1046  0.2081
12818TIP3   OH259868   3.505   3.721   4.153 -0.1721 -0.0693  0.2568
12818TIP3    H159869   3.595   3.738   4.180 -0.6753  2.2829  0.5349
12818TIP3    H259870   3.452   3.770   4.216 -1.5704  0.3874 -1.2516
12819TIP3   OH259871   1.316   4.850  13.013  0.5900 -0.0021 -0.3632
12819TIP3    H159872   1.237   4.844  13.066  0.0844  1.1225 -0.9777
12819TIP3    H259873   1.324   4.765  12.971 -0.2869 -0.1179 -0.2931
12820TIP3   OH259874   4.943   5.105   2.983  0.0526  0.1743 -0.1934
12820TIP3    H159875   5.006   5.162   3.027 -0.3380  0.1542  0.3899
12820TIP3    H259876   4.945   5.024   3.033 -0.2826  0.1000 -0.3034
12821TIP3   OH259877   5.149   0.286  10.518  0.1747 -0.0367 -0.2130
12821TIP3    H159878   5.198   0.223  10.466  1.2213  0.4830  0.1450
12821TIP3    H259879   5.170   0.371  10.480 -0.1681  0.2227  0.1702
12822TIP3   OH259880   0.429   5.222  10.085  0.0329  0.0657 -0.1625
12822TIP3    H159881   0.380   5.301  10.104  1.6331  1.0820 -0.2135
12822TIP3    H259882   0.474   5.201  10.166  0.5931 -0.0983 -0.5131
12823TIP3   OH259883   1.259   1.683  15.729 -0.0822 -1.0599  0.8935
12823TIP3    H159884   1.267   1.752  15.663  0.0876 -1.3832  0.5689
12823TIP3    H259885   1.180   1.705  15.777 -1.5869 -2.1445 -1.0080
12824TIP3   OH259886   4.249   0.944  15.935 -0.0269  0.2442  0.2980
12824TIP3    H159887   4.211   0.881  15.873 -1.7381  0.4968  1.0556
12824TIP3    H259888   4.318   0.895  15.979 -0.3288 -0.6446 -0.2002
12825TIP3   OH259889   5.506   2.679  12.959  0.1332 -0.0981  0.2836
12825TIP3    H159890   5.498   2.635  12.874  0.2828 -1.6113  1.0277
12825TIP3    H259891   5.598   2.705  12.964  0.2367 -0.4482  0.1928
12826TIP3   OH259892   2.939   5.359   5.098 -1.0258  0.6338  0.1291
12826TIP3    H159893   3.026   5.360   5.060 -2.5552  1.6393 -3.5328
12826TIP3    H259894   2.914   5.267   5.099 -0.5552  0.5000 -0.3180
12827TIP3   OH259895   1.029   3.104   3.651  0.1672 -0.2417 -0.2010
12827TIP3    H159896   1.090   3.034   3.629  0.2686 -0.1178 -0.3127
12827TIP3    H259897   0.977   3.117   3.571 -0.1274 -0.4753 -0.0452
12828TIP3   OH259898   3.051   3.529  12.370 -0.3403  0.0625 -0.5675
12828TIP3    H159899   3.120   3.587  12.401 -1.1391  1.9850 -2.2893
12828TIP3    H259900   3.096   3.448  12.346  0.9103  0.2870  0.9506
12829TIP3   OH259901   1.508   2.143  16.325  0.0762 -0.4479  0.5690
12829TIP3    H159902   1.506   2.051  16.352 -1.7226 -0.8446 -0.8736
12829TIP3    H259903   1.445   2.187  16.383  0.9301 -0.1089  1.2552
12830TIP3   OH259904   6.429   3.807  12.138  0.3500 -1.0278  0.0542
12830TIP3    H159905   6.377   3.791  12.216  0.6817 -1.8189  0.1209
12830TIP3    H259906   6.464   3.721  12.114  1.5614 -0.5309 -0.0293
12831TIP3   OH259907   6.706   1.833   4.912 -0.0271 -0.2886  0.0121
12831TIP3    H159908   6.790   1.789   4.896  0.4140  0.4752  0.2273
12831TIP3    H259909   6.698   1.897   4.841 -0.1076  0.1028  0.3713
12832TIP3   OH259910   4.691   6.174  16.798  0.1153 -0.5206 -0.1351
12832TIP3    H159911   4.603   6.191  16.763  0.2021 -1.1077 -0.6592
12832TIP3    H259912   4.742   6.250  16.772 -0.0208 -0.5905 -0.6173
12833TIP3   OH259913   3.453   3.203  13.783  0.5140  0.4381  0.0225
12833TIP3    H159914   3.365   3.238  13.791 -0.3228 -1.2749 -1.2505
12833TIP3    H259915   3.454   3.160  13.697  3.0468  1.6994 -0.6302
12834TIP3   OH259916   5.098   3.490  14.050  0.4130  0.0430  0.3139
12834TIP3    H159917   5.132   3.457  13.967 -1.0094 -2.3256  0.6138
12834TIP3    H259918   5.009   3.519  14.030  0.9665  1.9167  0.4808
12835TIP3   OH259919   6.020   0.244  11.370 -0.2971  0.3108  0.2998
12835TIP3    H159920   6.087   0.216  11.308 -1.9002 -2.4992 -0.2149
12835TIP3    H259921   5.985   0.325  11.332 -0.3670 -0.6828 -1.8167
12836TIP3   OH259922   4.591   2.745  13.819  0.0709 -0.4377  0.3732
12836TIP3    H159923   4.677   2.705  13.831 -0.1899 -0.7621  1.1521
12836TIP3    H259924   4.581   2.805  13.894  0.1300  0.5051 -0.3589
12837TIP3   OH259925   0.146   4.999   5.824  0.1988 -0.3673 -0.0313
12837TIP3    H159926   0.098   4.954   5.893 -1.3456 -0.4631 -1.1452
12837TIP3    H259927   0.214   5.048   5.870 -2.1250  1.2926  1.8044
12838TIP3   OH259928   3.639   6.008  13.424 -0.2556 -0.1859 -0.0969
12838TIP3    H159929   3.687   6.089  13.442 -0.0105 -0.2318 -0.5316
12838TIP3    H259930   3.561   6.038  13.376  0.0762 -0.2456 -0.6883
12839TIP3   OH259931   6.764   1.807   1.798  0.0748  0.4674 -0.4994
12839TIP3    H159932   6.816   1.795   1.719  1.3271 -1.4556  0.5632
12839TIP3    H259933   6.763   1.721   1.839 -2.6396  0.8523  0.3351
12840TIP3   OH259934   3.253   2.364  11.290 -0.4573 -0.4277  0.1313
12840TIP3    H159935   3.263   2.361  11.385  1.1287 -2.3982 -0.0699
12840TIP3    H259936   3.317   2.429  11.261 -2.1719  1.4911  0.5253
12841TIP3   OH259937   4.354   4.582   5.811 -0.6104 -0.0843  0.3828
12841TIP3    H159938   4.377   4.581   5.904  0.0074  1.2034  0.2500
12841TIP3    H259939   4.258   4.592   5.811 -0.7629 -1.4179  0.8839
12842TIP3   OH259940   6.455   2.901  16.232  0.2292 -0.0116 -0.5624
12842TIP3    H159941   6.414   2.828  16.279  0.0057  0.5664  0.1421
12842TIP3    H259942   6.381   2.954  16.202  0.4598  1.1908  0.9582
12843TIP3   OH259943   3.292   5.737   1.016 -0.3596  0.2088  0.5370
12843TIP3    H159944   3.205   5.703   1.039 -0.2977  1.5560  2.9524
12843TIP3    H259945   3.291   5.741   0.921 -3.2515  0.8418  0.5220
12844TIP3   OH259946   6.247   6.574  16.245 -0.5672 -0.3051 -0.0697
12844TIP3    H159947   6.236   6.512  16.317  1.7404  0.8229  1.2970
12844TIP3    H259948   6.291   6.649  16.284  0.5804  0.4068 -2.6277
12845TIP3   OH259949   3.747   5.779  15.663 -0.7169 -0.3145 -0.2974
12845TIP3    H159950   3.781   5.866  15.642 -1.0384 -0.4756 -1.4868
12845TIP3    H259951   3.820   5.719  15.644 -1.2194 -0.5269 -1.6154
12846TIP3   OH259952   1.895   1.706  10.566  0.4431  0.0075 -0.2166
12846TIP3    H159953   1.963   1.756  10.612 -0.8196  0.6165  0.9926
12846TIP3    H259954   1.857   1.769  10.505 -0.8437  0.4063  0.9909
12847TIP3   OH259955   2.884   3.447  17.092 -0.1204 -0.3582  0.1283
12847TIP3    H159956   2.949   3.447  17.022  0.0251 -1.8178  0.2306
12847TIP3    H259957   2.814   3.503  17.061  0.4024 -0.1936 -0.7541
12848TIP3   OH259958   5.038   0.686  11.020 -0.2133  0.3946 -0.6095
12848TIP3    H159959   5.060   0.604  11.063 -0.8789  0.7260  0.3740
12848TIP3    H259960   5.122   0.723  10.994  0.0262 -1.2303 -2.2835
12849TIP3   OH259961   6.671   3.039   4.643  0.5314 -0.5136 -0.4285
12849TIP3    H159962   6.764   3.019   4.635  1.0245  0.9481  1.4184
12849TIP3    H259963   6.627   2.954   4.646  1.8341 -1.2026 -0.9152
12850TIP3   OH259964   6.595   0.884   2.651 -0.4226  0.4667  0.3484
12850TIP3    H159965   6.549   0.846   2.576  1.1119  0.7213 -0.7445
12850TIP3    H259966   6.682   0.845   2.647 -0.1489  0.9409  1.6633
12851TIP3   OH259967   5.237   3.721   6.601 -0.1934  0.1674  0.4820
12851TIP3    H159968   5.143   3.736   6.610 -0.1316  0.5392  0.4994
12851TIP3    H259969   5.271   3.801   6.562  0.1018 -0.0046  0.3854
12852TIP3   OH259970   0.711   5.459  11.563 -0.4251 -0.0976  0.5099
12852TIP3    H159971   0.650   5.386  11.566 -1.5295  0.8468  1.6540
12852TIP3    H259972   0.773   5.442  11.633  0.9389 -1.2900 -0.9407
12853TIP3   OH259973   4.770   0.279  16.741  0.3068 -0.4748  0.0851
12853TIP3    H159974   4.721   0.357  16.715 -0.0569 -0.7733 -0.1280
12853TIP3    H259975   4.704   0.209  16.745  0.7555 -0.9357 -0.4623
12854TIP3   OH259976   5.648   1.536  15.913  0.4519  0.2106  0.6778
12854TIP3    H159977   5.597   1.604  15.957  0.1770 -0.6032  1.6274
12854TIP3    H259978   5.738   1.568  15.915  0.2338  0.8329  0.5758
12855TIP3   OH259979   6.460   3.316   6.306  0.1685 -0.2016 -0.0100
12855TIP3    H159980   6.528   3.384   6.303 -3.7094  3.9210  0.1762
12855TIP3    H259981   6.415   3.324   6.222 -1.5332 -1.3171  0.7691
12856TIP3   OH259982   0.071   5.954  10.466 -0.7045 -0.0707 -0.0688
12856TIP3    H159983   0.135   5.897  10.510 -0.6607 -0.1697 -0.2625
12856TIP3    H259984   0.014   5.984  10.537 -0.3334  0.1621  0.1301
12857TIP3   OH259985   4.160   5.256  17.048  0.4880  0.4635 -0.1445
12857TIP3    H159986   4.183   5.171  17.084 -0.2762 -0.1452 -1.0507
12857TIP3    H259987   4.207   5.261  16.965 -1.4788 -0.1945 -1.3355
12858TIP3   OH259988   2.438   2.010   0.315 -0.5415 -0.0457  0.0199
12858TIP3    H159989   2.501   1.939   0.310 -0.2329  0.2047  0.3097
12858TIP3    H259990   2.477   2.081   0.264 -0.8622 -0.0972 -0.2957
12859TIP3   OH259991   0.474   5.647   3.089  0.0948  0.6934 -0.1748
12859TIP3    H159992   0.420   5.630   3.166  0.8719  2.0440  0.7020
12859TIP3    H259993   0.412   5.676   3.022 -0.4331  0.8702  0.3806
12860TIP3   OH259994   3.074   0.269  10.018 -0.3677 -0.0433  0.5920
12860TIP3    H159995   3.055   0.355   9.980 -0.1777 -0.3670 -0.2576
12860TIP3    H259996   3.159   0.244   9.980 -1.1808 -1.3137 -0.4421
12861TIP3   OH259997   6.171   6.415  17.135 -0.2826  0.2830 -0.5442
12861TIP3    H159998   6.224   6.384  17.209 -0.2767  2.0984  0.2417
12861TIP3    H259999   6.142   6.336  17.091  1.8410 -0.7762 -0.0815
12862TIP3   OH260000   6.001   5.244   2.380 -0.0850 -0.1253  0.6901
12862TIP3    H160001   5.994   5.334   2.412  1.8446 -0.1961  1.3801
12862TIP3    H260002   5.911   5.218   2.362 -0.6243  2.1131  0.0008
12863TIP3   OH260003   6.243   5.616  15.438  0.1603 -0.6803 -0.0540
12863TIP3    H160004   6.332   5.634  15.407 -0.2019  1.6350  0.1150
12863TIP3    H260005   6.193   5.694  15.412 -0.9847 -0.2853  3.0856
12864TIP3   OH260006   3.741   6.070  15.110 -0.2313  0.6022  0.0590
12864TIP3    H160007   3.702   5.997  15.158 -1.4707  1.0582 -0.2545
12864TIP3    H260008   3.813   6.099  15.167  0.1830 -0.7643  0.2479
12865TIP3   OH260009   0.111   4.263  12.684 -0.3634 -0.8076 -0.0069
12865TIP3    H160010   0.063   4.300  12.757  2.1856  0.4457  1.0834
12865TIP3    H260011   0.132   4.174  12.711 -0.2436 -0.6515  0.4171
12866TIP3   OH260012   3.528   6.614  13.182  0.0521  0.5595 -0.2993
12866TIP3    H160013   3.616   6.576  13.185  0.3466  1.2796  0.5626
12866TIP3    H260014   3.542   6.702  13.146 -0.1948  0.9820  0.6303
12867TIP3   OH260015   2.604   4.036  16.918 -0.1833 -0.2677 -0.0113
12867TIP3    H160016   2.576   3.945  16.925 -1.2647  0.0602 -0.0698
12867TIP3    H260017   2.555   4.082  16.986  0.1494  0.3298 -0.1672
12868TIP3   OH260018   4.770   3.212   4.884  0.7889  0.0514 -0.4628
12868TIP3    H160019   4.770   3.246   4.795  2.8723 -0.8728 -0.8382
12868TIP3    H260020   4.817   3.130   4.879 -2.8839 -2.2692  0.7079
12869TIP3   OH260021   2.542   5.407   1.635 -0.5158 -0.3035 -0.4921
12869TIP3    H160022   2.536   5.317   1.665 -1.6861 -0.7012 -1.8814
12869TIP3    H260023   2.461   5.422   1.586 -1.1386  2.0148  1.1188
12870TIP3   OH260024   2.584   5.903  13.110  0.4119  0.3887  0.0101
12870TIP3    H160025   2.638   5.914  13.032  1.3170 -0.1900  0.5315
12870TIP3    H260026   2.584   5.808  13.125  0.0528  0.4765  0.5690
12871TIP3   OH260027   1.628   0.991   0.614  0.2925 -0.1258  0.2593
12871TIP3    H160028   1.641   1.082   0.585  0.0165 -0.2540 -0.2871
12871TIP3    H260029   1.652   0.938   0.538  1.2742 -0.5511  0.8590
12872TIP3   OH260030   4.553   6.127   5.162  0.3250 -0.3093 -0.5990
12872TIP3    H160031   4.568   6.182   5.239  1.3745 -0.9938 -0.2965
12872TIP3    H260032   4.560   6.188   5.088  0.9206  0.0721 -0.2375
12873TIP3   OH260033   3.056   4.730   4.149  0.2304  0.6176  0.5475
12873TIP3    H160034   3.115   4.689   4.212 -0.3852 -0.5199  0.3909
12873TIP3    H260035   2.976   4.748   4.198  1.1874  3.5663  1.1708
12874TIP3   OH260036   2.643   2.694   4.676  0.2054 -0.4924 -0.1568
12874TIP3    H160037   2.611   2.761   4.616  2.4055 -0.2372 -1.0711
12874TIP3    H260038   2.576   2.690   4.745 -1.0389  1.0537 -1.2407
12875TIP3   OH260039   2.938   4.193  15.637  0.2566  0.2151 -0.4429
12875TIP3    H160040   2.850   4.156  15.622  0.2578  0.2417 -0.5142
12875TIP3    H260041   2.985   4.123  15.682 -0.3906  0.8855  1.3202
12876TIP3   OH260042   3.444   2.967  13.963  0.1086 -0.1188  0.1495
12876TIP3    H160043   3.423   3.036  13.900  0.3491  0.7349  0.9960
12876TIP3    H260044   3.523   2.998  14.007 -0.2657 -0.5416  1.1291
12877TIP3   OH260045   6.578   5.853  13.471  0.1057  0.1638 -0.0194
12877TIP3    H160046   6.661   5.834  13.428 -0.2648 -0.6710 -0.3725
12877TIP3    H260047   6.539   5.922  13.417 -0.2416 -0.6989 -0.8835
12878TIP3   OH260048   4.299   5.648   3.421 -0.9860 -0.3668 -0.2006
12878TIP3    H160049   4.332   5.653   3.511 -1.1443 -0.6587 -0.1237
12878TIP3    H260050   4.211   5.610   3.431 -0.0315 -2.7952 -0.6874
12879TIP3   OH260051   5.403   0.407   3.275  0.6314  0.1168  0.4599
12879TIP3    H160052   5.412   0.458   3.355 -2.8430 -1.5868  2.0156
12879TIP3    H260053   5.333   0.449   3.226 -0.3589 -1.4870  0.4599
12880TIP3   OH260054   5.737   3.341  16.733  0.2245  0.3400 -0.0749
12880TIP3    H160055   5.798   3.366  16.802  0.5224 -0.0241 -0.2043
12880TIP3    H260056   5.666   3.405  16.740  0.7193  0.8915 -0.0659
12881TIP3   OH260057   3.456   5.999  10.508 -0.0036  0.0203  0.0338
12881TIP3    H160058   3.402   5.951  10.571 -2.5208  0.1267 -1.9682
12881TIP3    H260059   3.508   5.931  10.465 -1.4759 -0.5734 -0.8119
12882TIP3   OH260060   3.106   3.362   0.990 -0.3357 -0.5095  0.4379
12882TIP3    H160061   3.075   3.439   0.943  1.3038  0.9480  1.6895
12882TIP3    H260062   3.130   3.300   0.921 -1.8784 -0.0103 -0.5769
12883TIP3   OH260063   3.649   4.362   6.037 -0.0312 -0.1834 -0.2391
12883TIP3    H160064   3.587   4.289   6.043 -1.1288  0.7587  0.0200
12883TIP3    H260065   3.735   4.322   6.054 -0.6084 -1.4301 -0.2284
12884TIP3   OH260066   6.206   6.390  14.788 -0.0505  0.1804 -0.6000
12884TIP3    H160067   6.218   6.359  14.698  0.0021  1.0989 -0.9147
12884TIP3    H260068   6.124   6.350  14.816  0.2672 -0.6453 -0.8191
12885TIP3   OH260069   6.084   1.461   2.494 -0.5296 -0.4100  0.3218
12885TIP3    H160070   6.037   1.378   2.483  0.5742 -0.9509 -0.4260
12885TIP3    H260071   6.108   1.461   2.587 -0.7189 -0.8394  0.3754
12886TIP3   OH260072   5.205   3.562   6.333  0.6488  0.0697  0.4319
12886TIP3    H160073   5.166   3.489   6.382  0.0958  1.1923  1.6920
12886TIP3    H260074   5.168   3.641   6.373  1.3989  1.0609 -0.7760
12887TIP3   OH260075   5.887   6.303   3.899  0.0296  0.0927 -0.6162
12887TIP3    H160076   5.917   6.212   3.894  0.6337  0.2828 -0.4602
12887TIP3    H260077   5.797   6.300   3.867 -0.2047 -0.6820  0.0926
12888TIP3   OH260078   3.161   5.243   5.291 -0.1359 -0.3019 -0.1125
12888TIP3    H160079   3.121   5.250   5.378 -1.0572 -0.4582 -0.5253
12888TIP3    H260080   3.175   5.149   5.279 -1.1637 -0.3924 -0.6510
12889TIP3   OH260081   2.634   4.083  15.273  0.1112 -0.1179 -0.1596
12889TIP3    H160082   2.717   4.034  15.279 -0.0332 -0.5455 -1.4494
12889TIP3    H260083   2.586   4.059  15.352  1.9356  1.5017  1.5025
12890TIP3   OH260084   3.764   5.415   2.015 -0.0900  0.8082  0.2671
12890TIP3    H160085   3.761   5.320   2.003 -3.8560  0.4959  2.8023
12890TIP3    H260086   3.718   5.450   1.939  0.6080  0.5958 -0.2634
12891TIP3   OH260087   0.036   1.738   5.718 -0.0367  0.5035  0.4316
12891TIP3    H160088   0.046   1.747   5.623 -0.7332 -0.0066  0.3070
12891TIP3    H260089  -0.015   1.815   5.744  2.2353  1.9378  0.7527
12892TIP3   OH260090   4.750   6.380   4.455 -0.0886 -0.3347 -0.3578
12892TIP3    H160091   4.705   6.296   4.450  0.3611 -0.7066  1.4322
12892TIP3    H260092   4.694   6.440   4.407 -1.2860 -1.2905 -0.1946
12893TIP3   OH260093   3.925   0.589   2.105 -0.1153 -0.2713 -0.1594
12893TIP3    H160094   3.896   0.598   2.015  2.8771  1.5850 -1.0012
12893TIP3    H260095   3.878   0.657   2.153  0.6547  0.8103 -0.9349
12894TIP3   OH260096   4.152   1.988  12.665  0.1979  0.0158  0.6762
12894TIP3    H160097   4.166   1.959  12.755 -0.4030  0.9647  1.0906
12894TIP3    H260098   4.155   2.084  12.670 -0.7614  0.1012 -0.1429
12895TIP3   OH260099   2.354   0.946   0.489 -0.2356 -0.1642 -0.3060
12895TIP3    H160100   2.382   0.930   0.399 -0.0138 -1.8104  0.0527
12895TIP3    H260101   2.431   0.930   0.543  0.0059  2.1127  0.1032
12896TIP3   OH260102   2.440   5.864  13.361 -0.1783 -0.7356 -0.0279
12896TIP3    H160103   2.501   5.938  13.355 -0.3984 -0.4355  1.2382
12896TIP3    H260104   2.467   5.817  13.440 -0.9524 -1.1781 -0.0200
12897TIP3   OH260105   6.232   1.040  13.416  0.3090 -0.2842  0.0540
12897TIP3    H160106   6.257   0.973  13.479  0.2062  0.2483  0.6657
12897TIP3    H260107   6.165   0.998  13.362  1.5671 -1.2679 -0.7414
12898TIP3   OH260108   5.602   3.644   5.086  0.5406  0.3548 -0.1124
12898TIP3    H160109   5.592   3.570   5.027  2.6601  0.3224 -0.4707
12898TIP3    H260110   5.586   3.608   5.173 -1.6775  0.2060 -0.5402
12899TIP3   OH260111   2.762   2.440   1.750  0.9477 -0.6609 -0.0819
12899TIP3    H160112   2.676   2.473   1.777  2.0992  1.9313  0.5278
12899TIP3    H260113   2.744   2.391   1.670 -0.8795  1.2952 -0.9375
12900TIP3   OH260114   3.140   4.355  11.538 -0.2706  0.1035 -0.1238
12900TIP3    H160115   3.078   4.340  11.609  0.0435 -2.2069 -0.3055
12900TIP3    H260116   3.104   4.308  11.463 -0.0573  1.6390 -1.2265
12901TIP3   OH260117   0.369   1.707   4.865  0.2419  0.3044 -0.0273
12901TIP3    H160118   0.359   1.801   4.880 -0.8342  0.1757  0.0472
12901TIP3    H260119   0.437   1.680   4.928 -0.8220  0.6678  1.2939
12902TIP3   OH260120   3.979   1.439   4.327  0.1808  0.5403 -0.0798
12902TIP3    H160121   3.957   1.387   4.404  1.6352  0.6445  0.4246
12902TIP3    H260122   4.020   1.377   4.266 -1.2091  0.3984 -0.9083
12903TIP3   OH260123   2.940   1.583  13.486 -0.1718  0.6534 -0.1310
12903TIP3    H160124   2.935   1.677  13.500 -2.4829  0.5567 -0.0355
12903TIP3    H260125   2.861   1.562  13.435  0.5092 -1.1611 -0.4814
12904TIP3   OH260126   3.993   4.461  15.091 -0.6034 -0.3359 -0.0277
12904TIP3    H160127   4.060   4.442  15.025 -0.8362 -0.5935 -0.1891
12904TIP3    H260128   4.033   4.527  15.147  0.1691 -1.2396  0.4942
12905TIP3   OH260129   6.783   6.155  13.461 -0.3061 -0.1023  0.1190
12905TIP3    H160130   6.798   6.214  13.535  0.1861  0.1778 -0.2043
12905TIP3    H260131   6.866   6.155  13.413 -0.6763 -0.1556 -0.5303
12906TIP3   OH260132   0.167   1.417  14.881 -0.4636 -0.1224 -0.4382
12906TIP3    H160133   0.082   1.409  14.923  0.2296 -0.4848  0.9307
12906TIP3    H260134   0.210   1.489  14.927  0.6363 -1.0751  0.0607
12907TIP3   OH260135   5.045   4.473  11.433 -0.1500  0.2778 -0.1799
12907TIP3    H160136   4.988   4.501  11.505 -1.1224 -2.1166  0.0374
12907TIP3    H260137   5.100   4.405  11.471 -0.5072 -0.8385 -1.6041
12908TIP3   OH260138   3.468   2.361   2.704 -0.0605  0.5129  0.7737
12908TIP3    H160139   3.502   2.450   2.703 -0.7687  0.7881  0.8632
12908TIP3    H260140   3.413   2.358   2.783 -0.5050  0.1739  0.4513
12909TIP3   OH260141   4.581   3.869   3.184  1.1163 -0.0928 -0.6845
12909TIP3    H160142   4.596   3.832   3.097 -1.3378  1.3726 -1.7842
12909TIP3    H260143   4.662   3.850   3.232  1.3717 -3.5924 -2.2925
12910TIP3   OH260144   5.839   3.703   4.974 -0.1787 -0.0885 -0.5521
12910TIP3    H160145   5.912   3.704   5.036 -1.0055 -1.6199  0.5088
12910TIP3    H260146   5.761   3.715   5.029 -0.9390 -1.6676 -1.2387
12911TIP3   OH260147   2.147   2.786   5.705  0.9873 -0.4353  0.0900
12911TIP3    H160148   2.150   2.774   5.610  2.0679 -1.4891  0.2591
12911TIP3    H260149   2.129   2.699   5.740 -0.6119  0.1636  0.7960
12912TIP3   OH260150   4.317   0.243  14.280  0.0706 -0.2289 -0.2092
12912TIP3    H160151   4.273   0.326  14.297 -1.5421 -0.6142 -2.3272
12912TIP3    H260152   4.324   0.202  14.366 -1.3334  1.0079  0.5245
12913TIP3   OH260153   1.602   2.836  16.023  0.3109 -0.1023  0.0250
12913TIP3    H160154   1.680   2.801  15.979 -0.7527 -0.9137 -1.2655
12913TIP3    H260155   1.568   2.763  16.074  0.3921  0.2431  0.5684
12914TIP3   OH260156   1.450   6.345   1.624  0.4802  0.2909 -0.4332
12914TIP3    H160157   1.517   6.324   1.689 -0.9985  1.5623  1.5517
12914TIP3    H260158   1.483   6.424   1.581  0.2190  0.9813  0.6185
12915TIP3   OH260159   5.729   3.539  17.168  0.6845  0.2435  0.3120
12915TIP3    H160160   5.737   3.573  17.258  0.0365  0.4573  0.2912
12915TIP3    H260161   5.672   3.602  17.124 -0.1482 -0.6361  0.1418
12916TIP3   OH260162   1.497   6.093  13.214 -0.1572 -0.0177 -0.5658
12916TIP3    H160163   1.520   6.062  13.127 -0.2648 -3.2574  0.4855
12916TIP3    H260164   1.576   6.080  13.266 -1.0788 -1.2677  0.5665
12917TIP3   OH260165   2.882   3.545   4.139  0.4290 -0.4402 -0.2870
12917TIP3    H160166   2.891   3.634   4.105  0.4818 -0.4792 -0.3769
12917TIP3    H260167   2.955   3.535   4.201 -1.3229  0.6271  2.0400
12918TIP3   OH260168   4.689   5.498  10.774 -0.2518  0.4186 -0.0396
12918TIP3    H160169   4.761   5.509  10.713  1.2028  1.0725  1.7560
12918TIP3    H260170   4.618   5.551  10.738  0.0198 -0.5157 -2.0100
12919TIP3   OH260171   2.674   3.358  13.224  0.4285  1.0331  0.4059
12919TIP3    H160172   2.660   3.373  13.318 -0.7045  0.8443  0.2687
12919TIP3    H260173   2.588   3.372  13.184  0.9190  1.1634 -0.6145
12920TIP3   OH260174   2.507   6.608   3.212 -0.3478 -0.2117  0.3653
12920TIP3    H160175   2.465   6.687   3.245 -0.5714 -0.3158  0.3311
12920TIP3    H260176   2.435   6.546   3.198  0.0049 -1.0209  2.0058
12921TIP3   OH260177   2.179   3.907  13.703 -0.2516 -0.0451  0.0726
12921TIP3    H160178   2.163   3.998  13.678 -1.3041 -0.5482 -1.2039
12921TIP3    H260179   2.171   3.859  13.620  0.4080 -1.2733  0.7189
12922TIP3   OH260180   3.773   0.940   0.965 -0.3100  0.3677 -0.4339
12922TIP3    H160181   3.799   0.848   0.961 -0.7803  0.2948 -2.3133
12922TIP3    H260182   3.855   0.988   0.976  0.0577 -0.1998 -0.6923
12923TIP3   OH260183   5.416   1.310   2.291 -0.4715  0.2246 -0.0932
12923TIP3    H160184   5.499   1.268   2.267 -1.2492 -1.7868  0.6140
12923TIP3    H260185   5.417   1.312   2.386 -1.0518  0.5708 -0.0913
12924TIP3   OH260186   6.130   6.372   0.616 -0.0898  0.1518  0.0463
12924TIP3    H160187   6.199   6.433   0.589  0.8887  0.2279  2.5880
12924TIP3    H260188   6.164   6.286   0.590  0.3216  0.3176  0.0199
12925TIP3   OH260189   5.541   3.513  16.802  0.7414 -0.5859  0.0464
12925TIP3    H160190   5.553   3.581  16.736 -0.4611 -0.6264 -0.2257
12925TIP3    H260191   5.572   3.553  16.883 -0.7490  0.6158  0.0560
12926TIP3   OH260192   1.510   5.467   4.182  0.0269 -0.0672 -0.2738
12926TIP3    H160193   1.556   5.387   4.210 -0.0944  0.3609  1.1669
12926TIP3    H260194   1.573   5.511   4.125  1.7023  0.8241  2.1768
12927TIP3   OH260195   4.325   0.498  11.969  0.6719  0.0856  0.0290
12927TIP3    H160196   4.420   0.491  11.967  0.6972  0.1052  0.7785
12927TIP3    H260197   4.296   0.419  12.014  0.3766  0.3633  0.3301
12928TIP3   OH260198   1.481   0.219   0.638 -0.2220 -0.4827 -0.0549
12928TIP3    H160199   1.448   0.275   0.708  0.0440 -0.9139  0.4204
12928TIP3    H260200   1.408   0.160   0.619 -0.1323 -0.6806  0.1993
12929TIP3   OH260201   5.302   2.306  13.064 -0.5157  0.4814  0.5339
12929TIP3    H160202   5.256   2.226  13.087  1.2514 -1.1354 -1.4025
12929TIP3    H260203   5.337   2.290  12.976  0.0995  3.2732  0.2005
12930TIP3   OH260204   4.649   3.062  16.705  0.2531 -0.2406 -0.5869
12930TIP3    H160205   4.569   3.099  16.667  0.1667 -0.0399 -0.2045
12930TIP3    H260206   4.696   3.138  16.741  1.1964 -0.1839 -1.8826
12931TIP3   OH260207   3.170   3.292   2.712  0.0477  0.3946 -0.4640
12931TIP3    H160208   3.145   3.241   2.789 -2.3711  0.2019 -1.3282
12931TIP3    H260209   3.245   3.344   2.742  0.3160 -1.0246  1.4640
12932TIP3   OH260210   2.747   2.575   3.347 -0.1586 -0.1782  0.3128
12932TIP3    H160211   2.701   2.501   3.388 -0.1903 -2.3998 -3.4971
12932TIP3    H260212   2.703   2.587   3.263  3.3895  0.5088 -1.5581
12933TIP3   OH260213   1.536   5.841   2.932 -0.3430  0.3051 -0.0010
12933TIP3    H160214   1.449   5.878   2.940 -0.0249  1.1664 -0.3884
12933TIP3    H260215   1.523   5.746   2.935 -1.1515  0.4507  1.1887
12934TIP3   OH260216   1.358   4.392   2.679  0.3772  0.5369  0.3716
12934TIP3    H160217   1.412   4.315   2.661  0.2698  0.7796 -1.1030
12934TIP3    H260218   1.413   4.446   2.736  1.9174  0.9969 -1.4834
12935TIP3   OH260219   6.615   4.497  13.673 -0.2153  0.5154 -0.2673
12935TIP3    H160220   6.528   4.514  13.710  0.1473  1.0619  0.3518
12935TIP3    H260221   6.640   4.413  13.711 -1.7838 -1.2138 -2.9100
12936TIP3   OH260222   0.640   5.424  12.935  0.8230  0.3825  0.0371
12936TIP3    H160223   0.577   5.394  13.001  0.2922  2.9404  0.7339
12936TIP3    H260224   0.588   5.477  12.875  2.0408  1.2810 -0.2329
12937TIP3   OH260225   2.618   0.177  11.147 -0.5828 -0.4882  0.0407
12937TIP3    H160226   2.592   0.121  11.221 -0.1819 -1.7914 -0.7813
12937TIP3    H260227   2.541   0.178  11.091 -0.8048  0.3059  0.3632
12938TIP3   OH260228   5.586   2.342  10.881 -0.0554  0.0999 -0.7943
12938TIP3    H160229   5.548   2.343  10.793 -3.1055 -0.0307  0.4598
12938TIP3    H260230   5.575   2.432  10.912  0.3621 -0.0261 -0.2828
12939TIP3   OH260231   0.163   2.233   5.314 -0.0028  0.0981  0.4541
12939TIP3    H160232   0.254   2.208   5.329  0.6435  1.3415 -1.1872
12939TIP3    H260233   0.126   2.245   5.402  2.3306  2.7332  1.1330
12940TIP3   OH260234   5.927   3.222  12.063  0.1986 -0.0331  0.6041
12940TIP3    H160235   5.846   3.271  12.073 -1.3307 -2.3785  0.2885
12940TIP3    H260236   5.974   3.235  12.145 -1.3178 -0.0493  1.4984
12941TIP3   OH260237   0.052   5.830  13.402 -0.3383  0.1853 -0.3098
12941TIP3    H160238   0.110   5.753  13.399  0.3255  0.5632  2.0775
12941TIP3    H260239   0.050   5.855  13.495 -2.7520  1.3875 -0.6501
12942TIP3   OH260240   1.384   3.556  12.187  0.5275  0.6934 -0.1110
12942TIP3    H160241   1.480   3.559  12.185  0.4759  2.7953 -2.9123
12942TIP3    H260242   1.359   3.628  12.245  0.6490 -0.2979  1.1778
12943TIP3   OH260243   2.918   2.233  13.951  0.4805  0.5073  0.2300
12943TIP3    H160244   2.879   2.317  13.926 -1.0873 -0.4221 -0.5499
12943TIP3    H260245   2.992   2.256  14.007 -1.2266  2.3216  1.7964
12944TIP3   OH260246   0.080   4.819   2.419 -0.0903 -0.0571  0.1654
12944TIP3    H160247   0.088   4.764   2.497  0.1142 -0.7021 -0.3100
12944TIP3    H260248   0.007   4.782   2.370  0.6836 -0.5337 -0.6533
12945TIP3   OH260249   4.162   3.868   6.968  0.1625 -0.5115 -0.1055
12945TIP3    H160250   4.122   3.833   6.889  2.7679 -1.7654 -0.9295
12945TIP3    H260251   4.156   3.963   6.958 -2.2581 -0.6620 -0.3268
12946TIP3   OH260252   4.289   0.075  16.784 -0.2350  0.0199  0.5956
12946TIP3    H160253   4.252  -0.009  16.756 -0.3910  0.1842  0.3063
12946TIP3    H260254   4.225   0.140  16.756 -0.6151  0.1474  1.7615
12947TIP3   OH260255   3.943   5.704   4.528  0.4610  0.0232 -0.4212
12947TIP3    H160256   4.028   5.673   4.495  0.1383  0.3869 -1.6303
12947TIP3    H260257   3.962   5.790   4.566  0.6422  0.1195 -0.7227
12948TIP3   OH260258   6.708   5.468   2.842 -0.1084  0.2353  0.0860
12948TIP3    H160259   6.684   5.395   2.786  1.0964  0.1702 -0.3654
12948TIP3    H260260   6.796   5.493   2.813  1.0253 -0.5565  2.7156
12949TIP3   OH260261   4.453   5.945  11.082  0.8412 -0.1848  0.2921
12949TIP3    H160262   4.469   5.973  10.992  0.7972 -0.1189  0.3055
12949TIP3    H260263   4.474   5.852  11.082 -1.0915 -0.6376 -0.2532
12950TIP3   OH260264   1.246   2.344  14.232 -0.8732 -0.3984 -0.4203
12950TIP3    H160265   1.297   2.386  14.163  0.4199  0.7401  1.1715
12950TIP3    H260266   1.312   2.301  14.287 -1.6457  0.7022  1.4055
12951TIP3   OH260267   5.533   6.580   4.432 -0.3551 -0.2163 -0.4286
12951TIP3    H160268   5.538   6.671   4.402 -0.7333  0.0410  0.2883
12951TIP3    H260269   5.556   6.583   4.524 -1.2875 -0.7123 -0.1672
12952TIP3   OH260270   5.041   5.283   3.403 -0.1228  0.1306 -0.4227
12952TIP3    H160271   5.123   5.298   3.451 -0.2082  0.5856 -0.4179
12952TIP3    H260272   5.034   5.187   3.398 -1.2930  0.0184  2.4721
12953TIP3   OH260273   0.627   5.832  17.163  0.2548  0.0402 -0.5200
12953TIP3    H160274   0.645   5.738  17.166 -0.6085 -0.1172 -0.2403
12953TIP3    H260275   0.624   5.852  17.069  2.1018  0.1242 -0.5902
12954TIP3   OH260276   1.748   0.883  13.461  0.2515 -0.5954  0.1079
12954TIP3    H160277   1.759   0.977  13.449  0.7568 -0.4785  1.3920
12954TIP3    H260278   1.656   0.867  13.440  0.5414 -0.0649 -1.5964
12955TIP3   OH260279   2.581   5.640  14.610 -0.5339  0.8421  0.0587
12955TIP3    H160280   2.547   5.551  14.606  1.1531  0.2167 -1.2252
12955TIP3    H260281   2.522   5.691  14.554  0.0756 -0.0617 -1.4605
12956TIP3   OH260282   3.894   3.771   3.148 -0.3971  0.4845 -0.4337
12956TIP3    H160283   3.841   3.739   3.076 -1.4724  0.8778  0.1708
12956TIP3    H260284   3.956   3.833   3.108 -1.6426  1.4539 -0.8815
12957TIP3   OH260285   5.092   4.454   0.419  0.3613 -0.1015 -0.1750
12957TIP3    H160286   5.175   4.409   0.438  0.3357 -0.2247 -0.3651
12957TIP3    H260287   5.108   4.500   0.337  0.5876  0.7292  0.3243
12958TIP3   OH260288   4.448   2.690  11.918  0.2755 -0.4677 -0.5179
12958TIP3    H160289   4.509   2.654  11.982  0.6454  0.6471 -0.2309
12958TIP3    H260290   4.425   2.616  11.863 -1.4437 -1.8329  1.9826
12959TIP3   OH260291   1.379   3.361   0.418 -0.8345 -0.1305  0.4414
12959TIP3    H160292   1.301   3.327   0.373  0.9098 -1.2554 -1.8475
12959TIP3    H260293   1.425   3.282   0.448  0.5294  0.4303 -0.1621
12960TIP3   OH260294   5.285   4.359   3.614 -0.9722 -0.2838  0.0014
12960TIP3    H160295   5.337   4.375   3.693 -0.5332  0.8770 -0.5194
12960TIP3    H260296   5.336   4.294   3.565 -1.7661 -1.8058  1.1610
12961TIP3   OH260297   3.773   2.671  14.232 -0.2291 -0.4458  0.1840
12961TIP3    H160298   3.804   2.627  14.310 -1.2210  0.4903  1.1274
12961TIP3    H260299   3.840   2.653  14.166  1.6076  0.3724  1.7738
12962TIP3   OH260300   3.857   4.270   0.588 -0.2024 -0.7364 -0.0601
12962TIP3    H160301   3.816   4.195   0.629 -1.1811 -0.4764 -0.5468
12962TIP3    H260302   3.949   4.245   0.577  0.1498 -0.6745  2.5776
12963TIP3   OH260303   2.229   2.779  11.724 -0.1788  0.3412  0.0472
12963TIP3    H160304   2.296   2.744  11.665 -0.3878 -0.0619  0.0464
12963TIP3    H260305   2.184   2.845  11.672  0.0601  0.4442 -0.0315
12964TIP3   OH260306   3.563   3.513  14.050 -1.2100 -0.0823 -0.2785
12964TIP3    H160307   3.482   3.539  14.005 -1.5639 -1.4084 -0.4630
12964TIP3    H260308   3.537   3.435  14.100 -0.2242 -0.0508  0.2871
12965TIP3   OH260309   6.648   5.077   5.412 -0.2769 -0.0285  0.0750
12965TIP3    H160310   6.649   5.044   5.502  0.1497 -2.4017 -0.7565
12965TIP3    H260311   6.729   5.126   5.403 -0.6678  0.8294  1.1983
12966TIP3   OH260312   1.891   5.874   1.385 -0.0846 -0.0075 -0.0073
12966TIP3    H160313   1.978   5.885   1.348  1.1453  1.4155  3.1139
12966TIP3    H260314   1.857   5.963   1.394  0.4546 -0.1304  3.9419
12967TIP3   OH260315   0.974   6.567   0.192  0.0275  0.1669  0.1172
12967TIP3    H160316   1.018   6.608   0.117 -0.7237  2.1643  0.7403
12967TIP3    H260317   0.956   6.639   0.252 -2.0952 -0.9550  0.8773
12968TIP3   OH260318   3.994   4.668   1.753 -1.4157  0.3300 -0.7050
12968TIP3    H160319   3.900   4.660   1.770 -1.2160  1.0755  0.9067
12968TIP3    H260320   4.014   4.760   1.772  0.0934 -0.4043  1.5920
12969TIP3   OH260321   0.855   6.732  12.390 -0.1375  0.2390 -0.1168
12969TIP3    H160322   0.876   6.816  12.348 -0.8302  0.6489  0.3507
12969TIP3    H260323   0.927   6.718  12.452 -0.0649  0.5291 -0.1342
12970TIP3   OH260324   4.748   6.738   3.456  0.0261 -0.1216  0.3105
12970TIP3    H160325   4.821   6.679   3.443  0.1837 -0.0805  0.9832
12970TIP3    H260326   4.671   6.689   3.428  0.2871 -0.2207 -0.2427
12971TIP3   OH260327   1.662   4.999  14.122 -0.5598 -0.0237  0.1585
12971TIP3    H160328   1.740   5.009  14.176 -1.4289 -0.5917  1.5682
12971TIP3    H260329   1.613   5.081  14.136  0.5975  1.0712 -2.0959
12972TIP3   OH260330   2.160   5.175   2.885 -0.0926  0.3338 -0.3597
12972TIP3    H160331   2.225   5.120   2.840 -0.5356  0.6959 -1.4505
12972TIP3    H260332   2.168   5.261   2.843 -1.9823  0.1192 -1.2051
12973TIP3   OH260333   1.883   6.192   6.244 -0.1854  0.4226 -0.3144
12973TIP3    H160334   1.896   6.172   6.337  0.2291 -0.2921 -0.5278
12973TIP3    H260335   1.969   6.180   6.204 -0.8078 -1.3796 -1.1749
12974TIP3   OH260336   0.492   1.988  15.193 -0.4582 -0.4006 -0.2813
12974TIP3    H160337   0.406   1.947  15.196 -0.2055 -0.9005  0.2187
12974TIP3    H260338   0.491   2.050  15.266 -0.7276  0.2718 -0.8474
12975TIP3   OH260339   0.658   1.261  11.993  0.2975 -0.2472 -0.2272
12975TIP3    H160340   0.564   1.276  11.980 -0.0027 -0.1466  1.9778
12975TIP3    H260341   0.676   1.296  12.080  2.3152 -0.6382 -0.4689
12976TIP3   OH260342   0.272   5.762  11.480 -0.5141 -0.3670 -0.0588
12976TIP3    H160343   0.239   5.816  11.552 -2.1284 -0.3025 -0.8311
12976TIP3    H260344   0.329   5.698  11.523 -1.6681 -0.4946  1.3017
12977TIP3   OH260345   4.568   4.455  14.411 -0.1083 -0.3515 -1.0509
12977TIP3    H160346   4.521   4.395  14.353 -0.5475 -1.8516  0.8324
12977TIP3    H260347   4.642   4.404  14.444  0.4427  0.6646 -0.6991
12978TIP3   OH260348   1.310   6.183   0.450  0.1324  0.5655 -0.1530
12978TIP3    H160349   1.364   6.106   0.432 -0.6159  0.4879 -2.1177
12978TIP3    H260350   1.220   6.154   0.436 -0.1470  1.8389 -1.0907
12979TIP3   OH260351   1.644   3.873   4.527 -0.2083  0.2554 -0.0014
12979TIP3    H160352   1.701   3.929   4.579 -1.2688  1.3708 -0.0218
12979TIP3    H260353   1.702   3.834   4.462  0.4992  1.5309 -0.1563
12980TIP3   OH260354   2.623   3.372  11.589  0.1415 -0.0486 -0.6732
12980TIP3    H160355   2.531   3.378  11.613  0.2000 -2.5888  0.3301
12980TIP3    H260356   2.653   3.463  11.585 -1.9013  0.7310  0.9641
12981TIP3   OH260357   3.041   1.682  11.740  0.5310 -0.2333 -0.0705
12981TIP3    H160358   3.099   1.660  11.668 -0.6289  0.3910 -1.2043
12981TIP3    H260359   3.095   1.672  11.818  1.4789 -2.0217 -0.9336
12982TIP3   OH260360   0.986   1.135   1.278 -0.3423  0.0266  0.2369
12982TIP3    H160361   0.940   1.122   1.361 -0.0365  0.4231  0.4688
12982TIP3    H260362   1.060   1.074   1.283  0.5418  1.1310  0.9118
12983TIP3   OH260363   4.399   2.514  12.992  0.1900  0.1907  0.0299
12983TIP3    H160364   4.408   2.609  13.002  2.1099  0.0935 -0.6200
12983TIP3    H260365   4.340   2.504  12.917  0.5545  0.8658 -0.3559
12984TIP3   OH260366   0.567   4.335  17.026  0.4363  0.3762  0.1354
12984TIP3    H160367   0.618   4.281  16.966 -1.0739 -0.1576 -0.7123
12984TIP3    H260368   0.477   4.303  17.016  0.2321 -0.1657  3.1721
12985TIP3   OH260369   4.210   0.466  14.387 -0.0861  0.0183 -0.2816
12985TIP3    H160370   4.119   0.478  14.359  0.5214  0.6618 -2.0606
12985TIP3    H260371   4.258   0.537  14.342  0.8744  1.3616  2.7522
12986TIP3   OH260372   4.763   4.356  14.559 -0.0082  0.6066 -0.1566
12986TIP3    H160373   4.795   4.445  14.567  0.4644  0.5597 -1.3876
12986TIP3    H260374   4.841   4.301  14.563 -0.2710  0.2586  0.3501
12987TIP3   OH260375   0.267   6.471   0.697  0.3728  0.0039 -0.0292
12987TIP3    H160376   0.332   6.506   0.635  0.0465 -0.5474 -0.6878
12987TIP3    H260377   0.197   6.536   0.697 -1.0123 -1.4273 -2.5376
12988TIP3   OH260378   0.471   6.757   6.089  0.8311 -0.4521  0.5755
12988TIP3    H160379   0.402   6.784   6.029  0.3130 -2.5526  0.1815
12988TIP3    H260380   0.518   6.838   6.109 -0.1402  0.5856 -1.1719
12989TIP3   OH260381   2.501   2.505   6.003  0.4869 -0.2991  0.1323
12989TIP3    H160382   2.580   2.559   6.002  1.0331 -1.0813  0.0539
12989TIP3    H260383   2.470   2.508   6.093  0.2692  0.4994  0.0260
12990TIP3   OH260384   1.752   5.228   4.439  0.3058  0.0758  0.3250
12990TIP3    H160385   1.788   5.293   4.500 -0.0151 -0.6248  1.2736
12990TIP3    H260386   1.659   5.221   4.463  0.3257 -0.6912  0.1884
12991TIP3   OH260387   1.883   1.481  13.352  0.3777  0.3789 -0.4752
12991TIP3    H160388   1.826   1.453  13.281  0.2654  0.5419 -0.4513
12991TIP3    H260389   1.827   1.535  13.408  0.1817 -0.6229  0.3100
12992TIP3   OH260390   3.889   1.271   1.603 -0.4785  0.4624 -0.3379
12992TIP3    H160391   3.880   1.341   1.667  1.2815  1.2050 -0.8830
12992TIP3    H260392   3.799   1.246   1.582 -1.1283  2.7742 -0.3842
12993TIP3   OH260393   0.798   1.834  12.867 -0.7409 -0.3353  0.0139
12993TIP3    H160394   0.766   1.884  12.791 -0.2642 -0.7089 -0.4379
12993TIP3    H260395   0.892   1.823  12.850  0.0609  2.3713  2.2300
12994TIP3   OH260396   5.451   0.495   4.859  0.5348 -0.2565 -0.8797
12994TIP3    H160397   5.408   0.487   4.774 -0.9307 -0.6636 -0.1151
12994TIP3    H260398   5.537   0.532   4.839  0.6065 -1.3241 -2.6367
12995TIP3   OH260399   2.192   4.568  13.215 -0.3365  0.2858  0.5773
12995TIP3    H160400   2.152   4.583  13.129 -0.8041 -0.4232  0.6647
12995TIP3    H260401   2.240   4.649  13.234 -0.6372  0.6325 -0.1290
12996TIP3   OH260402   6.196   4.375   0.747  0.2230 -0.3956  0.2701
12996TIP3    H160403   6.245   4.358   0.666 -1.4835  0.7888 -1.0462
12996TIP3    H260404   6.164   4.289   0.774 -0.9882 -0.5526 -1.5307
12997TIP3   OH260405   0.098   0.278  11.112  0.7931  0.4177 -0.1267
12997TIP3    H160406   0.126   0.251  11.025  0.5608  0.7674 -0.3108
12997TIP3    H260407   0.010   0.241  11.121  1.3141 -0.6973  0.4610
12998TIP3   OH260408   0.906   3.524   2.481 -0.0315 -0.1707  0.1584
12998TIP3    H160409   0.810   3.519   2.490  0.1311 -1.5590  1.3198
12998TIP3    H260410   0.939   3.496   2.566  1.3999  2.5786  0.5789
12999TIP3   OH260411   6.235   0.317  16.803  0.3189  0.3692  0.0563
12999TIP3    H160412   6.296   0.383  16.770  1.8730 -2.2246 -2.3918
12999TIP3    H260413   6.162   0.369  16.838  1.3577  3.4034 -2.0230
13000TIP3   OH260414   0.066   5.820   2.460  0.5020 -0.3261 -0.4105
13000TIP3    H160415   0.091   5.728   2.448  0.4155 -0.2183 -1.4455
13000TIP3    H260416   0.147   5.869   2.448  0.5907 -0.2831  0.3649
13001TIP3   OH260417   6.394   5.525  16.580  0.0186  0.9602 -0.0548
13001TIP3    H160418   6.300   5.514  16.590 -0.0074  0.2310 -0.9351
13001TIP3    H260419   6.404   5.600  16.522  0.0351  2.0601  1.3461
13002TIP3   OH260420   1.216   6.674  12.739  0.1913  0.4096  0.4236
13002TIP3    H160421   1.276   6.602  12.759 -2.1949 -1.7976 -0.1098
13002TIP3    H260422   1.256   6.720  12.666  0.7328 -1.6843 -0.6151
13003TIP3   OH260423   3.708   2.114  12.315 -0.2456 -0.3031  0.7310
13003TIP3    H160424   3.714   2.207  12.336  1.2127 -0.3931  0.8002
13003TIP3    H260425   3.644   2.078  12.376 -0.9378  0.6908  0.5842
13004TIP3   OH260426   2.531   3.261   0.504 -0.1151  0.3606  0.3632
13004TIP3    H160427   2.622   3.238   0.522  0.3529  1.3228 -0.7317
13004TIP3    H260428   2.531   3.292   0.413 -1.5230  0.4366  0.3740
13005TIP3   OH260429   0.513   2.175   1.335 -0.2142  0.0657  0.3470
13005TIP3    H160430   0.585   2.236   1.318 -0.0089 -0.2122  0.2188
13005TIP3    H260431   0.466   2.214   1.409  0.7914 -0.3899  1.2368
13006TIP3   OH260432   1.177   0.249  16.109  0.0065  0.3415  0.6831
13006TIP3    H160433   1.094   0.217  16.145  0.0881  0.2828  0.8161
13006TIP3    H260434   1.166   0.345  16.108 -0.9148  0.2378 -1.3285
13007TIP3   OH260435   4.316   5.529   5.212  0.2798  0.0897  0.5582
13007TIP3    H160436   4.371   5.492   5.143  1.2506  0.3354  1.1989
13007TIP3    H260437   4.354   5.615   5.230 -1.6441  1.2259 -0.5511
13008TIP3   OH260438   0.887   4.764  10.980 -0.9725  0.4614  0.0839
13008TIP3    H160439   0.894   4.708  11.058 -0.4277 -0.0827 -0.3500
13008TIP3    H260440   0.847   4.845  11.012 -1.2155  0.0516  0.8359
13009TIP3   OH260441   2.685   4.032   0.394  0.2510 -0.0733 -0.0352
13009TIP3    H160442   2.671   3.961   0.332 -0.5607  2.1320 -2.4684
13009TIP3    H260443   2.703   4.108   0.339  1.2355  1.5770  2.5040
13010TIP3   OH260444   5.636   5.462   0.324  0.6956  0.0554 -0.1243
13010TIP3    H160445   5.708   5.409   0.358 -1.0577  0.8166  5.1775
13010TIP3    H260446   5.666   5.552   0.334 -0.4617  0.3357  0.8840
13011TIP3   OH260447   2.531   4.634   2.185 -0.6618 -0.1826 -0.3346
13011TIP3    H160448   2.524   4.539   2.193  1.8365 -0.3186  0.6250
13011TIP3    H260449   2.615   4.649   2.141 -1.9708  1.5429 -2.3884
13012TIP3   OH260450   3.932   0.782  16.545 -0.1661 -0.8052  0.2357
13012TIP3    H160451   3.854   0.831  16.571  0.1335 -1.1951  1.9365
13012TIP3    H260452   3.971   0.833  16.475  0.3068  1.5446  2.1677
13013TIP3   OH260453   2.325   0.879   1.670  0.4329 -0.7240 -0.1607
13013TIP3    H160454   2.400   0.839   1.626  0.5414 -1.7883  0.9812
13013TIP3    H260455   2.303   0.955   1.615  2.5171 -0.2274 -0.3592
13014TIP3   OH260456   5.075   4.272  11.083 -0.4106  0.4642 -0.1597
13014TIP3    H160457   5.153   4.293  11.033 -1.6543 -0.0831 -2.3785
13014TIP3    H260458   5.040   4.194  11.041 -3.1298  1.7212 -0.3024
13015TIP3   OH260459   3.826   1.810   3.387 -0.4262 -0.2826  0.2163
13015TIP3    H160460   3.843   1.781   3.297  0.9579  0.2429  0.2977
13015TIP3    H260461   3.877   1.890   3.397  1.5274 -1.7216  2.2959
13016TIP3   OH260462   6.222   0.971  16.919  0.2137  0.2633 -0.0587
13016TIP3    H160463   6.252   1.061  16.931 -0.7598  0.7169 -0.9580
13016TIP3    H260464   6.244   0.951  16.828 -1.5891  0.3757 -0.5361
13017TIP3   OH260465   1.515   3.282   1.768 -0.1622  0.2301  0.2068
13017TIP3    H160466   1.453   3.342   1.726  1.5082  2.0365  0.2397
13017TIP3    H260467   1.587   3.338   1.796  1.4254 -1.7985  0.3102
13018TIP3   OH260468   2.711   4.232   0.187 -0.0765  0.0271 -0.2015
13018TIP3    H160469   2.756   4.239   0.103 -0.5839  0.0603 -0.4718
13018TIP3    H260470   2.698   4.323   0.214 -0.0263  0.0178 -0.1440
13019TIP3   OH260471   6.647   0.745   4.232 -0.4229  0.2652 -0.1322
13019TIP3    H160472   6.558   0.780   4.245 -0.7644 -0.7529  0.3028
13019TIP3    H260473   6.691   0.812   4.180 -1.6539  0.4670 -0.9509
13020TIP3   OH260474   0.638   4.301   2.997 -0.3804 -0.1366 -0.3614
13020TIP3    H160475   0.672   4.386   2.970  1.5552 -0.7875 -0.0285
13020TIP3    H260476   0.616   4.257   2.915 -1.3189  0.6408 -0.5389
13021TIP3   OH260477   5.483   4.520  13.458  0.3521 -0.2528 -0.2093
13021TIP3    H160478   5.405   4.477  13.494  0.2909  0.1922  0.1851
13021TIP3    H260479   5.476   4.506  13.364  1.3283 -2.8102  0.0468
13022TIP3   OH260480   1.344   1.306   3.112  0.5569 -0.2123 -0.2512
13022TIP3    H160481   1.298   1.389   3.123  1.9277  0.5312 -0.0544
13022TIP3    H260482   1.379   1.309   3.024  1.1219 -0.3299 -0.0311
13023TIP3   OH260483   6.677   1.878   6.022 -0.0260  0.0101  0.1694
13023TIP3    H160484   6.646   1.788   6.029  2.5439 -0.8979  0.6351
13023TIP3    H260485   6.695   1.890   5.929 -0.9597  0.2544  0.0195
13024TIP3   OH260486   3.646   4.781   4.450  0.1577  0.0794 -0.2322
13024TIP3    H160487   3.693   4.722   4.391  0.4626  0.5205 -0.4281
13024TIP3    H260488   3.558   4.744   4.455  1.5442 -3.0261  3.2120
13025TIP3   OH260489   2.777   6.280   5.455 -0.7017 -0.2844 -0.3858
13025TIP3    H160490   2.820   6.273   5.541 -0.0795  0.2575 -0.6457
13025TIP3    H260491   2.849   6.273   5.392 -0.8568  1.6315 -0.8043
13026TIP3   OH260492   1.611   4.445   0.365 -0.2186 -0.0949  0.1514
13026TIP3    H160493   1.638   4.381   0.299 -2.6345  1.2401 -2.2707
13026TIP3    H260494   1.658   4.525   0.342 -0.5856  0.1992  0.4046
13027TIP3   OH260495   4.644   3.449  15.837  0.2834  0.4207  0.5778
13027TIP3    H160496   4.634   3.545  15.835 -0.1751  0.3826  0.9609
13027TIP3    H260497   4.709   3.434  15.906  0.2342  0.4450  0.6303
13028TIP3   OH260498   5.562   6.429   1.674 -0.2473  0.7547 -0.0961
13028TIP3    H160499   5.600   6.462   1.593 -0.1920  2.7026  0.6982
13028TIP3    H260500   5.616   6.353   1.697  1.4590  1.8282 -0.4385
13029TIP3   OH260501   4.141   6.389   4.584  0.5987 -0.0576  0.1633
13029TIP3    H160502   4.129   6.483   4.569  0.0890 -0.4641 -2.2194
13029TIP3    H260503   4.134   6.378   4.679 -0.7253  2.1314  0.3414
13030TIP3   OH260504   4.195   5.834  11.299 -0.0679  0.5066 -0.4701
13030TIP3    H160505   4.280   5.879  11.295  0.0407  0.4443  1.0516
13030TIP3    H260506   4.210   5.760  11.358 -0.9367 -0.0647 -0.9568
13031TIP3   OH260507   0.995   2.489  11.174 -0.2857 -0.0869 -0.0402
13031TIP3    H160508   0.991   2.552  11.246 -1.7901 -0.8516  0.5821
13031TIP3    H260509   1.009   2.405  11.218 -0.3354 -0.4479 -0.7174
13032TIP3   OH260510   0.502   4.937   1.176  0.3292  0.2722  0.4320
13032TIP3    H160511   0.580   4.889   1.204  0.5043 -0.2590 -0.8948
13032TIP3    H260512   0.516   4.952   1.082 -1.3986 -0.2866  0.0723
13033TIP3   OH260513   4.291   2.759   2.660 -0.4362  0.5691 -0.2189
13033TIP3    H160514   4.378   2.729   2.633 -0.0100  0.5807  1.0916
13033TIP3    H260515   4.262   2.816   2.589  0.1585 -0.3010 -1.1711
13034TIP3   OH260516   3.010   3.365   3.070  0.4141 -0.1707 -0.1154
13034TIP3    H160517   2.953   3.295   3.099  0.0136  0.4225  0.5605
13034TIP3    H260518   2.954   3.443   3.068  1.2394  0.4743  0.8345
13035TIP3   OH260519   1.012   6.719  16.406  0.1711 -0.2016 -0.1146
13035TIP3    H160520   0.919   6.696  16.411  0.1783  0.0278  1.1014
13035TIP3    H260521   1.042   6.718  16.497  1.4762 -0.7515 -0.5385
13036TIP3   OH260522   2.991   5.574  14.403  0.0907 -0.1252 -0.2343
13036TIP3    H160523   3.079   5.562  14.436 -0.0283 -2.0582 -0.5344
13036TIP3    H260524   3.001   5.632  14.328  0.7358  1.8415  1.3435
13037TIP3   OH260525   1.550   1.734  12.936  0.1307  0.2063  0.8663
13037TIP3    H160526   1.634   1.712  12.896 -0.1019 -0.7322  0.8931
13037TIP3    H260527   1.528   1.820  12.900  2.1613  1.4820  2.5288
13038TIP3   OH260528   5.753   5.703   0.370  0.1750 -0.3223  0.6911
13038TIP3    H160529   5.824   5.768   0.369  0.8352 -1.0320 -1.2742
13038TIP3    H260530   5.700   5.725   0.294 -0.7131 -0.8885  1.1463
13039TIP3   OH260531   2.329   4.522  15.506 -0.2727 -0.4991 -0.0089
13039TIP3    H160532   2.239   4.498  15.482 -0.6647  1.3444 -0.5147
13039TIP3    H260533   2.357   4.455  15.567 -2.0458 -1.0460  0.2208
13040TIP3   OH260534   2.563   5.969   4.547 -0.0747 -0.2028 -0.0278
13040TIP3    H160535   2.484   5.969   4.600  0.0345 -2.2111  0.1755
13040TIP3    H260536   2.633   5.947   4.608  0.3666 -0.2961 -0.5648
13041TIP3   OH260537   5.106   5.572   0.272 -0.4992 -0.5820  0.0596
13041TIP3    H160538   5.045   5.593   0.201 -1.7115  1.5171  1.6592
13041TIP3    H260539   5.050   5.565   0.350  1.2472  1.1189  1.5059
13042TIP3   OH260540   5.715   3.624   6.136 -0.2552 -0.0199 -0.2557
13042TIP3    H160541   5.799   3.670   6.131 -0.1166 -0.3693 -1.2188
13042TIP3    H260542   5.713   3.589   6.225  1.4526 -1.5689 -0.7919
13043TIP3   OH260543   1.435   3.345  11.729  0.3260 -0.0335 -0.1790
13043TIP3    H160544   1.421   3.440  11.729 -1.3661 -0.2542  1.7044
13043TIP3    H260545   1.485   3.328  11.809  0.6986 -0.7205 -0.5557
13044TIP3   OH260546   6.694   0.885   1.603  0.1574 -0.5150 -0.4355
13044TIP3    H160547   6.702   0.957   1.666 -0.2060 -0.2974 -0.6335
13044TIP3    H260548   6.695   0.928   1.518 -0.7894 -0.6839 -0.5330
13045TIP3   OH260549   6.770   3.872   0.493 -0.0721  0.0990  0.1015
13045TIP3    H160550   6.765   3.844   0.402  1.8060  0.5418 -0.1447
13045TIP3    H260551   6.714   3.949   0.498 -1.1129 -0.6134 -0.3983
13046TIP3   OH260552   2.190   3.122   1.844  0.1150 -0.0856 -0.1745
13046TIP3    H160553   2.225   3.042   1.884  0.2037  0.7220  1.4177
13046TIP3    H260554   2.111   3.093   1.797 -0.8160 -0.8762  1.8061
13047TIP3   OH260555   1.246   2.697   3.037 -0.2928 -0.3369 -0.1944
13047TIP3    H160556   1.258   2.774   2.983  1.5081  1.2882  2.4122
13047TIP3    H260557   1.312   2.635   3.007  0.0264  0.1566 -0.5063
13048TIP3   OH260558   6.218   4.293  10.909 -0.2126 -0.1859  0.2221
13048TIP3    H160559   6.147   4.355  10.890  0.5950  1.1772  1.5235
13048TIP3    H260560   6.269   4.289  10.828 -0.4106  0.6860  0.0491
13049TIP3   OH260561   2.027   5.264   0.893 -0.4427  0.5106  0.1856
13049TIP3    H160562   2.047   5.204   0.965 -1.0175  1.3831  1.0975
13049TIP3    H260563   2.105   5.319   0.885  0.5175 -1.0452 -1.3789
13050TIP3   OH260564   1.730   6.456  17.021 -0.5847 -0.6132  0.3393
13050TIP3    H160565   1.657   6.437  16.961 -0.0846  0.2227 -0.5553
13050TIP3    H260566   1.704   6.536  17.066 -0.9118 -1.1836  1.1765
13051TIP3   OH260567   0.706   6.394  11.506  0.2369 -0.0541  0.0009
13051TIP3    H160568   0.651   6.439  11.570  0.8973 -0.7554  1.0949
13051TIP3    H260569   0.715   6.456  11.434 -0.7150  0.6628  0.4861
13052TIP3   OH260570   5.526   3.795  13.242 -0.4117  0.0795  0.6077
13052TIP3    H160571   5.473   3.831  13.313  1.0322  1.4731  0.9983
13052TIP3    H260572   5.506   3.851  13.167  0.6308  0.7125  0.8000
13053TIP3   OH260573   2.728   4.894   3.339 -0.2255  0.2569  0.0674
13053TIP3    H160574   2.751   4.946   3.416  2.2578 -0.8744  0.1189
13053TIP3    H260575   2.764   4.943   3.265 -0.2309 -0.0347 -0.1288
13054TIP3   OH260576   3.076   4.806   5.788 -0.1619 -0.6372 -0.0422
13054TIP3    H160577   3.156   4.819   5.738 -1.0995 -0.2856 -1.4808
13054TIP3    H260578   3.051   4.715   5.770  0.1293 -0.8689  0.7221
13055TIP3   OH260579   3.964   0.946  16.328  0.1778  0.1685 -0.2334
13055TIP3    H160580   3.963   0.942  16.233 -0.2402 -1.8324 -0.1755
13055TIP3    H260581   3.967   1.039  16.349  1.9926  0.5860 -2.2044
13056TIP3   OH260582   5.025   2.050  16.301 -0.4795  0.3503  0.1171
13056TIP3    H160583   5.046   1.987  16.370 -0.5805  1.0040  0.7529
13056TIP3    H260584   5.009   1.996  16.224 -1.8911 -0.4963  0.9818
13057TIP3   OH260585   0.508   6.015   2.850 -0.5044 -0.1512 -0.1830
13057TIP3    H160586   0.428   5.995   2.898 -0.1646 -1.4976 -0.1660
13057TIP3    H260587   0.574   5.956   2.886  0.9457  2.1014  0.9884
13058TIP3   OH260588   2.179   5.177   0.412  0.0079  0.2684 -0.3438
13058TIP3    H160589   2.137   5.185   0.498  0.4951  1.1320 -0.1774
13058TIP3    H260590   2.109   5.148   0.354 -0.6128  0.8326  0.1105
13059TIP3   OH260591   3.015   5.794  11.009 -0.5823 -0.3885  0.2218
13059TIP3    H160592   3.096   5.840  10.985  0.4309 -0.3766  3.4294
13059TIP3    H260593   2.948   5.862  11.011  0.0301  0.2060  0.8097
13060TIP3   OH260594   4.261   3.306   6.432  0.0122 -0.1778 -0.0607
13060TIP3    H160595   4.289   3.229   6.383 -1.0031 -0.4872 -0.1505
13060TIP3    H260596   4.233   3.272   6.517  1.1765  0.2867  0.5167
13061TIP3   OH260597   6.785   5.673  11.750  0.0818  0.5221 -0.0279
13061TIP3    H160598   6.756   5.694  11.661 -4.8834 -1.2539  0.9878
13061TIP3    H260599   6.804   5.579  11.748  1.0965  0.7070  0.5208
13062TIP3   OH260600   1.093   3.134  14.247 -0.5566 -0.4020  0.2634
13062TIP3    H160601   1.142   3.094  14.319  0.9157 -0.5945 -0.8229
13062TIP3    H260602   1.070   3.221  14.279  0.2823 -0.4029  0.8864
13063TIP3   OH260603   0.378   4.957  17.057 -0.3793  0.0598 -0.1555
13063TIP3    H160604   0.349   5.044  17.028 -1.4163 -0.9084 -2.1116
13063TIP3    H260605   0.369   4.960  17.153 -1.8999  1.5955 -0.3142
13064TIP3   OH260606   6.532   6.156  14.573 -0.0525  0.1937 -0.2046
13064TIP3    H160607   6.480   6.224  14.530 -1.4954  0.5931  2.1199
13064TIP3    H260608   6.618   6.196  14.585  0.3631  0.1065 -2.5766
13065TIP3   OH260609   3.744   4.106   3.847  0.4642 -0.1466  0.3889
13065TIP3    H160610   3.708   4.021   3.872  0.5165  0.2267  1.7749
13065TIP3    H260611   3.806   4.127   3.916  1.2105  0.5599 -0.4821
13066TIP3   OH260612   5.646   0.978  16.438 -0.1161 -0.1290  0.6153
13066TIP3    H160613   5.722   0.973  16.496  0.8666 -1.3217 -0.7315
13066TIP3    H260614   5.645   0.894  16.392 -1.3267  0.4881 -0.5246
13067TIP3   OH260615   3.796   4.452  13.640 -0.2724  0.1279 -0.2258
13067TIP3    H160616   3.772   4.543  13.660  1.2252  1.0172 -2.3053
13067TIP3    H260617   3.865   4.431  13.703 -1.5410 -0.0467  1.1327
13068TIP3   OH260618   2.753   0.961   0.414 -0.2682  0.7770 -0.2204
13068TIP3    H160619   2.761   0.871   0.382  1.1073  0.8367 -0.0919
13068TIP3    H260620   2.726   1.012   0.338 -2.9357 -0.0392  0.1521
13069TIP3   OH260621   1.365   3.988   1.452  0.0245  0.6249  0.1172
13069TIP3    H160622   1.436   4.011   1.393  0.7728  0.5809  0.9981
13069TIP3    H260623   1.399   3.913   1.502 -1.4311 -0.7973 -0.9596
13070TIP3   OH260624   2.358   2.929  11.975 -0.8386 -0.1711 -0.8683
13070TIP3    H160625   2.325   2.865  11.911 -1.4023  0.0415 -0.7932
13070TIP3    H260626   2.422   2.980  11.926  0.0730 -1.1872 -0.7619
13071TIP3   OH260627   1.007   3.186  12.650 -0.2526 -0.5426  0.1276
13071TIP3    H160628   1.053   3.146  12.725 -0.2689 -0.6492  0.0814
13071TIP3    H260629   0.915   3.182  12.674 -0.1858  0.3937  0.5694
13072TIP3   OH260630   0.977   6.103   1.624  0.2422  0.0021 -0.0661
13072TIP3    H160631   0.921   6.180   1.630 -0.1858 -0.3143  0.0820
13072TIP3    H260632   1.064   6.134   1.646  0.2257  0.6173 -0.8553
13073TIP3   OH260633   4.003   0.653  13.758 -0.3253 -0.6730 -0.3254
13073TIP3    H160634   3.991   0.561  13.736  0.2226 -0.1153 -3.1181
13073TIP3    H260635   3.919   0.694  13.736 -0.1095 -0.2651 -0.3926
13074TIP3   OH260636   4.268   5.254   3.880 -0.6135 -0.0065 -0.3763
13074TIP3    H160637   4.258   5.296   3.795  0.1208 -0.0536 -0.4897
13074TIP3    H260638   4.288   5.162   3.860 -0.2363  0.0263 -0.1639
13075TIP3   OH260639   0.926   2.547  12.320  0.5131  0.1194 -0.0048
13075TIP3    H160640   0.876   2.563  12.400  0.7455 -0.2964  0.2278
13075TIP3    H260641   0.935   2.452  12.316 -0.6499  0.0464 -1.2358
13076TIP3   OH260642   5.522   1.830   3.120  0.0837 -0.2536  0.3194
13076TIP3    H160643   5.511   1.761   3.055 -0.8423 -1.3813  1.6614
13076TIP3    H260644   5.615   1.827   3.143  0.0573 -1.0064  0.3292
13077TIP3   OH260645   5.586   0.185  16.720  1.0799  0.1832  0.0255
13077TIP3    H160646   5.629   0.156  16.639  1.2261 -0.2297  0.2516
13077TIP3    H260647   5.582   0.107  16.774  0.5362  0.3491  0.2267
13078TIP3   OH260648   0.208   1.772  12.394 -0.6211 -1.0638  0.4718
13078TIP3    H160649   0.138   1.707  12.390 -0.0629 -1.6165 -0.7248
13078TIP3    H260650   0.271   1.742  12.328 -0.1987  0.5089  0.1503
13079TIP3   OH260651   5.731   2.250  14.061 -0.0296 -0.1405 -0.5154
13079TIP3    H160652   5.727   2.155  14.076 -0.4741 -0.0538 -0.0490
13079TIP3    H260653   5.776   2.284  14.138 -1.6372  0.2333  0.2978
13080TIP3   OH260654   6.235   0.269  16.078 -0.4781  0.5552  0.3013
13080TIP3    H160655   6.182   0.288  16.155 -0.2055  0.0282  0.6251
13080TIP3    H260656   6.325   0.286  16.106 -0.3938  0.5369  0.0434
13081TIP3   OH260657   0.700   0.543  15.686  0.4110 -0.4079  0.0946
13081TIP3    H160658   0.687   0.482  15.758  0.6222  0.0158  0.4990
13081TIP3    H260659   0.729   0.489  15.612 -3.0842 -1.3240 -0.7111
13082TIP3   OH260660   6.639   4.065   3.426  0.1206 -0.4758 -0.5199
13082TIP3    H160661   6.564   4.107   3.467  0.7431 -0.3281  0.4904
13082TIP3    H260662   6.684   4.020   3.498  0.0665 -1.9641 -1.3984
13083TIP3   OH260663   5.183   0.470   3.763 -0.3351 -0.2290  0.5805
13083TIP3    H160664   5.266   0.436   3.795 -0.2915 -0.7806 -0.1150
13083TIP3    H260665   5.127   0.393   3.755 -0.6605  0.0399  0.2726
13084TIP3   OH260666   5.799   1.275  15.440  0.4552 -0.4811 -0.5064
13084TIP3    H160667   5.749   1.336  15.386 -0.0649 -1.8345 -1.5985
13084TIP3    H260668   5.748   1.269  15.521  1.5793  2.0450  0.4105
13085TIP3   OH260669   2.692   4.649  14.706  0.1751  0.6467 -0.1131
13085TIP3    H160670   2.728   4.737  14.721  1.0213  0.7105 -2.2663
13085TIP3    H260671   2.611   4.647  14.757  1.3777  1.8027  1.9332
13086TIP3   OH260672   3.066   3.672   1.342 -0.5756  0.0486 -0.6075
13086TIP3    H160673   3.011   3.594   1.351 -1.2042  0.5876  0.1901
13086TIP3    H260674   3.152   3.638   1.315 -0.9093 -0.8973 -0.4742
13087TIP3   OH260675   3.774   2.053  15.760 -0.0577  0.0482 -0.2854
13087TIP3    H160676   3.700   2.006  15.723  0.1430 -1.5768  1.3065
13087TIP3    H260677   3.759   2.053  15.855  1.5862  0.3372  0.0040
13088TIP3   OH260678   0.856   5.924  11.353 -0.2250  0.2908 -0.1702
13088TIP3    H160679   0.926   5.964  11.405 -0.3349 -0.0628  0.2526
13088TIP3    H260680   0.845   5.837  11.391 -0.0060 -0.1385 -1.0683
13089TIP3   OH260681   4.554   6.540   3.383 -0.2216  0.2331 -0.8283
13089TIP3    H160682   4.559   6.456   3.428  2.2685  1.2202  0.8263
13089TIP3    H260683   4.475   6.534   3.330 -0.3055 -2.9812 -0.4179
13090TIP3   OH260684   1.969   6.552   4.368  0.1108  0.2483 -0.5940
13090TIP3    H160685   1.894   6.573   4.423  0.3965  1.0238 -0.4946
13090TIP3    H260686   1.953   6.598   4.285  1.0364  1.3834 -0.1571
13091TIP3   OH260687   0.456   3.320  13.836 -0.2184  0.4469  0.4980
13091TIP3    H160688   0.399   3.283  13.904 -0.7172  1.0850  0.4357
13091TIP3    H260689   0.425   3.410  13.825 -0.0369  0.4015 -0.4634
13092TIP3   OH260690   1.539   4.136   2.772 -0.0456  0.2407  0.3448
13092TIP3    H160691   1.579   4.096   2.694 -0.5610  1.2451 -0.4401
13092TIP3    H260692   1.564   4.077   2.844  1.0551 -0.3002 -0.4558
13093TIP3   OH260693   3.492   5.174  17.167 -0.0658 -0.2350  0.3812
13093TIP3    H160694   3.485   5.178  17.072  1.0994 -2.0165  0.1912
13093TIP3    H260695   3.402   5.156  17.197 -0.2735 -0.6234 -0.4609
13094TIP3   OH260696   5.468   1.515  16.280 -0.8367 -0.3711 -0.1640
13094TIP3    H160697   5.407   1.483  16.214 -0.2658  0.2472 -0.9920
13094TIP3    H260698   5.417   1.517  16.361 -2.1684  0.9529 -1.0156
13095TIP3   OH260699   1.384   4.619   4.159 -0.3610 -0.5645  0.4232
13095TIP3    H160700   1.402   4.688   4.095  0.4169 -0.9504  0.2168
13095TIP3    H260701   1.463   4.565   4.159 -0.3087 -0.4987  1.8047
13096TIP3   OH260702   4.661   1.483  17.054  0.3998  0.2182  0.8444
13096TIP3    H160703   4.630   1.486  16.963 -1.4872  2.8780  1.5377
13096TIP3    H260704   4.588   1.443  17.102  1.4637 -1.3432  1.1890
13097TIP3   OH260705   4.776   3.598   0.067  0.9231 -0.7928  0.4174
13097TIP3    H160706   4.684   3.621   0.082  1.1704 -0.7849  1.9785
13097TIP3    H260707   4.802   3.652  -0.007 -0.1499 -0.2931  0.3960
13098TIP3   OH260708   4.550   1.480   0.455  0.4983 -0.4427  0.0969
13098TIP3    H160709   4.539   1.519   0.368 -1.3452 -3.0549 -0.8957
13098TIP3    H260710   4.461   1.462   0.485  1.2529 -3.1418  0.8474
13099TIP3   OH260711   4.494   0.056   4.503 -0.2928  0.2989  0.2692
13099TIP3    H160712   4.513   0.069   4.410 -0.3325  0.4689  0.2850
13099TIP3    H260713   4.536  -0.027   4.525 -1.0579 -0.2012 -0.1289
13100TIP3   OH260714   2.837   1.828  14.385  0.0055  0.4396 -0.8631
13100TIP3    H160715   2.762   1.832  14.326  1.4254  1.2085 -2.6343
13100TIP3    H260716   2.909   1.796  14.331  1.4750  1.7618  0.2783
13101TIP3   OH260717   5.236   4.754  16.523 -0.1200 -0.0263  0.0306
13101TIP3    H160718   5.277   4.672  16.496  2.5853  0.4318  2.5639
13101TIP3    H260719   5.218   4.743  16.616 -0.0703  2.0980  0.3285
13102TIP3   OH260720   0.364   3.265   1.269  0.0978  0.4535 -0.1788
13102TIP3    H160721   0.366   3.220   1.354 -0.7612  1.2816  0.2882
13102TIP3    H260722   0.290   3.226   1.223 -1.3753  2.1498  0.6773
13103TIP3   OH260723   5.637   0.081   1.245  0.2518  0.3111 -0.4715
13103TIP3    H160724   5.668   0.158   1.198 -0.0320  0.2177 -0.8119
13103TIP3    H260725   5.631   0.013   1.179 -1.5424  0.5674 -0.6076
13104TIP3   OH260726   0.865   3.885  13.326  0.3239 -0.5328  0.0452
13104TIP3    H160727   0.793   3.854  13.381 -0.0600 -0.2264 -0.2757
13104TIP3    H260728   0.829   3.882  13.237  0.5286  0.1301 -0.0595
13105TIP3   OH260729   2.189   3.225   3.646  0.1788 -0.5043  0.0031
13105TIP3    H160730   2.170   3.169   3.571  0.1677 -0.1081 -0.2934
13105TIP3    H260731   2.261   3.281   3.616  1.1739 -1.3422  0.7842
13106TIP3   OH260732   6.044   0.546  13.377  0.0246 -0.7970  0.0952
13106TIP3    H160733   6.024   0.568  13.468  2.3166 -0.7237  0.6040
13106TIP3    H260734   5.982   0.599  13.326 -1.0033 -0.5207  1.5715
13107TIP3   OH260735   5.696   2.505  13.500 -0.3438  0.1775 -0.1638
13107TIP3    H160736   5.678   2.417  13.466  0.3636  0.8966 -2.4991
13107TIP3    H260737   5.610   2.537  13.527 -0.5088 -1.4906  1.4066
13108TIP3   OH260738   0.361   0.314   3.942  0.0932 -0.4728 -0.2491
13108TIP3    H160739   0.359   0.236   3.887  0.4662 -0.1575 -0.7091
13108TIP3    H260740   0.445   0.309   3.988  1.3598  1.0572 -2.3181
13109TIP3   OH260741   2.639   1.054   6.472  0.9188  0.1744  0.6587
13109TIP3    H160742   2.584   1.115   6.423  2.1222  0.3925 -0.4335
13109TIP3    H260743   2.576   0.999   6.520 -0.3030 -0.1711 -1.2569
13110TIP3   OH260744   4.656   3.855  16.969 -0.3444  0.0068 -0.0114
13110TIP3    H160745   4.582   3.854  17.031  0.3610  1.6251  0.8922
13110TIP3    H260746   4.731   3.883  17.022  0.6361 -0.3105 -1.2186
13111TIP3   OH260747   1.193   1.366   2.069  0.1541  0.0832 -0.1865
13111TIP3    H160748   1.211   1.352   2.161 -0.1185  2.7709  0.3205
13111TIP3    H260749   1.107   1.327   2.055  0.9793 -1.9530  0.2257
13112TIP3   OH260750   5.541   1.401   1.623  0.1765  0.1824  0.8378
13112TIP3    H160751   5.480   1.388   1.550 -0.0946  0.5721  0.9986
13112TIP3    H260752   5.563   1.312   1.652 -1.5355  0.0554  1.7992
13113TIP3   OH260753   1.152   1.703  12.031 -0.1798  0.3179 -0.0374
13113TIP3    H160754   1.243   1.726  12.050 -0.2492  0.1293  0.5377
13113TIP3    H260755   1.152   1.608  12.023 -0.7241  0.0843  2.2624
13114TIP3   OH260756   6.150   0.728   0.310 -0.2611 -0.2676 -0.4483
13114TIP3    H160757   6.196   0.762   0.233  0.1774  0.9615  0.3286
13114TIP3    H260758   6.159   0.798   0.375 -2.3945 -0.4418  0.0427
13115TIP3   OH260759   4.429   5.517  12.190  0.2217  0.4631 -0.7809
13115TIP3    H160760   4.522   5.534  12.178  0.1425  0.2256 -1.7865
13115TIP3    H260761   4.399   5.487  12.104 -0.8204  0.7327 -0.5202
13116TIP3   OH260762   3.402   0.558  10.895  0.0676 -0.0973  0.1069
13116TIP3    H160763   3.436   0.616  10.827  0.3900 -0.2301  0.1568
13116TIP3    H260764   3.309   0.549  10.873 -0.5643  2.4314  1.5435
13117TIP3   OH260765   1.851   4.100   3.256 -0.1987  0.4567 -0.1605
13117TIP3    H160766   1.871   4.120   3.348  0.5291  0.0131 -0.2156
13117TIP3    H260767   1.803   4.176   3.225  1.0975  1.3998  0.0898
13118TIP3   OH260768   1.824   4.436  13.717  0.4370 -0.7354  0.0846
13118TIP3    H160769   1.732   4.461  13.723  0.4114 -0.7723 -0.1537
13118TIP3    H260770   1.872   4.519  13.719  0.3555 -0.6688 -0.6521
13119TIP3   OH260771   3.606   3.257  14.898 -0.6501  0.1249 -0.2313
13119TIP3    H160772   3.673   3.325  14.900 -2.0714  1.5409  0.1159
13119TIP3    H260773   3.654   3.175  14.907  1.0523  1.1036 -0.3320
13120TIP3   OH260774   2.982   6.197  15.246 -0.2937  0.8126  0.3200
13120TIP3    H160775   2.950   6.155  15.167  0.5676 -0.6279  0.7036
13120TIP3    H260776   2.963   6.134  15.316  2.0417  0.5454  0.7507
13121TIP3   OH260777   2.147   0.159  12.818 -0.0629  0.2274 -0.2112
13121TIP3    H160778   2.225   0.184  12.769  0.4528 -0.0019  0.4804
13121TIP3    H260779   2.122   0.238  12.865  0.9568 -0.2271  1.1551
13122TIP3   OH260780   5.465   4.909  16.429 -0.2248 -0.4642  0.1520
13122TIP3    H160781   5.480   4.819  16.459  0.7502 -0.6392 -0.8397
13122TIP3    H260782   5.529   4.961  16.478  0.2504 -0.5275 -0.3914
13123TIP3   OH260783   4.483   6.446   3.984  0.2243  0.5415 -0.4538
13123TIP3    H160784   4.567   6.402   3.971  0.9214  1.5950  0.3896
13123TIP3    H260785   4.433   6.426   3.905  1.1091 -0.4338 -0.7828
13124TIP3   OH260786   3.182   6.383   0.472  0.2513  0.2482  0.0552
13124TIP3    H160787   3.154   6.327   0.399 -1.9083  1.8532 -0.4214
13124TIP3    H260788   3.138   6.347   0.548  0.2159  0.2933  0.0557
13125TIP3   OH260789   4.846   2.407  13.508  0.4250  0.0164 -0.8383
13125TIP3    H160790   4.817   2.329  13.461  1.6207 -0.0965 -1.3899
13125TIP3    H260791   4.820   2.480  13.452  0.7497 -0.0620 -1.0921
13126TIP3   OH260792   1.617   2.364  10.890 -0.1817  0.5786 -0.6005
13126TIP3    H160793   1.670   2.304  10.836  3.1025 -0.2080  3.2065
13126TIP3    H260794   1.654   2.450  10.873  0.9504  0.3125  0.4258
13127TIP3   OH260795   0.460   0.452  11.788  0.0555 -0.3975 -0.1280
13127TIP3    H160796   0.364   0.455  11.788 -0.0171 -1.3594 -2.9525
13127TIP3    H260797   0.486   0.541  11.812 -1.5533  0.1532 -0.3370
13128TIP3   OH260798   1.094   2.096   2.740  0.3468 -0.5435 -0.5614
13128TIP3    H160799   1.103   2.189   2.761  0.3921 -0.8181  0.6638
13128TIP3    H260800   1.059   2.056   2.820  0.0663 -1.5372 -1.1655
13129TIP3   OH260801   1.004   3.572   1.011 -0.5391 -0.5909  0.1379
13129TIP3    H160802   1.061   3.543   0.940 -0.7022  0.5237 -0.4678
13129TIP3    H260803   0.929   3.612   0.966 -0.6242  0.1548  0.9354
13130TIP3   OH260804   4.911   4.389  12.359  0.2394  0.0797  0.0056
13130TIP3    H160805   4.895   4.393  12.453 -0.1211  0.5124 -0.0740
13130TIP3    H260806   4.838   4.339  12.324  0.9336 -1.0000  0.0891
13131TIP3   OH260807   4.018   2.367  16.579 -0.5410 -0.4183  0.5669
13131TIP3    H160808   3.956   2.412  16.521 -1.0114 -0.7779  0.7836
13131TIP3    H260809   3.996   2.398  16.667  0.7555  0.8058  0.4675
13132TIP3   OH260810   4.853   1.503  11.341  0.5836 -0.1370  0.4219
13132TIP3    H160811   4.761   1.527  11.329  0.3064 -1.1904  0.3010
13132TIP3    H260812   4.891   1.510  11.254  0.3464 -0.7195  0.2631
13133TIP3   OH260813   6.161   4.548  11.113  0.4101 -0.0568  0.0485
13133TIP3    H160814   6.234   4.522  11.057 -0.3524 -1.2346 -0.4075
13133TIP3    H260815   6.083   4.527  11.062 -0.2666  0.6905  0.7564
13134TIP3   OH260816   0.499   0.171  16.466  1.0185  0.2266  0.1707
13134TIP3    H160817   0.495   0.134  16.555 -0.3428  0.5359  0.2569
13134TIP3    H260818   0.489   0.095  16.408 -1.3174  0.3805  0.3410
13135TIP3   OH260819   2.873   2.752  12.583  0.3457 -0.1116  0.0500
13135TIP3    H160820   2.964   2.722  12.591  0.5242  0.4525  0.2008
13135TIP3    H260821   2.825   2.698  12.646  0.4643 -0.8678 -0.5088
13136TIP3   OH260822   0.391   6.338  11.983 -0.2475 -0.2028 -0.3836
13136TIP3    H160823   0.445   6.366  12.057 -2.4977  0.4785  1.0475
13136TIP3    H260824   0.322   6.404  11.978  0.6842  0.6344 -4.0912
13137TIP3   OH260825   3.167   3.775  16.662  0.1284 -0.1020  0.4205
13137TIP3    H160826   3.216   3.742  16.586  1.1942  2.1465  0.0828
13137TIP3    H260827   3.233   3.781  16.731 -0.6719 -1.3852  1.2981
13138TIP3   OH260828   3.684   1.498   1.651 -0.2826  0.3146 -0.1310
13138TIP3    H160829   3.730   1.538   1.577  1.7628 -0.6726  0.5634
13138TIP3    H260830   3.636   1.425   1.612 -0.1154  0.4761 -0.6470
13139TIP3   OH260831   4.115   0.784   0.138  0.5802  0.1339  0.1494
13139TIP3    H160832   4.062   0.854   0.100  0.6964 -0.1709 -0.5915
13139TIP3    H260833   4.183   0.829   0.187 -0.7814  0.5303  1.7189
13140TIP3   OH260834   0.606   2.263  15.643  0.2327  0.3164  0.2500
13140TIP3    H160835   0.512   2.267  15.661  0.1418 -0.2239 -0.1166
13140TIP3    H260836   0.644   2.220  15.720 -0.0195 -0.9577 -0.3269
13141TIP3   OH260837   3.491   3.936  13.238 -0.2440 -0.8936  0.2050
13141TIP3    H160838   3.513   4.028  13.223 -1.3649 -0.5952  0.4035
13141TIP3    H260839   3.544   3.912  13.314 -0.5850 -0.1668  0.6846
13142TIP3   OH260840   0.678   1.298  14.909  0.2485  0.1608 -0.0448
13142TIP3    H160841   0.645   1.233  14.848 -0.3676  0.5550 -0.1397
13142TIP3    H260842   0.603   1.355  14.926  0.2409 -0.3168  1.5716
13143TIP3   OH260843   3.791   0.027   2.372  0.5195  0.0019  0.0320
13143TIP3    H160844   3.737   0.095   2.331  0.5238  0.4695  0.7738
13143TIP3    H260845   3.729  -0.040   2.399  0.7151 -1.1595 -2.3423
13144TIP3   OH260846   1.360   4.266   6.193 -0.7474 -0.0714  0.1493
13144TIP3    H160847   1.307   4.201   6.238  0.7156 -1.0300  0.5241
13144TIP3    H260848   1.297   4.324   6.152 -2.0829 -1.0107  0.8364
13145TIP3   OH260849   4.869   5.754   1.731  0.0050  0.0219  0.2652
13145TIP3    H160850   4.875   5.845   1.703 -0.2214 -0.7567 -2.5322
13145TIP3    H260851   4.812   5.713   1.665 -1.2811 -1.7723  2.4397
13146TIP3   OH260852   5.005   0.183   1.775  0.7245  0.3001 -0.0878
13146TIP3    H160853   4.945   0.114   1.803  0.5500 -0.0865 -1.3740
13146TIP3    H260854   5.075   0.136   1.729  0.8452  0.9317 -0.5560
13147TIP3   OH260855   0.097   5.939  14.788 -0.3017  0.4321 -0.1036
13147TIP3    H160856   0.121   5.929  14.881  0.8160  1.3052 -0.2871
13147TIP3    H260857   0.173   5.904  14.740  0.0631  2.0084 -0.6924
13148TIP3   OH260858   2.923   0.683   2.058 -0.1506 -0.5077  0.4476
13148TIP3    H160859   3.010   0.676   2.018 -0.4487  2.5537 -0.8999
13148TIP3    H260860   2.940   0.680   2.153  1.6832  1.9325  0.2526
13149TIP3   OH260861   0.232   2.972  12.919  0.3867  0.1103 -0.1424
13149TIP3    H160862   0.152   3.023  12.905  1.0344  0.8602 -1.1557
13149TIP3    H260863   0.228   2.903  12.853 -0.9003 -1.7069  1.7564
13150TIP3   OH260864   0.678   3.982  14.631 -0.7167  0.1746 -0.1854
13150TIP3    H160865   0.774   3.982  14.630 -0.7141  1.4071 -1.1968
13150TIP3    H260866   0.654   3.959  14.721  0.5106 -2.0455 -0.3841
13151TIP3   OH260867   1.120   6.426  16.097  0.6370 -0.1747 -0.0446
13151TIP3    H160868   1.132   6.519  16.113 -0.2141 -0.0199 -0.2416
13151TIP3    H260869   1.025   6.414  16.096  0.7217 -0.9041 -0.7804
13152TIP3   OH260870   3.906   2.590   3.089 -0.4319  0.3285 -0.4703
13152TIP3    H160871   4.002   2.584   3.082 -0.4836 -0.8625 -0.3944
13152TIP3    H260872   3.889   2.618   3.178 -0.1758 -0.9676  0.0057
13153TIP3   OH260873   3.229   0.262   0.598  0.3504 -0.4098 -0.5003
13153TIP3    H160874   3.134   0.273   0.608  0.2091 -0.8492 -1.3120
13153TIP3    H260875   3.267   0.328   0.656 -0.4528  1.0402 -1.5869
13154TIP3   OH260876   1.387   1.596   0.259  0.3660  0.3160 -0.0004
13154TIP3    H160877   1.350   1.602   0.171 -0.7036 -0.7163  0.3625
13154TIP3    H260878   1.407   1.687   0.283 -2.6648  1.0241  0.0838
13155TIP3   OH260879   3.159   1.755  11.190 -0.1846 -0.2458  0.6234
13155TIP3    H160880   3.208   1.740  11.110 -1.4670  0.0758 -0.2316
13155TIP3    H260881   3.131   1.668  11.218 -0.1170 -0.3132  0.4797
13156TIP3   OH260882   2.241   4.687   3.707 -0.5241 -0.3394 -0.0922
13156TIP3    H160883   2.276   4.664   3.621 -0.0665  2.4253 -0.6907
13156TIP3    H260884   2.254   4.781   3.714  0.3175 -0.6357  3.4157
13157TIP3   OH260885   1.284   2.122   5.332 -0.4536 -0.4946  0.1967
13157TIP3    H160886   1.311   2.034   5.358 -1.6943 -1.0499 -0.3911
13157TIP3    H260887   1.361   2.177   5.351  1.7012 -2.2878 -2.8826
13158TIP3   OH260888   4.863   1.331   1.143  0.2341  1.2333  0.3770
13158TIP3    H160889   4.818   1.410   1.174 -0.6619  0.8106  0.1886
13158TIP3    H260890   4.827   1.316   1.056 -0.4638 -0.0341  0.8720
13159TIP3   OH260891   0.584   4.187   2.332  0.1187 -0.1059 -0.2249
13159TIP3    H160892   0.623   4.134   2.402  0.1443  0.4336  0.1739
13159TIP3    H260893   0.636   4.267   2.331  0.7491 -0.5142 -1.5306
13160TIP3   OH260894   1.792   0.814   0.112  0.7233 -0.0711  0.3493
13160TIP3    H160895   1.835   0.740   0.155  1.4637  0.7220  1.0164
13160TIP3    H260896   1.724   0.775   0.058  1.5358 -1.2828  0.1792
13161TIP3   OH260897   4.696   5.148   5.406 -0.0011  0.3744 -0.0495
13161TIP3    H160898   4.781   5.170   5.369  0.8007 -1.3398  0.6862
13161TIP3    H260899   4.701   5.054   5.423 -1.4176  0.5600  1.6018
13162TIP3   OH260900   4.955   3.585   2.471  0.5909 -0.1516 -0.1069
13162TIP3    H160901   5.004   3.524   2.525 -0.0922  0.8788  1.7233
13162TIP3    H260902   4.902   3.635   2.533  0.3476  1.5661 -1.6549
13163TIP3   OH260903   0.311   2.948   5.523 -0.1858 -0.4305 -0.2724
13163TIP3    H160904   0.349   3.011   5.462  0.2714  0.9932  1.4270
13163TIP3    H260905   0.373   2.944   5.596 -2.2242  0.3455  1.5761
13164TIP3   OH260906   5.482   4.733   2.083 -0.1188  0.3627 -0.5899
13164TIP3    H160907   5.392   4.702   2.090 -0.1575  0.5675 -0.1687
13164TIP3    H260908   5.513   4.697   2.000 -0.1289 -0.9250 -0.0595
13165TIP3   OH260909   6.321   1.733  13.310  0.3164 -0.4548  0.1378
13165TIP3    H160910   6.320   1.799  13.380 -1.6274 -0.9629  0.6247
13165TIP3    H260911   6.311   1.784  13.230 -3.1399 -0.2222  0.6299
13166TIP3   OH260912   1.739   1.169   4.604  0.0752  0.4259  0.1779
13166TIP3    H160913   1.697   1.231   4.544  1.5026  0.4688 -0.8010
13166TIP3    H260914   1.731   1.209   4.690 -2.4258  0.1467  0.1100
13167TIP3   OH260915   0.185   0.540   1.839 -0.1385 -0.4911  0.3730
13167TIP3    H160916   0.209   0.458   1.794 -0.1441  0.0253 -0.5899
13167TIP3    H260917   0.195   0.607   1.772 -0.6740  0.2261  1.0105
13168TIP3   OH260918   5.306   2.494  13.919 -0.0911  0.4337 -0.0326
13168TIP3    H160919   5.400   2.513  13.914 -0.0449  0.1411 -0.2199
13168TIP3    H260920   5.301   2.400  13.934 -0.4160  0.0628 -2.3619
13169TIP3   OH260921   4.369   4.710   1.984  0.3294  0.4297 -0.1859
13169TIP3    H160922   4.465   4.704   1.980  0.2989 -2.3669  1.5425
13169TIP3    H260923   4.338   4.645   1.921 -0.3780 -0.9962  1.5944
13170TIP3   OH260924   5.590   1.586  15.498  0.2233  0.3723  0.4212
13170TIP3    H160925   5.684   1.605  15.498  0.1519  0.8591 -1.4314
13170TIP3    H260926   5.550   1.665  15.534  0.3976  1.0523 -0.8307
13171TIP3   OH260927   1.053   3.368  13.581  0.4137 -0.0683 -0.1021
13171TIP3    H160928   1.030   3.285  13.622 -0.1938 -0.0699 -0.4362
13171TIP3    H260929   0.977   3.424  13.597  0.3413  0.0573 -0.8592
13172TIP3   OH260930   5.865   0.707   5.069 -0.4598  0.2250 -0.3013
13172TIP3    H160931   5.937   0.723   5.009 -0.2910  0.0649 -0.1398
13172TIP3    H260932   5.906   0.702   5.156 -0.8064  1.4324 -0.0535
13173TIP3   OH260933   6.439   2.644   6.013  0.4989  0.5841 -0.1081
13173TIP3    H160934   6.479   2.726   6.042 -1.1062  0.9531  1.1068
13173TIP3    H260935   6.353   2.642   6.055  0.0579 -1.1920 -1.0160
13174TIP3   OH260936   2.921   1.285   4.759 -0.0114  0.3677 -0.0390
13174TIP3    H160937   2.890   1.204   4.721 -1.6749  1.1783 -0.4649
13174TIP3    H260938   2.872   1.354   4.714  1.2600  1.6084  0.4033
13175TIP3   OH260939   2.463   0.756  12.985 -0.5234  0.0642 -0.1655
13175TIP3    H160940   2.462   0.771  13.079  1.0329 -1.3989  0.1009
13175TIP3    H260941   2.490   0.840  12.947  0.2581  0.2499  0.7865
13176TIP3   OH260942   2.616   5.201   1.373  0.3042 -0.0880  0.0665
13176TIP3    H160943   2.626   5.123   1.427 -1.8539 -0.2136  0.3337
13176TIP3    H260944   2.628   5.170   1.284 -0.8435 -0.7938  0.1495
13177TIP3   OH260945   4.158   1.747   2.903 -0.6278  1.0629  0.4483
13177TIP3    H160946   4.236   1.699   2.931 -0.6937  0.5792 -0.1833
13177TIP3    H260947   4.192   1.828   2.865 -0.2739 -0.0496 -1.7203
13178TIP3   OH260948   5.327   1.196   1.253  0.0037  0.2934  0.4257
13178TIP3    H160949   5.367   1.111   1.230  0.6314  0.1062  2.1732
13178TIP3    H260950   5.246   1.198   1.203  0.5116 -0.8598 -0.4852
13179TIP3   OH260951   0.856   1.309   0.345  0.9078  0.1519  0.1576
13179TIP3    H160952   0.895   1.306   0.432  0.3197  1.6664  0.4861
13179TIP3    H260953   0.762   1.315   0.360  0.7479 -0.3862 -0.5927
13180TIP3   OH260954   4.245   6.709   5.452  0.1798  0.1994  0.2441
13180TIP3    H160955   4.329   6.744   5.421  0.5778 -0.4854  0.5242
13180TIP3    H260956   4.180   6.749   5.394  0.8762 -0.7949 -1.2752
13181TIP3   OH260957   4.321   3.859  11.954  0.0819  0.3805  0.4268
13181TIP3    H160958   4.394   3.904  11.912 -0.3595 -0.0789 -0.8699
13181TIP3    H260959   4.327   3.769  11.921 -0.6894  0.1858  0.8151
13182TIP3   OH260960   2.009   0.529   2.987  0.5035 -0.3901  0.6445
13182TIP3    H160961   2.091   0.531   2.938  0.6480  1.9236  0.9130
13182TIP3    H260962   2.011   0.609   3.041 -3.2347  1.3244 -1.5552
13183TIP3   OH260963   5.954   2.950   4.712  0.3487  0.2857  0.3279
13183TIP3    H160964   5.994   3.032   4.682  1.5160 -0.9271 -1.5263
13183TIP3    H260965   5.938   2.965   4.805 -0.1977  2.8970 -0.1329
13184TIP3   OH260966   1.618   6.426  15.434  0.2925 -0.2574 -0.9296
13184TIP3    H160967   1.633   6.517  15.460 -0.5028 -0.2032 -0.6644
13184TIP3    H260968   1.624   6.427  15.338  0.2883  0.0724 -0.9263
13185TIP3   OH260969   1.771   3.358   2.486 -0.3011  0.2854  0.3186
13185TIP3    H160970   1.696   3.313   2.525 -1.0785  0.2993 -1.1215
13185TIP3    H260971   1.821   3.289   2.443  0.6466  0.2455  1.4405
13186TIP3   OH260972   1.349   6.555   2.307  0.3201 -0.6889 -0.4413
13186TIP3    H160973   1.344   6.496   2.382  3.4242 -1.0554 -0.4780
13186TIP3    H260974   1.389   6.503   2.237 -1.3394  0.0401 -1.9856
13187TIP3   OH260975   4.807   3.586  12.791  0.2684  0.1609  0.4206
13187TIP3    H160976   4.807   3.513  12.729 -0.5105  0.4037  0.1368
13187TIP3    H260977   4.888   3.634  12.771  1.1756 -1.0336  1.1007
13188TIP3   OH260978   4.319   2.633   3.566 -1.0614  0.0160  0.0951
13188TIP3    H160979   4.383   2.702   3.586 -0.3968  0.4409 -3.2245
13188TIP3    H260980   4.358   2.554   3.602  0.0139  0.7523  0.5770
13189TIP3   OH260981   5.460   3.620   0.527 -0.1367  0.9258  0.2163
13189TIP3    H160982   5.549   3.652   0.508 -1.0327  2.4009 -1.6074
13189TIP3    H260983   5.409   3.699   0.542 -1.3429  0.1259  0.3757
13190TIP3   OH260984   3.620   2.049  16.402 -0.2388  0.2683 -0.4441
13190TIP3    H160985   3.683   2.046  16.330 -0.1626  1.2050 -0.4244
13190TIP3    H260986   3.636   1.968  16.451  0.7268  0.3343 -0.6273
13191TIP3   OH260987   0.717   3.027  13.303  0.3070 -0.4195 -0.0054
13191TIP3    H160988   0.718   2.948  13.357  1.7725 -0.7321 -0.4656
13191TIP3    H260989   0.769   3.090  13.351  0.9864 -0.4535 -0.6796
13192TIP3   OH260990   4.098   6.630   6.474 -0.6534  0.6902 -0.2450
13192TIP3    H160991   4.009   6.658   6.494 -0.3431 -0.0954  2.3889
13192TIP3    H260992   4.089   6.540   6.442 -0.6641 -0.0766  1.8473
13193TIP3   OH260993   4.378   0.252  11.675 -0.0338 -0.3874 -0.1701
13193TIP3    H160994   4.319   0.321  11.706 -0.0457 -0.3889 -0.1891
13193TIP3    H260995   4.462   0.296  11.663 -0.1287 -0.2994 -0.5190
13194TIP3   OH260996   2.590   6.638  15.805  0.0642 -0.0742  0.3542
13194TIP3    H160997   2.537   6.634  15.885  0.1610 -1.7730  0.3622
13194TIP3    H260998   2.527   6.631  15.734 -0.0519  1.7682  0.2533
13195TIP3   OH260999   4.518   0.573   0.415 -0.4408 -0.4126 -0.4005
13195TIP3    H161000   4.536   0.647   0.358  0.8402 -0.6774 -0.3463
13195TIP3    H261001   4.450   0.604   0.475 -2.1258 -0.2732 -2.3432
13196TIP3   OH261002   0.734   2.237  11.402  0.1332 -0.3519  0.2931
13196TIP3    H161003   0.784   2.284  11.335 -0.9630  1.4297  0.7040
13196TIP3    H261004   0.664   2.194  11.354 -0.3064  0.4463  0.2072
13197TIP3   OH261005   5.117   4.269   1.607  0.0240 -0.1839 -0.0027
13197TIP3    H161006   5.144   4.277   1.516  1.5103 -2.0518  0.2538
13197TIP3    H261007   5.068   4.186   1.611  0.4858 -0.4166  1.0180
13198TIP3   OH261008   1.522   3.406  15.411  0.2035 -0.3370  0.2530
13198TIP3    H161009   1.534   3.311  15.401  0.8992 -0.3309  0.9386
13198TIP3    H261010   1.609   3.442  15.391  0.3744  0.0237  1.6373
13199TIP3   OH261011   6.487   2.826  13.763  0.2959 -0.4202 -0.5469
13199TIP3    H161012   6.559   2.810  13.702  0.2843  0.2612 -0.7373
13199TIP3    H261013   6.429   2.887  13.717 -0.4335 -1.0038 -0.4154
13200TIP3   OH261014   2.857   3.225  12.627  0.1448  0.0793 -0.3379
13200TIP3    H161015   2.813   3.156  12.677  0.7361 -0.0950 -0.0602
13200TIP3    H261016   2.789   3.257  12.567 -0.5433  0.2401  0.5135
13201TIP3   OH261017   2.956   0.510  11.571  0.3551 -0.0074  0.6276
13201TIP3    H161018   2.966   0.493  11.478  1.0418 -0.6249  0.8046
13201TIP3    H261019   2.879   0.565  11.578 -0.5518 -1.1557 -0.1783
13202TIP3   OH261020   1.824   5.898   1.005  0.3425 -0.0479  0.5749
13202TIP3    H161021   1.834   5.980   1.054  0.8121 -0.6225  1.4512
13202TIP3    H261022   1.877   5.910   0.926 -1.4096  1.3647 -0.4391
13203TIP3   OH261023   5.274   1.030   1.937  0.1965  0.6843 -0.4220
13203TIP3    H161024   5.226   0.980   2.003 -0.8165  2.1483 -0.0217
13203TIP3    H261025   5.302   0.965   1.872  1.4718 -0.8169  1.5879
13204TIP3   OH261026   2.934   5.518   5.331  0.4837 -0.2564  0.2416
13204TIP3    H161027   2.920   5.444   5.273 -0.3092 -0.5027  0.7384
13204TIP3    H261028   2.985   5.483   5.404 -1.8217 -0.8872  1.6208
13205TIP3   OH261029   4.243   4.526   1.765  0.2366 -0.6316  0.0382
13205TIP3    H161030   4.161   4.576   1.757  0.1715 -0.8019 -0.3724
13205TIP3    H261031   4.301   4.564   1.699  0.2003 -1.0631 -0.2513
13206TIP3   OH261032   3.849   4.646   0.836 -0.0815  0.0018  0.0711
13206TIP3    H161033   3.791   4.627   0.909  1.2069 -0.4631  0.9782
13206TIP3    H261034   3.790   4.655   0.761 -1.3710  0.0819  1.0741
13207TIP3   OH261035   2.410   4.019  11.993  0.3170  0.2156  0.4191
13207TIP3    H161036   2.379   4.078  12.061  1.0582  0.9333  0.1490
13207TIP3    H261037   2.446   4.077  11.926  0.4875 -0.5215 -0.1391
13208TIP3   OH261038   4.554   3.441  16.743 -0.1194  0.8350 -0.0931
13208TIP3    H161039   4.469   3.484  16.736  0.6386  2.6981  1.4115
13208TIP3    H261040   4.592   3.478  16.823  1.6091 -0.8420 -0.1079
13209TIP3   OH261041   0.279   6.168  14.203  0.0599  0.3717  0.5286
13209TIP3    H161042   0.244   6.226  14.271 -0.7661  0.6963 -0.1637
13209TIP3    H261043   0.264   6.216  14.122 -1.3975 -1.1624 -0.1431
13210TIP3   OH261044   5.008   1.441  15.201 -1.2945  0.0874  0.0584
13210TIP3    H161045   4.934   1.448  15.141 -1.0003  1.0516 -0.1968
13210TIP3    H261046   5.067   1.512  15.176 -1.5134  0.9804  1.9759
13211TIP3   OH261047   3.881   5.950   5.809 -0.1758 -0.6348  0.3393
13211TIP3    H161048   3.797   5.905   5.802 -0.0811 -0.5767 -1.4378
13211TIP3    H261049   3.932   5.897   5.871 -1.7652 -0.2564  1.9994
13212TIP3   OH261050   4.466   0.205  14.667  0.2536 -0.6611 -0.1915
13212TIP3    H161051   4.493   0.207  14.759  1.2104 -1.4243 -0.4394
13212TIP3    H261052   4.509   0.282  14.628  0.6133 -0.8600 -0.1947
13213TIP3   OH261053   4.508   0.778   6.153  0.5305  0.1359 -0.3686
13213TIP3    H161054   4.572   0.843   6.182  1.1012 -0.2648 -0.7387
13213TIP3    H261055   4.550   0.694   6.170  0.2110 -0.1216 -0.8655
13214TIP3   OH261056   3.632   0.234   1.557  0.4421 -0.1575 -0.4076
13214TIP3    H161057   3.664   0.306   1.502 -0.6082 -0.5882 -1.6155
13214TIP3    H261058   3.698   0.165   1.546  0.3195 -0.1814 -0.9998
13215TIP3   OH261059   1.040   5.326   4.685  0.1384 -0.4333 -0.5694
13215TIP3    H161060   1.010   5.416   4.668  2.2983 -0.0471 -2.4233
13215TIP3    H261061   1.027   5.315   4.779 -2.3222  1.0027 -0.6868
13216TIP3   OH261062   5.739   4.394  13.579  0.1268 -0.1495 -0.0448
13216TIP3    H161063   5.648   4.406  13.604  0.7898 -1.5578  3.2611
13216TIP3    H261064   5.776   4.339  13.648  3.3475 -0.0450 -1.6046
13217TIP3   OH261065   4.909   5.886   0.182  0.5930 -0.0731 -0.1356
13217TIP3    H161066   4.950   5.905   0.267  0.6480  0.2186 -0.2287
13217TIP3    H261067   4.865   5.967   0.157  0.4302 -0.2128 -0.3061
13218TIP3   OH261068   4.757   4.063   4.230  0.2320  0.3937 -0.2371
13218TIP3    H161069   4.771   4.157   4.222 -0.9293  0.5467 -0.5829
13218TIP3    H261070   4.826   4.033   4.289 -1.1647  1.9196  2.2379
13219TIP3   OH261071   2.712   2.197  16.067  0.0105  0.6253  0.3094
13219TIP3    H161072   2.786   2.142  16.044  0.7274  0.7266  2.2667
13219TIP3    H261073   2.650   2.138  16.111 -1.5680  0.3170 -2.2269
13220TIP3   OH261074   1.439   5.565   4.666 -0.0281  0.3087  0.4716
13220TIP3    H161075   1.388   5.628   4.614  0.4419 -0.0466 -0.4234
13220TIP3    H261076   1.504   5.618   4.711 -1.7172  0.8902  2.3174
13221TIP3   OH261077   1.779   6.603  13.692  0.4088 -0.3002 -0.0385
13221TIP3    H161078   1.750   6.579  13.604  0.0087 -0.3219  0.0978
13221TIP3    H261079   1.854   6.546  13.709  0.4937 -0.2887 -0.3667
13222TIP3   OH261080   0.141   1.594  10.216  1.1101  0.6967 -0.7424
13222TIP3    H161081   0.184   1.516  10.252 -1.3193 -0.5983 -0.5134
13222TIP3    H261082   0.144   1.658  10.287  0.2462 -0.3431  0.2752
13223TIP3   OH261083   0.324   0.229   2.745  0.0272 -0.0746 -0.0763
13223TIP3    H161084   0.385   0.300   2.726 -0.5557  0.2988 -0.5874
13223TIP3    H261085   0.264   0.265   2.810  0.8000 -0.6906  0.9971
13224TIP3   OH261086   6.279   6.185   0.468 -0.0559 -0.9206 -0.0347
13224TIP3    H161087   6.272   6.129   0.545 -2.7488 -1.5407 -0.6850
13224TIP3    H261088   6.222   6.144   0.403 -0.2539  1.2872 -1.2978
13225TIP3   OH261089   6.719   0.046   2.793 -0.5114 -0.9331 -0.2083
13225TIP3    H161090   6.795   0.023   2.847  0.1750 -0.3065 -0.8934
13225TIP3    H261091   6.645   0.008   2.839  0.0977 -0.6586  1.0237
13226TIP3   OH261092   5.154   2.240   0.461  0.3506 -0.1316 -0.0750
13226TIP3    H161093   5.071   2.203   0.491  0.5944  0.0697  0.8449
13226TIP3    H261094   5.193   2.170   0.407  0.4483 -0.9462  1.0258
13227TIP3   OH261095   6.601   5.891   5.795  0.0100  0.4682 -0.0637
13227TIP3    H161096   6.519   5.899   5.845 -0.0320 -1.0045  0.1567
13227TIP3    H261097   6.646   5.817   5.837  0.6317  0.1317 -1.3101
13228TIP3   OH261098   1.624   4.098   6.385  0.3797  0.1351  0.0584
13228TIP3    H161099   1.703   4.107   6.331 -0.0422  1.0795 -0.4315
13228TIP3    H261100   1.583   4.185   6.381 -0.3370 -0.1602  0.8483
13229TIP3   OH261101   5.727   1.467  15.208  0.1156  0.0213 -0.6517
13229TIP3    H161102   5.777   1.523  15.267 -0.7062 -0.6537  0.6950
13229TIP3    H261103   5.657   1.523  15.176 -0.8626 -0.2816  0.9011
13230TIP3   OH261104   6.100   1.454   0.805 -0.0878  0.1729  0.0464
13230TIP3    H161105   6.016   1.465   0.760 -0.4285  1.8598  1.0835
13230TIP3    H261106   6.092   1.370   0.850 -0.2965 -0.8410 -1.8167
13231TIP3   OH261107   2.052   2.528   0.157 -0.3366  0.9281 -0.1169
13231TIP3    H161108   2.039   2.608   0.106 -1.2815  1.3814  0.8104
13231TIP3    H261109   1.977   2.472   0.135  0.5265  0.1155 -1.0664
13232TIP3   OH261110   5.831   4.907   3.414  0.2055  0.1665  0.2499
13232TIP3    H161111   5.809   4.957   3.493  1.1977 -1.2055  1.4190
13232TIP3    H261112   5.763   4.841   3.408  0.1015  0.3030 -0.0850
13233TIP3   OH261113   1.296   0.858   3.363  0.1925  0.0705  0.2467
13233TIP3    H161114   1.246   0.938   3.345 -1.0009 -0.2896  1.9408
13233TIP3    H261115   1.376   0.890   3.406  0.6434  0.4992 -0.8825
13234TIP3   OH261116   2.339   5.466  14.460 -0.2911  0.4049 -0.1771
13234TIP3    H161117   2.304   5.393  14.409 -0.4530 -0.0741  0.6073
13234TIP3    H261118   2.343   5.539  14.398 -2.2763  0.3538 -0.4169
13235TIP3   OH261119   5.228   4.931  11.073  0.5094 -0.8691  0.1442
13235TIP3    H161120   5.313   4.890  11.057  0.5037 -0.8896  0.1630
13235TIP3    H261121   5.220   4.932  11.169  0.6796 -0.4794  0.1570
13236TIP3   OH261122   0.785   4.358  11.997  0.1261  0.3361  0.2010
13236TIP3    H161123   0.764   4.349  11.904  0.4198  0.4105  0.1262
13236TIP3    H261124   0.808   4.270  12.026 -1.5663 -0.0043  0.6044
13237TIP3   OH261125   6.198   5.236   3.217 -0.3668  0.0975 -0.0234
13237TIP3    H161126   6.284   5.269   3.192 -2.0095  3.6533 -1.3265
13237TIP3    H261127   6.184   5.159   3.161  1.3539  0.3521 -0.8093
13238TIP3   OH261128   2.277   2.243  11.565  0.0427  0.2269 -0.4105
13238TIP3    H161129   2.233   2.301  11.627 -0.8669 -0.6725 -0.2034
13238TIP3    H261130   2.340   2.194  11.618  1.2791  1.4597 -0.6936
13239TIP3   OH261131   2.406   3.621   5.085  0.5285 -0.1406 -0.4976
13239TIP3    H161132   2.413   3.715   5.096  2.3659 -0.2622 -0.5195
13239TIP3    H261133   2.428   3.606   4.992  1.7769 -0.7146 -0.1236
13240TIP3   OH261134   6.015   4.705  11.323  0.3644 -0.2276 -0.1843
13240TIP3    H161135   6.028   4.648  11.247 -0.8968 -0.7197 -0.0331
13240TIP3    H261136   6.020   4.646  11.398 -0.9165 -0.1391 -0.0230
13241TIP3   OH261137   1.872   5.218   3.634  0.5650 -0.2658  0.0680
13241TIP3    H161138   1.824   5.231   3.716  0.4364 -0.4601  0.0228
13241TIP3    H261139   1.917   5.135   3.645 -0.8856 -1.1814 -0.7619
13242TIP3   OH261140   5.839   3.461  11.197  0.0585 -0.2849 -0.0030
13242TIP3    H161141   5.865   3.452  11.105 -2.7379 -1.2635 -0.7382
13242TIP3    H261142   5.802   3.549  11.203 -2.2614 -1.2077 -0.4851
13243TIP3   OH261143   1.416   6.714   1.635 -0.2018  0.0524  0.0108
13243TIP3    H161144   1.397   6.806   1.614  1.1829 -0.0132 -1.5713
13243TIP3    H261145   1.488   6.690   1.577 -0.4928 -2.0244  0.4711
13244TIP3   OH261146   1.709   0.235  17.009 -0.7496  0.3735 -0.0104
13244TIP3    H161147   1.780   0.268  17.064  0.0532  0.4513 -1.0684
13244TIP3    H261148   1.739   0.148  16.982 -0.0748  1.2378 -2.1602
13245TIP3   OH261149   5.689   0.891   2.339  0.0897  0.5506  0.8050
13245TIP3    H161150   5.784   0.897   2.349  0.1522 -1.3575  1.5899
13245TIP3    H261151   5.670   0.935   2.256  2.0150 -1.6234 -0.8453
13246TIP3   OH261152   4.573   1.185  11.730  0.6929  0.0213 -0.5309
13246TIP3    H161153   4.501   1.225  11.682 -0.3889 -1.8437 -0.5362
13246TIP3    H261154   4.606   1.254  11.787 -2.4447  0.3741  0.9803
13247TIP3   OH261155   0.341   5.862   4.996  0.5301 -0.2465  0.0976
13247TIP3    H161156   0.394   5.918   5.054  0.2138  1.5163 -1.2834
13247TIP3    H261157   0.387   5.778   4.995  1.7763  0.4117  1.0933
13248TIP3   OH261158   6.183   5.178  12.977  0.2822 -0.4960 -0.2114
13248TIP3    H161159   6.266   5.130  12.981  1.5349  1.5152 -1.2899
13248TIP3    H261160   6.203   5.256  12.925 -2.7345 -0.8668 -2.0435
13249TIP3   OH261161   0.870   3.121   2.487  0.1811  0.4935  0.1030
13249TIP3    H161162   0.956   3.155   2.514  1.3006 -0.3808 -2.2578
13249TIP3    H261163   0.854   3.046   2.545  0.5090  1.2959  1.2484
13250TIP3   OH261164   0.456   4.655  16.172 -0.6658 -0.0135 -0.1915
13250TIP3    H161165   0.433   4.588  16.237 -1.0167 -1.3782 -1.6629
13250TIP3    H261166   0.380   4.714  16.170 -1.6228 -1.2285 -0.9160
13251TIP3   OH261167   2.693   3.684   5.290  0.0920  0.0877 -0.4090
13251TIP3    H161168   2.768   3.628   5.310  0.1879  0.9316  1.7146
13251TIP3    H261169   2.640   3.683   5.370 -0.5072  2.0814 -0.7533
13252TIP3   OH261170   5.429   2.628  11.594 -0.1160 -0.2100  0.3791
13252TIP3    H161171   5.369   2.694  11.561 -1.2521 -0.3335  2.1417
13252TIP3    H261172   5.516   2.664  11.579 -0.6292  0.1038 -1.9097
13253TIP3   OH261173   1.073   2.712   3.609  0.7913 -0.3201  0.3959
13253TIP3    H161174   1.139   2.646   3.590  0.5958 -0.2566 -0.5512
13253TIP3    H261175   1.099   2.750   3.693  1.0005 -1.4672  0.8493
13254TIP3   OH261176   0.888   2.355   6.488  0.5287  0.3863 -0.0341
13254TIP3    H161177   0.819   2.290   6.480  1.4600 -0.5803 -0.2934
13254TIP3    H261178   0.970   2.305   6.483  1.2528  1.4966  0.3545
13255TIP3   OH261179   2.201   3.573  15.630  0.0830  0.2827 -0.1474
13255TIP3    H161180   2.135   3.518  15.588 -0.1339 -0.3268  0.9531
13255TIP3    H261181   2.284   3.547  15.589  0.1018 -1.5245  0.9688
13256TIP3   OH261182   0.371   4.773   4.671 -0.7177 -0.0195 -0.5029
13256TIP3    H161183   0.460   4.780   4.638 -0.5606  3.2266  0.4632
13256TIP3    H261184   0.381   4.741   4.760 -0.2318  3.0316  0.6131
13257TIP3   OH261185   0.917   6.288   3.221  0.2861  0.1808 -0.1904
13257TIP3    H161186   0.878   6.252   3.301 -2.2512  1.4806 -0.7853
13257TIP3    H261187   0.846   6.287   3.157  0.9188  3.5919 -1.0486
13258TIP3   OH261188   5.949   3.756  14.507 -0.0335 -0.1460 -0.1014
13258TIP3    H161189   5.985   3.683  14.558  0.3086  0.2911  0.2933
13258TIP3    H261190   5.858   3.762  14.534 -0.3367 -1.1044 -0.9197
13259TIP3   OH261191   1.046   2.173   1.077  0.6428 -0.1262 -0.0153
13259TIP3    H161192   1.025   2.243   1.139 -0.1602 -1.5247  1.3207
13259TIP3    H261193   1.019   2.093   1.121 -0.5783 -1.1012 -2.4442
13260TIP3   OH261194   1.651   1.725   5.200 -0.3017  0.0585 -0.1906
13260TIP3    H161195   1.740   1.737   5.167 -0.0177 -0.3108  0.4197
13260TIP3    H261196   1.607   1.675   5.131  0.0455  0.0058 -0.3780
13261TIP3   OH261197   2.484   5.746  17.093  0.0528  1.0943 -0.6375
13261TIP3    H161198   2.393   5.773  17.098 -0.4122 -0.3993 -0.7012
13261TIP3    H261199   2.509   5.725  17.183 -0.3958 -0.7496 -0.9232
13262TIP3   OH261200   0.274   2.610  16.630  0.1091  0.2121  0.0873
13262TIP3    H161201   0.258   2.576  16.718  1.2011 -0.5871 -0.0083
13262TIP3    H261202   0.265   2.705  16.639 -0.8555  0.0667  0.8215
13263TIP3   OH261203   2.817   1.694  11.259  0.3562 -0.4233  0.2747
13263TIP3    H161204   2.776   1.617  11.300 -0.7162 -1.8611 -3.2664
13263TIP3    H261205   2.902   1.661  11.228 -0.3859 -0.3837 -1.8363
13264TIP3   OH261206   3.517   6.423   2.960  0.0232  0.7336  0.0898
13264TIP3    H161207   3.468   6.345   2.935  2.0180 -0.4914 -0.1237
13264TIP3    H261208   3.609   6.398   2.949  0.6983  3.0775  0.1345
13265TIP3   OH261209   4.192   0.231   5.468 -0.7937  0.1173 -0.2646
13265TIP3    H161210   4.278   0.257   5.501 -1.0030  2.4726 -1.4596
13265TIP3    H261211   4.196   0.250   5.374 -1.7607 -2.1781 -0.7981
13266TIP3   OH261212   3.368   5.674   2.756 -0.2422 -0.1816  0.2013
13266TIP3    H161213   3.353   5.600   2.815 -0.6913  1.2739  1.9465
13266TIP3    H261214   3.281   5.703   2.730 -0.0502 -0.7249 -1.0793
13267TIP3   OH261215   6.049   3.686   5.853 -0.0580  0.2657  0.1810
13267TIP3    H161216   5.955   3.696   5.836 -0.2980  1.1292  1.8157
13267TIP3    H261217   6.092   3.725   5.777 -1.0441  1.0660  0.0181
13268TIP3   OH261218   6.472   6.735   5.475 -0.6058 -0.4124  0.0271
13268TIP3    H161219   6.472   6.828   5.452 -2.4445 -0.3740  0.1074
13268TIP3    H261220   6.518   6.692   5.403 -0.3901  0.4667 -0.3617
13269TIP3   OH261221   6.594   1.832   3.750 -0.5578 -0.6446  0.0905
13269TIP3    H161222   6.520   1.889   3.771 -0.3376 -0.7734  1.2645
13269TIP3    H261223   6.649   1.884   3.692 -1.8130 -0.7211 -1.2011
13270TIP3   OH261224   0.592   6.022   4.258 -0.2391 -0.5027 -0.4263
13270TIP3    H161225   0.535   5.950   4.284 -2.0647  0.7846 -0.7060
13270TIP3    H261226   0.653   6.033   4.331 -2.4069  0.1466  1.3417
13271TIP3   OH261227   3.659   2.936   4.147  0.2677 -0.7088 -0.0036
13271TIP3    H161228   3.731   2.896   4.196  0.1542 -1.3253 -0.3281
13271TIP3    H261229   3.701   2.969   4.067  0.3355 -0.3142  0.1964
13272TIP3   OH261230   3.712   2.673  11.713  0.1032  0.6131 -0.6708
13272TIP3    H161231   3.624   2.670  11.676 -0.2337  0.7767  0.1067
13272TIP3    H261232   3.701   2.646  11.804  0.6897  1.7051 -0.2701
13273TIP3   OH261233   5.976   2.827   6.777 -0.1021 -0.2018 -0.2289
13273TIP3    H161234   6.000   2.910   6.736  1.4676 -0.2992  0.4528
13273TIP3    H261235   5.985   2.763   6.707 -1.0491  0.1610 -0.6857
13274TIP3   OH261236   3.997   5.214  16.114 -0.2200  0.4205  0.0972
13274TIP3    H161237   4.007   5.233  16.207 -2.0621 -0.7809  0.5619
13274TIP3    H261238   4.052   5.137  16.099 -1.4722 -0.5994  0.6475
13275TIP3   OH261239   2.005   6.473  13.719 -0.6900 -0.5317  0.1603
13275TIP3    H161240   2.025   6.543  13.657 -1.2838  0.1176  0.6911
13275TIP3    H261241   2.085   6.420  13.722  0.0921  0.6370  0.4344
13276TIP3   OH261242   2.577   5.395   2.337  0.0796  0.6314 -0.1733
13276TIP3    H161243   2.655   5.339   2.336  0.1247  0.7079 -1.1605
13276TIP3    H261244   2.581   5.439   2.422  0.5128 -0.2026  0.2516
13277TIP3   OH261245   4.529   6.758   0.685 -0.5654  0.1410 -0.7723
13277TIP3    H161246   4.488   6.824   0.740 -0.1037  1.0797 -1.5375
13277TIP3    H261247   4.605   6.803   0.647  0.5751 -1.2437 -0.1909
13278TIP3   OH261248   6.637   4.046  15.625 -0.6937 -0.8325  0.3678
13278TIP3    H161249   6.709   4.056  15.687 -0.5548  0.6536 -0.0323
13278TIP3    H261250   6.643   4.122  15.568 -2.5916 -0.6670  0.3539
13279TIP3   OH261251   1.087   6.689   1.261 -0.5306 -0.1928 -0.0171
13279TIP3    H161252   1.109   6.775   1.297 -0.4683  0.1273 -0.7903
13279TIP3    H261253   1.156   6.672   1.196 -1.4563 -0.0817 -1.0377
13280TIP3   OH261254   4.382   3.463   3.832  0.5688  0.1384 -0.3966
13280TIP3    H161255   4.287   3.475   3.837  0.9274  3.1260  0.3945
13280TIP3    H261256   4.407   3.506   3.750  1.0163 -2.5671 -1.7253
13281TIP3   OH261257   3.819   4.529   5.594  0.2833 -0.0242 -0.6168
13281TIP3    H161258   3.763   4.592   5.549 -0.8913 -1.1297 -0.7137
13281TIP3    H261259   3.786   4.443   5.567  1.4365 -0.6931  0.0461
13282TIP3   OH261260   6.397   6.374  11.392 -0.0158  0.6644  0.1388
13282TIP3    H161261   6.492   6.387  11.386 -0.0721  0.3077 -1.6911
13282TIP3    H261262   6.383   6.286  11.358 -0.9585  0.4736  0.9849
13283TIP3   OH261263   0.924   6.625   5.695 -0.0701  0.1553 -0.1868
13283TIP3    H161264   0.841   6.639   5.650 -0.2425  0.5980  0.2718
13283TIP3    H261265   0.922   6.686   5.769 -0.0400 -0.9884  0.7687
13284TIP3   OH261266   1.162   3.737   1.211  0.4728 -0.1373  0.7528
13284TIP3    H161267   1.244   3.700   1.244  0.1831 -1.4594  0.0690
13284TIP3    H261268   1.124   3.666   1.159  0.5027  1.5551 -1.6878
13285TIP3   OH261269   0.045   5.777   6.021  0.4893  0.1477  0.0562
13285TIP3    H161270   0.039   5.850   6.082  1.2326  2.1550 -2.2095
13285TIP3    H261271  -0.041   5.736   6.024  0.7347 -0.3055  2.9968
13286TIP3   OH261272   0.999   0.346  14.591 -0.0233 -0.7659  1.0852
13286TIP3    H161273   1.087   0.327  14.623  0.5925 -0.2253 -0.2281
13286TIP3    H261274   0.979   0.434  14.624 -0.4720 -1.2804  2.1988
13287TIP3   OH261275   1.367   2.971  16.460 -0.4467  0.1926 -0.1721
13287TIP3    H161276   1.386   3.065  16.460  1.6383 -0.2050 -1.2234
13287TIP3    H261277   1.349   2.950  16.368 -0.4114 -0.5423 -0.0160
13288TIP3   OH261278   1.170   0.980  11.471 -0.3885 -0.2805  0.0918
13288TIP3    H161279   1.116   0.998  11.547  0.3216 -0.1500  0.5692
13288TIP3    H261280   1.260   0.996  11.500 -0.2366  1.5200 -1.2726
13289TIP3   OH261281   1.908   6.323   2.042  0.3219  0.1433 -0.3760
13289TIP3    H161282   1.943   6.260   2.106 -1.5552 -2.6056 -1.9337
13289TIP3    H261283   1.931   6.408   2.078  1.8492 -1.3803  2.5009
13290TIP3   OH261284   2.699   5.742   2.909 -0.2355  0.7692  0.6598
13290TIP3    H161285   2.715   5.655   2.945  2.2571  1.3797  1.1183
13290TIP3    H261286   2.721   5.735   2.817  0.7188  1.0856  0.8553
13291TIP3   OH261287   4.094   1.887  14.191 -0.4936 -0.0225 -0.0247
13291TIP3    H161288   4.089   1.982  14.184 -1.9505 -0.2009 -1.6762
13291TIP3    H261289   4.063   1.855  14.106  0.7078 -1.9644  0.2319
13292TIP3   OH261290   2.888   1.075   6.316  0.2454  0.4827  0.1616
13292TIP3    H161291   2.831   1.149   6.295  2.8151  2.6232  0.4228
13292TIP3    H261292   2.839   1.024   6.381 -2.0080  1.3712 -0.8141
13293TIP3   OH261293   0.700   0.056   3.736  0.0983  0.2965  0.2485
13293TIP3    H161294   0.737  -0.020   3.780  1.1646  0.9866  0.5697
13293TIP3    H261295   0.611   0.030   3.712  0.3950 -0.9735  0.5211
13294TIP3   OH261296   6.672   1.692   3.155 -0.3370 -0.7035  0.4335
13294TIP3    H161297   6.737   1.632   3.191 -0.0252 -1.0327 -0.6798
13294TIP3    H261298   6.590   1.644   3.159 -0.3599 -0.6211  0.9988
13295TIP3   OH261299   5.906   2.462  15.173  1.0806 -0.5273 -0.4654
13295TIP3    H161300   5.896   2.542  15.121 -1.5400 -1.0513 -0.8490
13295TIP3    H261301   5.913   2.493  15.263 -1.0782  0.1349 -0.4900
13296TIP3   OH261302   1.911   5.192   6.761 -0.3695  0.0015 -0.5089
13296TIP3    H161303   1.975   5.137   6.717  0.5469  2.2091 -2.0175
13296TIP3    H261304   1.834   5.190   6.705 -0.8471 -0.8719  0.1683
13297TIP3   OH261305   5.552   3.828   3.960  0.3022 -0.3786  0.0650
13297TIP3    H161306   5.463   3.857   3.979  0.7764  0.1980  1.5502
13297TIP3    H261307   5.607   3.885   4.014  1.3464 -3.0570  1.9100
13298TIP3   OH261308   5.499   4.264   3.460  0.2785 -0.9931  0.0008
13298TIP3    H161309   5.497   4.226   3.372  2.7204 -1.9559  0.2979
13298TIP3    H261310   5.539   4.350   3.448 -2.4378  0.2723 -0.2523
13299TIP3   OH261311   6.352   6.044   4.527  0.1946  0.5836 -0.3399
13299TIP3    H161312   6.392   5.995   4.599  0.0547  1.4774  0.3383
13299TIP3    H261313   6.407   6.022   4.451 -0.2595 -1.1667 -0.1945
13300TIP3   OH261314   4.807   3.411   3.723  0.0647 -0.6884 -0.1859
13300TIP3    H161315   4.881   3.467   3.705  0.9236 -2.0674 -1.0525
13300TIP3    H261316   4.737   3.442   3.665 -0.4236  1.3295  1.4393
13301TIP3   OH261317   3.579   6.450   2.143 -0.0066  1.2625  0.5360
13301TIP3    H161318   3.549   6.430   2.054 -0.1722  1.1744  0.6121
13301TIP3    H261319   3.528   6.392   2.199 -1.1666  2.5302  0.8339
13302TIP3   OH261320   3.789   3.236  13.061  0.3381 -0.1905  0.1828
13302TIP3    H161321   3.834   3.231  12.977  1.0743 -0.3409  0.5805
13302TIP3    H261322   3.782   3.144  13.090 -2.2191 -0.3608 -0.9218
13303TIP3   OH261323   0.078   6.743   5.018  0.1375  0.1889 -0.4923
13303TIP3    H161324   0.171   6.717   5.018  0.1270  0.1336 -1.2200
13303TIP3    H261325   0.035   6.676   4.965 -0.4056 -0.0756  0.2826
13304TIP3   OH261326   3.609   5.910  11.907  0.3396  0.3390  0.7817
13304TIP3    H161327   3.672   5.839  11.919 -0.8010 -0.3961  2.6406
13304TIP3    H261328   3.576   5.897  11.818  0.1559 -1.4670  1.0803
13305TIP3   OH261329   6.484   0.576   3.446 -0.2678  0.0083 -0.1508
13305TIP3    H161330   6.477   0.624   3.529 -1.0485  1.0861 -0.8276
13305TIP3    H261331   6.395   0.579   3.410  0.6246  1.8447 -2.2843
13306TIP3   OH261332   0.977   1.056  16.072 -0.7195  0.5896 -0.1018
13306TIP3    H161333   1.061   1.020  16.101  1.0507  3.2979 -1.6649
13306TIP3    H261334   0.931   1.079  16.152 -0.3139 -1.6251  0.7968
13307TIP3   OH261335   3.735   6.657   5.401 -0.2236  0.1355  0.1354
13307TIP3    H161336   3.667   6.593   5.425 -1.2503  1.1122 -0.1140
13307TIP3    H261337   3.748   6.709   5.480  0.8361 -0.5649  0.4338
13308TIP3   OH261338   6.707   2.130  11.175 -0.1931 -0.3084  0.2887
13308TIP3    H161339   6.705   2.165  11.087 -2.6577  0.3470  0.5738
13308TIP3    H261340   6.721   2.206  11.231 -0.5806 -0.4494  0.5805
13309TIP3   OH261341   2.914   1.233   2.215  0.6762  0.1143 -0.9213
13309TIP3    H161342   2.955   1.227   2.301 -0.1426 -1.4110 -0.6163
13309TIP3    H261343   2.907   1.327   2.198  1.0759  0.4201  0.5582
13310TIP3   OH261344   1.735   0.680   4.511  0.1206  0.7077  0.0916
13310TIP3    H161345   1.715   0.765   4.548 -0.9217  0.8492 -0.7575
13310TIP3    H261346   1.758   0.625   4.586 -0.4079  1.4092  0.7656
13311TIP3   OH261347   0.009   5.586  12.107  0.2110  0.3072  0.1362
13311TIP3    H161348  -0.028   5.590  12.019  0.3390 -0.1514  0.0581
13311TIP3    H261349   0.087   5.531  12.097  0.2071  0.2252  0.5400
13312TIP3   OH261350   3.003   0.724   5.512  0.0398  0.6464  0.0655
13312TIP3    H161351   2.926   0.685   5.471  1.4614 -1.7100 -0.4243
13312TIP3    H261352   3.040   0.781   5.444  1.6017 -2.1737 -1.5312
13313TIP3   OH261353   0.711   0.254  15.431 -0.6355 -0.1812 -0.2542
13313TIP3    H161354   0.708   0.200  15.353 -0.5618  0.1116 -0.4582
13313TIP3    H261355   0.787   0.311  15.418 -0.7508  0.0164 -0.0678
13314TIP3   OH261356   3.033   6.585   1.264  0.1703  0.3581 -0.3356
13314TIP3    H161357   3.002   6.674   1.244 -0.2213  0.1355 -0.7364
13314TIP3    H261358   2.952   6.534   1.275  0.3854 -0.2373 -1.4036
13315TIP3   OH261359   4.754   3.360   1.731 -0.1097 -0.4238 -0.1710
13315TIP3    H161360   4.811   3.409   1.791 -1.0337 -0.9237  1.1407
13315TIP3    H261361   4.667   3.399   1.743 -0.5281 -1.2929 -0.3176
13316TIP3   OH261362   1.033   4.597   3.136  0.1577  0.0446 -0.0810
13316TIP3    H161363   1.092   4.574   3.065  0.1082 -1.1049  0.2442
13316TIP3    H261364   1.086   4.655   3.193  0.5724  0.0070 -0.4274
13317TIP3   OH261365   3.457   4.894  16.712 -0.4147 -0.2832 -0.2966
13317TIP3    H161366   3.516   4.856  16.646  0.8314  2.0262 -0.5601
13317TIP3    H261367   3.442   4.983  16.682 -0.5383  0.5377  2.0955
13318TIP3   OH261368   3.331   6.663   5.214 -0.3132 -0.0159  0.0297
13318TIP3    H161369   3.314   6.698   5.301 -1.4219  0.5925 -0.4171
13318TIP3    H261370   3.320   6.738   5.155  2.1633 -0.0109 -0.4835
13319TIP3   OH261371   5.387   4.766  12.897  0.6427 -0.3220  0.4328
13319TIP3    H161372   5.435   4.815  12.830 -0.0964 -0.5042 -0.2372
13319TIP3    H261373   5.319   4.719  12.848 -1.9871  2.0402  1.6088
13320TIP3   OH261374   6.147   1.818   5.276  0.2029 -0.6352 -0.1487
13320TIP3    H161375   6.130   1.912   5.290  2.0202 -0.4142  0.7940
13320TIP3    H261376   6.122   1.803   5.185 -4.2786 -0.2629  0.8815
13321TIP3   OH261377   6.653   5.204   4.825  0.1143  0.4995  0.1613
13321TIP3    H161378   6.630   5.246   4.908  1.6853  1.0237  0.3465
13321TIP3    H261379   6.670   5.113   4.848 -2.3867 -0.0763 -0.0908
13322TIP3   OH261380   5.837   3.710  11.360 -0.2285 -0.4742  0.2073
13322TIP3    H161381   5.743   3.718  11.344 -0.0889  0.6298 -0.1110
13322TIP3    H261382   5.847   3.739  11.451  0.0688  1.3927 -0.4156
13323TIP3   OH261383   0.477   1.673  15.276  0.1496 -0.0645 -0.2775
13323TIP3    H161384   0.537   1.712  15.339  0.6654 -1.3768  0.0644
13323TIP3    H261385   0.477   1.734  15.202 -0.0315  1.1955  0.7424
13324TIP3   OH261386   5.001   5.019   3.351 -0.4558  0.0634  0.1431
13324TIP3    H161387   5.087   4.981   3.370 -0.3640  0.7540  1.1591
13324TIP3    H261388   4.945   4.943   3.333  0.8326 -0.2753 -2.5696
13325TIP3   OH261389   4.184   1.867  11.098  0.2553  0.7977  0.1503
13325TIP3    H161390   4.171   1.960  11.119  1.8998  1.1600 -0.3601
13325TIP3    H261391   4.140   1.855  11.014 -0.3222  0.9940  0.4135
13326TIP3   OH261392   6.770   2.297  13.712 -0.4865  0.2226 -0.0059
13326TIP3    H161393   6.774   2.273  13.620 -2.1945  1.4662 -0.4367
13326TIP3    H261394   6.859   2.326  13.734  0.3600 -1.7360 -0.7637
13327TIP3   OH261395   1.680   5.670  16.874 -0.0866  0.2350  0.0880
13327TIP3    H161396   1.637   5.753  16.892 -0.2985 -0.1398  1.3637
13327TIP3    H261397   1.608   5.608  16.863  0.0860 -0.3369  1.9411
13328TIP3   OH261398   5.830   3.776  13.088 -0.1246  0.0693 -0.1282
13328TIP3    H161399   5.798   3.686  13.078 -1.0702  0.5940 -1.8800
13328TIP3    H261400   5.768   3.830  13.040  1.5665  1.4479 -0.8291
13329TIP3   OH261401   3.206   1.345  11.103  0.1879 -0.1589  0.1643
13329TIP3    H161402   3.281   1.351  11.162  0.8525 -1.0196 -0.5830
13329TIP3    H261403   3.187   1.252  11.098 -0.9925  0.0581  0.4109
13330TIP3   OH261404   1.359   2.200  15.489 -0.4377 -0.0458 -0.1444
13330TIP3    H161405   1.362   2.228  15.397  0.1666 -1.4174 -0.5702
13330TIP3    H261406   1.296   2.258  15.530  2.3505  3.3602 -0.4472
13331TIP3   OH261407   6.110   0.547   0.734 -0.1992  0.4712 -0.0399
13331TIP3    H161408   6.059   0.466   0.746  0.3411  0.2163  0.6024
13331TIP3    H261409   6.045   0.617   0.736 -0.6875  0.0533 -0.6977
13332TIP3   OH261410   6.011   0.678  12.106  0.6827  0.0531  0.1904
13332TIP3    H161411   6.070   0.604  12.089 -0.0772 -0.5051 -0.0485
13332TIP3    H261412   5.950   0.645  12.171 -0.2863  0.1338 -0.6601
13333TIP3   OH261413   6.466   1.257   2.013 -0.5638  0.1484 -0.0942
13333TIP3    H161414   6.543   1.231   2.064 -0.2967 -2.1040 -1.5861
13333TIP3    H261415   6.469   1.353   2.012  1.9732  0.0983  0.2109
13334TIP3   OH261416   4.569   0.163  11.420 -0.1292  0.3499  0.1824
13334TIP3    H161417   4.652   0.198  11.386 -0.5599  0.8657 -0.3302
13334TIP3    H261418   4.596   0.102  11.489  0.7444 -0.6612 -1.0277
13335TIP3   OH261419   4.891   2.394  13.143 -0.2703 -0.1382 -0.3843
13335TIP3    H161420   4.957   2.351  13.198 -0.5908  1.3156  1.1496
13335TIP3    H261421   4.850   2.459  13.199 -1.3773  0.6344 -2.0263
13336TIP3   OH261422   4.447   2.015  13.593  0.4257  0.9435  0.0314
13336TIP3    H161423   4.358   2.049  13.604 -0.2708 -0.8440  0.1127
13336TIP3    H261424   4.435   1.921  13.579  2.1561  0.9995 -2.1047
13337TIP3   OH261425   5.897   1.675  12.889  0.4716 -0.4163  0.8453
13337TIP3    H161426   5.949   1.601  12.918  1.6171  0.0065 -0.0982
13337TIP3    H261427   5.955   1.751  12.899 -0.1299  0.1332  0.2474
13338TIP3   OH261428   1.689   5.204  15.455 -0.6817 -0.0465  0.3534
13338TIP3    H161429   1.654   5.135  15.512 -1.2489  0.0509  0.1263
13338TIP3    H261430   1.711   5.275  15.514  1.5954 -1.0907  0.8141
13339TIP3   OH261431   2.255   3.356  15.830  0.1624 -0.3252 -0.5794
13339TIP3    H161432   2.254   3.444  15.792 -0.1103  1.2158  2.8285
13339TIP3    H261433   2.164   3.327  15.825  0.0338  0.0787 -0.6246
13340TIP3   OH261434   4.414   2.483  14.570 -0.2200  0.9785  0.0174
13340TIP3    H161435   4.326   2.511  14.597 -0.4340  1.6398 -1.3548
13340TIP3    H261436   4.444   2.429  14.643 -1.3922  1.5102  0.9266
13341TIP3   OH261437   5.707   1.569   4.087 -0.0448 -0.3710 -0.0629
13341TIP3    H161438   5.616   1.540   4.092 -0.8661  2.1476  0.1021
13341TIP3    H261439   5.722   1.587   3.994  0.4239 -1.1011 -0.1403
13342TIP3   OH261440   2.676   4.174   1.434  0.1929  0.0443  0.1731
13342TIP3    H161441   2.733   4.173   1.357  0.8435  1.8242  0.6075
13342TIP3    H261442   2.592   4.206   1.402 -0.5018 -2.2911 -0.4091
13343TIP3   OH261443   5.387   6.147   5.175 -0.0542  0.3029 -0.1234
13343TIP3    H161444   5.366   6.191   5.093  0.3344  2.2199  0.7935
13343TIP3    H261445   5.446   6.207   5.220  1.2750 -1.5969  0.7164
13344TIP3   OH261446   0.982   0.711  12.900 -0.3032  0.2823  0.2504
13344TIP3    H161447   1.047   0.774  12.867  0.1997 -0.6222 -0.5232
13344TIP3    H261448   0.901   0.736  12.857  0.5814 -1.5810 -2.6645
13345TIP3   OH261449   0.188   1.911   1.516 -0.0794 -0.0314  0.3311
13345TIP3    H161450   0.092   1.905   1.511 -0.0728  1.7584 -3.0882
13345TIP3    H261451   0.205   2.000   1.547  0.4672  0.4919 -1.4126
13346TIP3   OH261452   0.565   3.893   1.192 -0.4075  0.6422  0.4053
13346TIP3    H161453   0.555   3.845   1.274  0.4531 -0.1240  0.0691
13346TIP3    H261454   0.588   3.826   1.128 -1.3550  1.1967 -0.5217
13347TIP3   OH261455   5.131   0.703  12.254  0.4310  0.5856  0.1024
13347TIP3    H161456   5.087   0.670  12.332 -2.2336  2.4279 -0.5282
13347TIP3    H261457   5.223   0.708  12.279 -0.0175 -1.1858  2.2831
13348TIP3   OH261458   5.377   3.534  13.056  0.1722 -0.0064 -0.2352
13348TIP3    H161459   5.384   3.560  13.148  0.2758  0.8146 -0.4643
13348TIP3    H261460   5.284   3.518  13.043 -0.0530  1.3279 -0.3556
13349TIP3   OH261461   4.308   3.797  13.594  0.7633  0.4094 -0.9156
13349TIP3    H161462   4.309   3.794  13.690 -0.8395  1.5228 -0.8384
13349TIP3    H261463   4.251   3.725  13.569  2.1904 -0.6639 -1.0902
13350TIP3   OH261464   3.312   1.240  11.388 -0.0833 -0.1750  0.5349
13350TIP3    H161465   3.299   1.146  11.384 -0.9675  0.0447 -2.5300
13350TIP3    H261466   3.260   1.268  11.464 -0.6823 -1.9909  0.8088
13351TIP3   OH261467   4.815   5.264  15.751 -0.4303  0.3075  0.8446
13351TIP3    H161468   4.780   5.352  15.736 -1.5628 -0.3445 -0.4657
13351TIP3    H261469   4.905   5.278  15.782 -0.2068  1.8849 -0.5072
13352TIP3   OH261470   5.345   3.311   4.045 -0.4757  0.2550 -0.3834
13352TIP3    H161471   5.348   3.267   4.129  0.5075  2.1322  0.6004
13352TIP3    H261472   5.393   3.253   3.985  1.9378  0.5665  1.1752
13353TIP3   OH261473   3.409   0.557   4.445  0.4415 -0.3178 -0.1135
13353TIP3    H161474   3.403   0.609   4.365  0.8790 -1.1265 -0.6838
13353TIP3    H261475   3.319   0.529   4.461  0.0645  1.3282  0.6907
13354TIP3   OH261476   0.018   6.576   3.213  0.3023 -0.5157 -0.7026
13354TIP3    H161477   0.051   6.660   3.182  1.0055 -0.6157 -0.2283
13354TIP3    H261478  -0.039   6.545   3.142 -1.9721  1.5064  0.1890
13355TIP3   OH261479   3.732   0.071  14.969  0.2321 -0.2395 -0.0039
13355TIP3    H161480   3.824   0.059  14.990  0.1934 -0.3236  0.1175
13355TIP3    H261481   3.686   0.058  15.052  0.0458 -0.9374 -0.2074
13356TIP3   OH261482   2.312   4.289  15.286 -0.1703 -0.3405  0.4175
13356TIP3    H161483   2.366   4.265  15.362  0.6897  0.7278  0.1614
13356TIP3    H261484   2.224   4.301  15.322  0.4772  1.3618  1.4623
13357TIP3   OH261485   4.996   1.671  13.550  0.0116  0.2144 -0.6288
13357TIP3    H161486   4.935   1.657  13.623  0.2756  2.1221 -0.0188
13357TIP3    H261487   4.945   1.720  13.485  1.3521  3.3734  0.6182
13358TIP3   OH261488   2.585   2.141  14.840 -0.1849 -0.6373 -0.2019
13358TIP3    H161489   2.566   2.094  14.922  3.8193  1.0031  1.8230
13358TIP3    H261490   2.671   2.181  14.855 -0.2240  1.3422 -4.5381
13359TIP3   OH261491   0.762   2.390   2.426 -0.3172 -0.0690 -0.2130
13359TIP3    H161492   0.761   2.440   2.344  0.9773 -2.1585 -1.5422
13359TIP3    H261493   0.813   2.445   2.486  1.2984  0.1414 -1.7292
13360TIP3   OH261494   3.603   1.242  16.495  0.0775  0.2171  0.3039
13360TIP3    H161495   3.533   1.188  16.459  1.2437  0.1116 -1.9522
13360TIP3    H261496   3.571   1.332  16.486  1.0183  0.3200 -2.7485
13361TIP3   OH261497   6.502   3.366  12.276  0.0179 -0.4241  0.4041
13361TIP3    H161498   6.536   3.411  12.198 -0.2289 -2.7879 -1.1444
13361TIP3    H261499   6.418   3.330  12.247 -0.9634  0.2674  2.3662
13362TIP3   OH261500   2.443   2.967   2.144  0.1059  0.4531  0.0971
13362TIP3    H161501   2.538   2.959   2.152  0.1483  0.5619 -0.2535
13362TIP3    H261502   2.425   3.060   2.156 -0.0125  0.3500  0.6975
13363TIP3   OH261503   0.194   1.652   2.387  0.0792 -0.2277 -0.0069
13363TIP3    H161504   0.228   1.585   2.446 -2.8315  0.4326  2.5304
13363TIP3    H261505   0.254   1.725   2.396  0.3758 -0.6112  1.1844
13364TIP3   OH261506   1.576   2.871  15.154  0.0279  0.3994 -0.1545
13364TIP3    H161507   1.514   2.846  15.085 -0.9128  1.0692  0.4418
13364TIP3    H261508   1.562   2.806  15.223 -0.8532  1.2282  0.4683
13365TIP3   OH261509   1.420   0.906  14.462 -0.9116 -0.1399  0.3784
13365TIP3    H161510   1.467   0.828  14.433 -1.0001  0.0342 -0.2386
13365TIP3    H261511   1.431   0.968  14.391 -0.9536  0.3679  0.8149
13366TIP3   OH261512   6.670   1.357   1.398  0.8333 -0.7182 -0.1259
13366TIP3    H161513   6.667   1.353   1.493 -1.0051  3.3563  0.0697
13366TIP3    H261514   6.731   1.429   1.379  0.6916 -1.0751 -2.0060
13367TIP3   OH261515   2.864   2.153  14.852  0.2526  0.2720 -0.3421
13367TIP3    H161516   2.898   2.066  14.832 -0.2035  0.3950 -1.7471
13367TIP3    H261517   2.909   2.211  14.790 -1.3134  0.6641 -1.1438
13368TIP3   OH261518   4.333   0.989  11.199 -0.3406 -0.4371  0.3059
13368TIP3    H161519   4.294   0.921  11.254 -3.7517  1.0616 -0.1300
13368TIP3    H261520   4.305   1.071  11.238  3.6307  0.8294  0.7553
13369TIP3   OH261521   3.611   2.947   2.948 -0.2691  0.0345 -0.4844
13369TIP3    H161522   3.624   3.008   2.875 -1.4014  0.6945 -0.1496
13369TIP3    H261523   3.690   2.893   2.949  1.0294  1.8847 -0.4309
13370TIP3   OH261524   1.710   5.513  16.460  0.1646  0.0795 -1.0315
13370TIP3    H161525   1.792   5.563  16.459 -0.5057  1.2152 -0.3554
13370TIP3    H261526   1.728   5.439  16.518  0.1779  1.2733  0.5164
13371TIP3   OH261527   6.080   2.213  13.713 -0.1853  1.1664  0.1673
13371TIP3    H161528   6.053   2.241  13.626  1.6109 -1.0836 -1.1706
13371TIP3    H261529   6.031   2.132  13.729  1.0587  0.4313  0.3350
13372TIP3   OH261530   0.275   1.662   2.815  0.2957 -0.5688 -0.3799
13372TIP3    H161531   0.183   1.666   2.789  0.6286 -0.1878 -1.5056
13372TIP3    H261532   0.288   1.741   2.869 -0.5882 -1.7587  1.6461
13373TIP3   OH261533   3.737   1.731  15.292  0.7358  0.2792 -0.0791
13373TIP3    H161534   3.828   1.705  15.275  0.1575  0.5243 -4.0964
13373TIP3    H261535   3.687   1.649  15.285  0.5626  0.1834  1.8990
13374TIP3   OH261536   5.866   4.375   1.766 -0.3962 -0.7126 -0.3447
13374TIP3    H161537   5.933   4.435   1.733 -1.4356  0.0793 -1.0536
13374TIP3    H261538   5.812   4.356   1.689 -0.2301 -2.3778 -0.0751
13375TIP3   OH261539   3.780   0.341  15.145 -0.0608 -0.0153  0.0609
13375TIP3    H161540   3.743   0.258  15.176 -0.4662 -0.3826 -1.3797
13375TIP3    H261541   3.704   0.397  15.130  0.2327  0.8100  1.4969
13376TIP3   OH261542   3.060   2.071   1.079  0.2892 -0.0612 -0.1778
13376TIP3    H161543   3.090   1.992   1.124 -1.4675  0.1401  1.3924
13376TIP3    H261544   2.983   2.043   1.030 -1.0172  0.9109  1.2933
13377TIP3   OH261545   1.842   5.996  11.814 -0.5276  0.8723 -0.3330
13377TIP3    H161546   1.825   6.055  11.740 -0.6612 -0.1667 -1.1434
13377TIP3    H261547   1.937   5.998  11.826 -0.6601  2.3684  0.5893
13378TIP3   OH261548   4.307   2.622  12.673 -0.1637  0.0416  0.5168
13378TIP3    H161549   4.394   2.600  12.639 -0.3275  0.5224 -0.2285
13378TIP3    H261550   4.293   2.713  12.647 -1.3968 -0.4058 -0.4593
13379TIP3   OH261551   5.220   4.740   5.759  0.2895  0.6205  0.1170
13379TIP3    H161552   5.190   4.685   5.686  2.9091  1.5146 -1.6986
13379TIP3    H261553   5.139   4.778   5.795 -1.1129 -0.4029 -1.8428
13380TIP3   OH261554   2.970   6.361  15.699 -0.1641 -0.4997  0.2606
13380TIP3    H161555   2.900   6.383  15.761 -0.2896 -2.0690  0.6889
13380TIP3    H261556   2.994   6.445  15.660 -0.3860  0.4607  2.1043
13381TIP3   OH261557   4.024   4.120  13.447 -0.0554  0.5886 -0.0447
13381TIP3    H161558   4.079   4.171  13.387 -0.5694  1.2632  0.0476
13381TIP3    H261559   4.031   4.030  13.416  4.9486 -0.1709  2.7952
13382TIP3   OH261560   2.325   3.095  16.294 -0.2031 -0.3644  0.0914
13382TIP3    H161561   2.255   3.138  16.245 -1.4121 -0.9730  1.2347
13382TIP3    H261562   2.358   3.163  16.353 -1.7562 -0.8069  1.5208
13383TIP3   OH261563   4.373   0.472   1.325 -0.8130  0.2836  0.0788
13383TIP3    H161564   4.436   0.474   1.253 -0.4051 -0.0444  0.4288
13383TIP3    H261565   4.423   0.495   1.403 -1.0685 -0.2290  0.3980
13384TIP3   OH261566   2.906   0.673  13.452  0.4216  0.6501  0.1927
13384TIP3    H161567   2.829   0.687  13.508  0.5765  2.7956 -0.0696
13384TIP3    H261568   2.958   0.752  13.464  1.6858  0.0215 -1.0626
13385TIP3   OH261569   5.305   4.666  14.682  0.8525  0.4686  0.4170
13385TIP3    H161570   5.369   4.675  14.611  0.1257  0.7047 -0.2167
13385TIP3    H261571   5.299   4.753  14.720 -0.6066  0.9481 -0.8590
13386TIP3   OH261572   6.438   5.247   4.023  0.1340 -0.1251  0.5362
13386TIP3    H161573   6.351   5.207   4.030 -0.2264  0.6545  0.5071
13386TIP3    H261574   6.423   5.341   4.032  0.4528  0.4176 -3.7061
13387TIP3   OH261575   5.641   2.964   0.137  0.2906  0.0069 -0.4269
13387TIP3    H161576   5.676   2.979   0.049 -0.0885  1.3782 -0.3509
13387TIP3    H261577   5.682   3.031   0.192  0.0332 -0.4291  0.3091
13388TIP3   OH261578   5.824   5.210  15.952  0.1125  0.0481  0.2274
13388TIP3    H161579   5.886   5.275  15.918  0.4459  0.2840  1.2641
13388TIP3    H261580   5.750   5.214  15.892 -0.3526  2.2011  0.8941
13389TIP3   OH261581   0.429   4.832  13.906  0.0469 -0.0885  0.4694
13389TIP3    H161582   0.333   4.836  13.898  0.1207  1.0379  0.1503
13389TIP3    H261583   0.462   4.857  13.820  0.6598  2.0266  1.2785
13390TIP3   OH261584   3.471   4.055   3.036 -0.3186  1.1424 -0.1863
13390TIP3    H161585   3.496   4.019   3.121  0.9015  1.4341 -0.3980
13390TIP3    H261586   3.451   3.979   2.982  1.0907  0.8213 -0.2851
13391TIP3   OH261587   3.112   5.755  11.564  0.3014  0.1081 -0.2506
13391TIP3    H161588   3.173   5.826  11.544 -0.2558  0.7283  0.2096
13391TIP3    H261589   3.080   5.776  11.652  1.1780 -1.4734  0.4607
13392TIP3   OH261590   6.438   0.017   2.115 -0.1667 -0.3009 -0.3472
13392TIP3    H161591   6.509   0.021   2.049 -1.7398  1.7232 -1.9707
13392TIP3    H261592   6.461   0.084   2.179 -1.7943  2.0595 -2.1528
13393TIP3   OH261593   3.024   1.960  14.680 -0.3858  0.2854 -0.2425
13393TIP3    H161594   2.988   1.978  14.593  0.2850  0.0606 -0.5705
13393TIP3    H261595   3.114   1.993  14.676 -0.9526  2.0023  0.9819
13394TIP3   OH261596   1.742   3.867   3.187  0.0349 -0.3176  0.1377
13394TIP3    H161597   1.756   3.804   3.258  0.2018  0.5814  0.9060
13394TIP3    H261598   1.801   3.940   3.207 -1.6636  1.0098  0.3683
13395TIP3   OH261599   6.488   6.589   4.928  0.3803 -0.2643 -0.2995
13395TIP3    H161600   6.509   6.681   4.911  0.7340 -0.0798  1.0823
13395TIP3    H261601   6.413   6.592   4.988 -1.0508 -0.9059 -1.9919
13396TIP3   OH261602   4.788   5.688  11.019  0.2354  0.6515 -0.3968
13396TIP3    H161603   4.831   5.652  10.942  0.1981 -0.6660  0.1898
13396TIP3    H261604   4.831   5.645  11.093  0.8381  2.5106  0.3648
13397TIP3   OH261605   1.831   2.638  16.447 -0.0649  0.2690 -0.4884
13397TIP3    H161606   1.784   2.561  16.479 -0.2472  0.2188 -0.8634
13397TIP3    H261607   1.818   2.704  16.514 -1.4049  0.5258 -0.9902
13398TIP3   OH261608   4.208   0.450  11.742 -0.4425 -0.4098 -0.1504
13398TIP3    H161609   4.253   0.482  11.821 -0.3746 -0.4601 -0.1675
13398TIP3    H261610   4.131   0.404  11.775  0.9222 -2.6725  0.0423
13399TIP3   OH261611   0.756   5.558  12.534  0.4733 -0.2400 -0.3006
13399TIP3    H161612   0.776   5.586  12.445  0.9392 -1.0106 -0.4364
13399TIP3    H261613   0.705   5.477  12.523  1.6257 -1.0352  0.1605
13400TIP3   OH261614   5.387   6.125   5.456 -0.0425 -0.0901 -0.5096
13400TIP3    H161615   5.362   6.077   5.378 -0.7151  0.6618 -0.7582
13400TIP3    H261616   5.464   6.078   5.490 -1.2962 -1.9459 -0.1713
13401TIP3   OH261617   4.498   6.544   4.612 -0.6069  0.1754  0.0818
13401TIP3    H161618   4.475   6.496   4.532  1.5909 -0.1251 -0.3844
13401TIP3    H261619   4.432   6.515   4.676 -0.7555 -1.6876 -0.8643
13402TIP3   OH261620   6.598   2.510  10.913  0.2726 -0.2292 -0.3584
13402TIP3    H161621   6.690   2.513  10.886  1.0494  1.5550  2.2577
13402TIP3    H261622   6.601   2.478  11.004 -1.7847 -1.0457 -0.5507
13403TIP3   OH261623   5.180   4.668   5.221 -0.7875 -0.4220  0.4896
13403TIP3    H161624   5.112   4.617   5.178 -0.9496  0.0488  0.1868
13403TIP3    H261625   5.137   4.751   5.243  0.2663  0.7134 -1.6131
13404TIP3   OH261626   2.376   5.023  14.982 -0.5601 -0.3039 -0.2569
13404TIP3    H161627   2.375   4.968  14.904 -0.9168 -1.0581  0.2636
13404TIP3    H261628   2.428   5.099  14.958  0.0348 -0.9242 -0.9638
13405TIP3   OH261629   3.003   0.902  13.571 -0.4762 -0.0598  0.1213
13405TIP3    H161630   3.058   0.876  13.644  0.2172 -1.5985 -0.9309
13405TIP3    H261631   2.922   0.934  13.611 -0.8208 -2.5597  1.5132
13406TIP3   OH261632   3.129   2.766   0.614  0.3303  0.0684 -0.6773
13406TIP3    H161633   3.052   2.727   0.574 -0.2920 -0.1254  0.6974
13406TIP3    H261634   3.142   2.848   0.566 -1.3529  0.6132 -0.2320
13407TIP3   OH261635   6.216   5.230  15.695 -0.5453  0.5004  0.1344
13407TIP3    H161636   6.290   5.185  15.655 -0.6287  0.8962 -0.4813
13407TIP3    H261637   6.181   5.284  15.624 -1.2942  0.4692  0.4779
13408TIP3   OH261638   2.584   0.710   3.232 -0.0966 -0.3476  0.2148
13408TIP3    H161639   2.629   0.795   3.229  0.8179 -0.7621  1.9448
13408TIP3    H261640   2.494   0.731   3.257  0.2902  0.0599  1.2848
13409TIP3   OH261641   0.197   5.659  10.886  0.2133 -0.4301  0.0009
13409TIP3    H161642   0.138   5.628  10.817  1.6457  1.6480 -2.2464
13409TIP3    H261643   0.285   5.645  10.852  0.9726 -0.0010  1.7078
13410TIP3   OH261644   2.352   0.729   3.029  1.0780 -0.6074 -0.2397
13410TIP3    H161645   2.345   0.723   3.124 -0.0270  1.6396 -0.1591
13410TIP3    H261646   2.310   0.650   2.996  1.4597 -1.3836  1.1305
13411TIP3   OH261647   4.865   3.952   0.949  0.0996 -0.5602 -0.4266
13411TIP3    H161648   4.893   3.868   0.986  0.6526  0.0016  0.4231
13411TIP3    H261649   4.902   4.018   1.008 -0.9968  0.2558 -0.6470
13412TIP3   OH261650   0.008   5.388   0.304  0.1659 -0.4202 -0.0113
13412TIP3    H161651  -0.041   5.469   0.288  0.7473 -0.1134 -0.2687
13412TIP3    H261652   0.100   5.416   0.308  0.2448 -0.8598  1.3301
13413TIP3   OH261653   1.992   5.087   3.168 -0.6880  0.6460  0.0416
13413TIP3    H161654   2.043   5.122   3.095  0.0568 -0.3224  0.0843
13413TIP3    H261655   2.053   5.028   3.213 -1.3436  0.7415  1.0620
13414TIP3   OH261656   3.453   2.274  13.791 -0.2682 -0.5849  0.0098
13414TIP3    H161657   3.380   2.221  13.822 -0.5139 -1.1143 -1.4339
13414TIP3    H261658   3.419   2.319  13.713 -0.0450  1.6409  1.1472
13415TIP3   OH261659   5.074   6.354  12.339  0.1289 -0.0294  0.0597
13415TIP3    H161660   5.100   6.362  12.431 -0.7186 -0.0523  0.3072
13415TIP3    H261661   5.009   6.422  12.326  0.3833  0.0963 -0.5822
13416TIP3   OH261662   2.520   3.169   4.578 -0.4183  0.6320 -0.3922
13416TIP3    H161663   2.511   3.083   4.538 -0.7165  0.3940  0.1779
13416TIP3    H261664   2.509   3.153   4.672 -1.0749  1.3716 -0.3393
13417TIP3   OH261665   0.411   6.551  10.640 -0.0423  0.5057  0.6449
13417TIP3    H161666   0.467   6.611  10.592 -1.7965  2.1576  0.6016
13417TIP3    H261667   0.361   6.505  10.572  0.8287 -0.5725  0.7084
13418TIP3   OH261668   4.253   1.936  17.109 -0.3970 -1.1104  0.6262
13418TIP3    H161669   4.168   1.895  17.096 -0.4848 -0.3707 -1.2805
13418TIP3    H261670   4.233   2.030  17.113  0.5821 -0.7428 -2.3529
13419TIP3   OH261671   4.316   4.075   3.151  0.3310  0.3365  0.1761
13419TIP3    H161672   4.401   4.118   3.154  0.5396  0.0918 -1.7293
13419TIP3    H261673   4.253   4.148   3.142  0.5410  0.3741 -1.0560
13420TIP3   OH261674   6.292   5.006  15.405 -0.0462 -0.3407 -0.2452
13420TIP3    H161675   6.382   5.033  15.421 -0.6503  0.5666  1.8716
13420TIP3    H261676   6.281   5.014  15.310  1.9159  0.0847 -0.4667
13421TIP3   OH261677   4.606   6.335  14.743  0.1160 -0.3135  0.1813
13421TIP3    H161678   4.632   6.297  14.827 -0.7853  0.9957  1.0746
13421TIP3    H261679   4.672   6.304  14.681  1.6864 -0.0256  1.6756
13422TIP3   OH261680   3.340   5.684  15.890 -0.1105  0.2729  0.0804
13422TIP3    H161681   3.434   5.664  15.892  0.1603  1.5185  0.1305
13422TIP3    H261682   3.317   5.681  15.797 -0.5337 -2.2720  0.2279
13423TIP3   OH261683   4.926   3.799  16.550 -0.2884  0.2978 -0.1657
13423TIP3    H161684   4.834   3.798  16.575 -0.3366  1.3248 -0.2859
13423TIP3    H261685   4.945   3.708  16.525 -0.4592 -0.5656  2.6951
13424TIP3   OH261686   3.745   0.902  15.660  0.1726 -0.1210  0.4685
13424TIP3    H161687   3.661   0.857  15.647 -0.1211  0.4475  0.3561
13424TIP3    H261688   3.802   0.869  15.591 -0.1860  0.0161  0.1017
13425TIP3   OH261689   3.257   1.337   0.987  0.0150  0.0246 -0.2851
13425TIP3    H161690   3.236   1.423   0.952  0.3953  0.5449  0.7454
13425TIP3    H261691   3.238   1.276   0.916 -1.9585  0.7818 -0.4331
13426TIP3   OH261692   1.256   0.472  11.835  0.5641 -0.3399  0.3852
13426TIP3    H161693   1.350   0.472  11.853  0.6048  1.5310  0.2497
13426TIP3    H261694   1.250   0.453  11.741  0.8071 -0.4546  0.3909
13427TIP3   OH261695   4.275   5.234   5.288 -0.2220 -0.3682  0.6341
13427TIP3    H161696   4.209   5.293   5.252 -0.0149 -1.0477 -0.9047
13427TIP3    H261697   4.322   5.201   5.212  0.5568 -1.4719  1.5709
13428TIP3   OH261698   3.994   2.502  10.999 -0.5307 -0.0426 -0.0860
13428TIP3    H161699   4.088   2.486  10.988 -0.5763  1.0348 -2.4061
13428TIP3    H261700   3.954   2.462  10.922 -1.8442  0.6453  0.2279
13429TIP3   OH261701   2.323   5.693  12.731  0.1460 -0.4469 -0.1550
13429TIP3    H161702   2.325   5.684  12.826 -0.8134 -0.7477 -0.1553
13429TIP3    H261703   2.278   5.776  12.715 -0.0935 -0.6149 -0.3529
13430TIP3   OH261704   4.539   4.941   0.183  0.1515 -1.0933 -0.8036
13430TIP3    H161705   4.587   4.859   0.166  0.7218 -0.8466 -0.3873
13430TIP3    H261706   4.483   4.921   0.258  0.8307 -0.8881 -0.2350
13431TIP3   OH261707   5.394   4.739   0.264  0.1068 -0.1538 -0.0967
13431TIP3    H161708   5.478   4.777   0.293 -0.0695  0.0729  0.1217
13431TIP3    H261709   5.331   4.810   0.275 -0.3699 -0.7371  1.0318
13432TIP3   OH261710   0.694   0.605   1.110  0.0548  0.6107  0.2982
13432TIP3    H161711   0.752   0.540   1.149  2.2878  1.1113 -2.0195
13432TIP3    H261712   0.638   0.554   1.051 -0.6782  0.3490  1.2120
13433TIP3   OH261713   4.309   0.441   1.796 -0.2842  0.7341  0.0992
13433TIP3    H161714   4.283   0.356   1.831 -1.6228  0.9498 -0.3329
13433TIP3    H261715   4.273   0.505   1.858 -1.9970  1.0842 -1.2152
13434TIP3   OH261716   1.991   3.909  13.161  0.1947 -0.1262 -0.9016
13434TIP3    H161717   2.068   3.931  13.213 -0.6223  0.2600  0.1503
13434TIP3    H261718   1.969   3.990  13.115  0.8660 -0.4444 -1.7968
13435TIP3   OH261719   4.044   0.225  16.801 -0.6484  0.5871 -0.2772
13435TIP3    H161720   3.967   0.254  16.752 -1.8245  0.8164  1.6535
13435TIP3    H261721   4.059   0.295  16.864 -1.5017 -1.4360  2.2417
13436TIP3   OH261722   2.188   5.920  12.644  0.2920  0.6714 -0.2573
13436TIP3    H161723   2.225   6.007  12.662  0.9524  0.0940  1.1759
13436TIP3    H261724   2.172   5.921  12.549  0.0875  2.4375 -0.2175
13437TIP3   OH261725   3.097   6.668   0.110  0.1921 -0.4529  0.6008
13437TIP3    H161726   3.042   6.600   0.073 -1.5831  1.4069 -0.2745
13437TIP3    H261727   3.076   6.668   0.203  1.8157 -2.5221  1.0128
13438TIP3   OH261728   2.395   2.007  12.707 -0.0678 -0.1532 -0.1844
13438TIP3    H161729   2.316   1.953  12.700  0.0114 -0.3734  0.4840
13438TIP3    H261730   2.400   2.055  12.625 -1.6925  0.9418  0.3347
13439TIP3   OH261731   2.243   3.467   3.861  0.0100 -0.2507 -0.2349
13439TIP3    H161732   2.207   3.504   3.941  1.9987  1.6664 -0.1691
13439TIP3    H261733   2.226   3.373   3.868 -1.4587  0.1263  1.5598
13440TIP3   OH261734   2.427   0.867  13.765  0.7224  0.4660  0.2442
13440TIP3    H161735   2.449   0.774  13.759 -0.3623  0.1817  0.5090
13440TIP3    H261736   2.355   0.870  13.829  1.2420  1.5680  0.7968
13441TIP3   OH261737   6.769   0.180  14.078 -0.5685 -0.2926  0.4589
13441TIP3    H161738   6.851   0.216  14.044 -0.5407  0.2870  1.1274
13441TIP3    H261739   6.707   0.253  14.073 -0.6503 -0.3002  1.3384
13442TIP3   OH261740   6.285   4.481  11.328  0.0983 -0.0474 -0.3163
13442TIP3    H161741   6.226   4.412  11.359  0.4947 -1.3531 -2.4040
13442TIP3    H261742   6.240   4.520  11.253  1.3832 -0.2947 -1.2299
13443TIP3   OH261743   1.079   0.398  14.063 -0.1701 -0.4193 -0.2752
13443TIP3    H161744   1.070   0.396  14.159 -1.3584  1.3321 -0.3198
13443TIP3    H261745   1.167   0.434  14.048 -0.4812  0.5188  0.1498
13444TIP3   OH261746   2.406   0.825  12.659 -0.3395 -0.0987 -0.0680
13444TIP3    H161747   2.319   0.865  12.665 -1.1186 -1.9449  1.7896
13444TIP3    H261748   2.388   0.732  12.644  1.3234 -0.4962  0.3422
13445TIP3   OH261749   2.374   1.309   4.283  0.3075  0.0636 -0.1292
13445TIP3    H161750   2.461   1.305   4.243  1.0370 -2.8473  1.6054
13445TIP3    H261751   2.388   1.356   4.365  0.1060  0.1514 -0.1454
13446TIP3   OH261752   2.233   5.100  11.570  0.0817  0.0652  0.5693
13446TIP3    H161753   2.310   5.094  11.514  1.9775 -1.0434  3.1597
13446TIP3    H261754   2.159   5.086  11.511  1.9859 -1.0281 -1.6496
13447TIP3   OH261755   3.825   1.062   3.540  0.4691 -0.0203  0.4446
13447TIP3    H161756   3.741   1.107   3.531  0.2988 -0.4254 -0.0216
13447TIP3    H261757   3.815   1.008   3.618 -0.1434 -1.0020 -0.3003
13448TIP3   OH261758   3.861   1.934   0.612  0.2824 -0.0044 -0.2328
13448TIP3    H161759   3.894   1.863   0.667 -2.0392 -1.7231 -1.0156
13448TIP3    H261760   3.926   1.941   0.541  0.9176 -0.8205  0.2595
13449TIP3   OH261761   5.578   2.487  13.970 -0.1138 -0.2895  0.1520
13449TIP3    H161762   5.631   2.410  13.994 -0.8679 -0.7348  0.3942
13449TIP3    H261763   5.643   2.553  13.943  0.5595 -0.8764  0.3170
13450TIP3   OH261764   3.166   3.233  13.804 -0.7012 -0.0253  0.0835
13450TIP3    H161765   3.126   3.181  13.735  1.3003 -0.0696 -1.0608
13450TIP3    H261766   3.161   3.323  13.772 -1.4814  0.1869  0.7548
13451TIP3   OH261767   5.287   4.646  16.169 -0.0812 -0.1542  0.0508
13451TIP3    H161768   5.304   4.586  16.241 -5.5874 -1.6057  0.3524
13451TIP3    H261769   5.244   4.721  16.209 -1.3984 -0.0930 -1.4153
13452TIP3   OH261770   1.777   2.130   6.453 -0.0993 -0.1348 -0.3494
13452TIP3    H161771   1.838   2.158   6.521  0.2214  0.5508 -0.9134
13452TIP3    H261772   1.776   2.034   6.460  1.1294 -0.1651 -0.4051
13453TIP3   OH261773   2.848   5.862   0.432  0.0574  0.5467 -0.7410
13453TIP3    H161774   2.802   5.938   0.397 -5.2881 -1.4702  1.4191
13453TIP3    H261775   2.892   5.894   0.510 -1.3029  1.6530 -0.4145
13454TIP3   OH261776   2.359   0.472   5.843 -0.3476 -0.6193 -0.2112
13454TIP3    H161777   2.404   0.508   5.767 -2.1360 -1.1537 -1.5575
13454TIP3    H261778   2.406   0.509   5.918  1.1409  0.3023 -1.5552
13455TIP3   OH261779   6.475   4.034  11.179 -0.0274  0.2031  0.1768
13455TIP3    H161780   6.531   3.957  11.190  0.3059  0.0406 -2.2528
13455TIP3    H261781   6.389   4.007  11.210 -0.0967 -1.4394 -1.3306
13456TIP3   OH261782   3.877   6.315   1.376 -0.2196 -0.2921  0.1149
13456TIP3    H161783   3.832   6.231   1.382 -1.9584  0.5460 -0.7344
13456TIP3    H261784   3.872   6.338   1.283 -0.5922  1.1895  0.4870
13457TIP3   OH261785   5.995   1.330  11.572 -0.7206  0.8056 -0.2062
13457TIP3    H161786   6.077   1.377  11.591 -0.7901  0.6662  0.4372
13457TIP3    H261787   6.024   1.244  11.542 -0.6271  0.8456 -0.2344
13458TIP3   OH261788   4.949   0.069  15.933 -0.1363  0.4356 -0.2235
13458TIP3    H161789   4.949   0.069  15.837 -0.7859 -0.2933 -0.2311
13458TIP3    H261790   4.857   0.054  15.956  0.1718 -0.3102  0.5121
13459TIP3   OH261791   2.816   2.983   1.853  0.7160  0.7176 -0.7014
13459TIP3    H161792   2.895   2.944   1.814  0.2183 -2.3378  1.2233
13459TIP3    H261793   2.744   2.944   1.804  0.3071  2.0785 -1.2042
13460TIP3   OH261794   3.082   5.120  16.677 -0.2531  0.1602  0.8866
13460TIP3    H161795   3.113   5.030  16.665 -0.2980 -0.1212  2.6962
13460TIP3    H261796   2.994   5.110  16.714 -0.5477  0.9661  0.4299
13461TIP3   OH261797   6.072   0.009  13.854  0.1359 -0.2045 -0.0535
13461TIP3    H161798   6.121  -0.059  13.808  0.7939  0.6295 -0.6003
13461TIP3    H261799   5.980  -0.009  13.833  0.1975 -1.7540  0.9576
13462TIP3   OH261800   6.356   4.826  14.027 -0.4126  0.0282  0.2779
13462TIP3    H161801   6.370   4.910  14.072  1.0466 -0.8704  1.5629
13462TIP3    H261802   6.421   4.825  13.957  0.1767 -0.4076  0.8250
13463TIP3   OH261803   2.745   0.287   6.231 -0.2058  0.0710 -0.3073
13463TIP3    H161804   2.679   0.315   6.295 -0.7715  2.5796 -1.9355
13463TIP3    H261805   2.713   0.202   6.200 -0.3391 -0.8136  2.1046
13464TIP3   OH261806   4.320   4.100  16.737  0.3318  0.1617  0.1547
13464TIP3    H161807   4.255   4.103  16.807  1.6622  0.1137  1.4035
13464TIP3    H261808   4.381   4.171  16.757 -0.2764  1.3381 -1.9661
13465TIP3   OH261809   5.867   1.918  11.749  0.2558  0.0980 -0.6774
13465TIP3    H161810   5.820   1.952  11.826 -0.4075 -1.9907 -0.1319
13465TIP3    H261811   5.814   1.945  11.674 -0.9137 -0.7556 -0.1703
13466TIP3   OH261812   4.449   3.477  13.666 -0.3210  0.2606  0.1146
13466TIP3    H161813   4.531   3.434  13.640 -0.5838 -0.3051  0.2226
13466TIP3    H261814   4.474   3.534  13.740 -0.0423  0.0270  0.2006
13467TIP3   OH261815   2.737   3.518   1.196 -0.1257  0.0273 -0.1568
13467TIP3    H161816   2.776   3.602   1.174 -1.4162  0.3367 -1.2974
13467TIP3    H261817   2.811   3.465   1.225  1.0605  0.8375 -1.6052
13468TIP3   OH261818   5.943   6.587   2.159 -0.3714 -0.2088 -0.0457
13468TIP3    H161819   6.036   6.574   2.176 -0.6993 -2.4109  0.1124
13468TIP3    H261820   5.899   6.550   2.236 -1.4124  0.3316 -0.3682
13469TIP3   OH261821   6.035   1.268  15.650 -0.3836  0.0690 -0.2614
13469TIP3    H161822   6.088   1.190  15.640  0.7024  0.4446  2.3028
13469TIP3    H261823   5.951   1.236  15.683  1.2432  0.1882  4.3935
13470TIP3   OH261824   5.682   4.612  11.360  0.1313  0.7357 -0.2749
13470TIP3    H161825   5.769   4.645  11.380 -0.4984  2.2741 -0.0231
13470TIP3    H261826   5.673   4.624  11.265  0.6108 -0.4808 -0.4880
13471TIP3   OH261827   5.928   2.907   3.890 -0.1421  0.1815  0.4921
13471TIP3    H161828   5.897   2.971   3.827  0.1630  0.2349  0.3935
13471TIP3    H261829   6.021   2.895   3.869 -0.8615 -2.4590 -1.3543
13472TIP3   OH261830   4.440   4.232   0.377  0.5931  0.0499 -0.7636
13472TIP3    H161831   4.397   4.152   0.346  1.3761 -0.3949 -0.7207
13472TIP3    H261832   4.424   4.233   0.471  1.9334 -0.9136 -0.5008
13473TIP3   OH261833   2.732   0.212  11.901 -0.1797 -0.9268 -0.6029
13473TIP3    H161834   2.680   0.139  11.868 -2.9203  1.3296 -1.4244
13473TIP3    H261835   2.712   0.216  11.994  0.0377 -1.2593 -0.5413
13474TIP3   OH261836   5.257   6.144  12.266  0.2244 -0.3656  0.5795
13474TIP3    H161837   5.190   6.176  12.327  0.9038  0.9458  0.6466
13474TIP3    H261838   5.327   6.209  12.271  1.8800 -2.1330  1.1364
13475TIP3   OH261839   5.732   0.681   0.095  0.1897  0.0627  0.1219
13475TIP3    H161840   5.779   0.658   0.015  0.5199  1.3337 -0.0524
13475TIP3    H261841   5.644   0.704   0.066  0.2402  0.2934  0.1518
13476TIP3   OH261842   5.101   0.578  13.238 -0.0024  0.6916  0.4732
13476TIP3    H161843   5.020   0.563  13.287  0.1685  0.4950  0.6974
13476TIP3    H261844   5.171   0.558  13.300  0.2259  1.5230  0.4854
13477TIP3   OH261845   0.332   6.767   4.957  0.3722 -0.1752 -0.2150
13477TIP3    H161846   0.322   6.808   4.871  0.8110 -0.6376 -0.4906
13477TIP3    H261847   0.397   6.820   5.002 -0.5987  0.6681  0.2153
13478TIP3   OH261848   3.174   5.498  12.554 -0.3951  0.4381 -0.2693
13478TIP3    H161849   3.177   5.419  12.500  0.6195 -0.6027  1.2616
13478TIP3    H261850   3.172   5.465  12.644  1.5935  2.1757  0.4424
13479TIP3   OH261851   1.729   4.998   4.121 -0.1229  0.0591  0.1369
13479TIP3    H161852   1.752   4.908   4.146  0.3232  0.3642  0.8292
13479TIP3    H261853   1.663   5.024   4.185  0.5235  0.6022  0.5845
13480TIP3   OH261854   4.882   4.407  12.627 -0.4344 -0.2297  0.5177
13480TIP3    H161855   4.824   4.331  12.636 -0.3024 -0.5861 -1.4037
13480TIP3    H261856   4.966   4.377  12.663 -0.6709 -0.6281  0.7492
13481TIP3   OH261857   6.051   4.492  16.771  0.3092 -0.4220  0.5379
13481TIP3    H161858   6.016   4.420  16.824  1.7428 -2.5799 -1.3872
13481TIP3    H261859   6.145   4.478  16.770  0.5665  1.2642 -0.2196
13482TIP3   OH261860   0.159   6.577  15.187  0.4533  0.4871 -0.1436
13482TIP3    H161861   0.206   6.498  15.213  0.3548  0.4565 -0.0612
13482TIP3    H261862   0.216   6.619  15.123  1.2837  1.2129  1.0567
13483TIP3   OH261863   0.565   1.827   4.085 -0.1935  0.1200 -0.6301
13483TIP3    H161864   0.509   1.821   4.162 -0.8656 -2.3203 -1.2732
13483TIP3    H261865   0.561   1.919   4.059 -0.5167  0.8237  1.8205
13484TIP3   OH261866   5.815   3.824  17.083  0.6522 -0.0072  0.5866
13484TIP3    H161867   5.869   3.850  17.157 -0.7475 -1.0148  2.0033
13484TIP3    H261868   5.878   3.798  17.015  1.9390  0.1129  1.7148
13485TIP3   OH261869   5.867   6.143   3.404  0.1569 -0.1764  0.4831
13485TIP3    H161870   5.900   6.132   3.494 -3.1394 -0.9785  1.6449
13485TIP3    H261871   5.905   6.069   3.356  0.0671 -1.0730  1.7670
13486TIP3   OH261872   1.081   3.961  11.667 -0.1023 -0.6426 -0.0386
13486TIP3    H161873   1.040   4.044  11.691  2.8975  0.3578  1.8817
13486TIP3    H261874   1.061   3.902  11.739 -0.5225 -0.9929 -0.4378
13487TIP3   OH261875   1.602   6.275  13.631 -0.6303  0.0942  0.3805
13487TIP3    H161876   1.587   6.313  13.718 -0.3810 -1.0773  0.9444
13487TIP3    H261877   1.693   6.245  13.633 -0.1128  1.5365 -0.8659
13488TIP3   OH261878   4.875   4.803  13.904  0.4200 -0.6544 -0.3170
13488TIP3    H161879   4.802   4.759  13.861  0.7810 -0.7652 -0.8240
13488TIP3    H261880   4.835   4.855  13.974 -0.1286 -0.7977 -0.5271
13489TIP3   OH261881   4.822   6.053  15.690 -1.0181  0.4910  0.1089
13489TIP3    H161882   4.894   6.027  15.748 -2.5915 -1.8024  1.0970
13489TIP3    H261883   4.800   6.142  15.719 -0.4246  0.1523  1.6865
13490TIP3   OH261884   3.713   3.056   1.202  0.3854  0.5927  0.3381
13490TIP3    H161885   3.667   3.103   1.132  0.8542 -0.6893 -0.8629
13490TIP3    H261886   3.756   2.983   1.157  1.4896  0.2993  1.8263
13491TIP3   OH261887   2.062   3.868   3.560  0.3718 -0.6759  0.0390
13491TIP3    H161888   2.040   3.778   3.581 -2.9670  0.2045  0.5468
13491TIP3    H261889   1.981   3.917   3.574  1.7077  2.1702 -1.6715
13492TIP3   OH261890   6.467   4.418   1.736 -0.3183  0.3026  0.8126
13492TIP3    H161891   6.544   4.456   1.693 -1.5525  0.8046 -1.0209
13492TIP3    H261892   6.435   4.487   1.793  0.0633  0.4079  0.9021
13493TIP3   OH261893   4.813   0.837   4.640  0.4501  0.2911 -0.4939
13493TIP3    H161894   4.749   0.836   4.711 -0.2015 -1.0186 -1.0794
13493TIP3    H261895   4.893   0.801   4.679 -0.2417 -1.5478 -0.7032
13494TIP3   OH261896   4.246   1.666   0.358 -0.0685 -0.1296 -0.1183
13494TIP3    H161897   4.265   1.721   0.282  1.7365  0.3443  0.6602
13494TIP3    H261898   4.223   1.728   0.427 -0.1992 -0.4792  0.1502
13495TIP3   OH261899   6.632   3.632  11.039 -0.3863 -0.2061 -0.0420
13495TIP3    H161900   6.538   3.619  11.027 -0.5807  0.3715  0.7257
13495TIP3    H261901   6.668   3.544  11.047 -0.9514 -0.4171  0.2362
13496TIP3   OH261902   2.192   1.253   3.802  0.2994  0.0579  0.4793
13496TIP3    H161903   2.256   1.306   3.754  1.2407  0.2079  1.8590
13496TIP3    H261904   2.240   1.223   3.880 -1.1785 -0.2002  1.2996
13497TIP3   OH261905   0.120   1.271   2.984  0.0321 -0.7301 -0.1082
13497TIP3    H161906   0.162   1.240   2.903  0.9599 -2.2270  0.9212
13497TIP3    H261907   0.175   1.236   3.054 -0.1974  1.3596  1.1768
13498TIP3   OH261908   5.170   4.607   3.830  0.4861  0.1880  0.1615
13498TIP3    H161909   5.256   4.600   3.870 -0.6306 -1.8246  2.3072
13498TIP3    H261910   5.164   4.532   3.771 -0.2963 -0.4707  1.0598
13499TIP3   OH261911   4.817   4.702   4.283  0.3002  0.0276  0.1640
13499TIP3    H161912   4.876   4.764   4.241 -0.2256  1.2014  1.1230
13499TIP3    H261913   4.736   4.751   4.296 -0.4165 -1.1266  0.1612
13500TIP3   OH261914   3.719   6.377  15.685 -0.0588 -0.7223 -0.0305
13500TIP3    H161915   3.687   6.465  15.669  0.9465 -0.2082  0.7207
13500TIP3    H261916   3.805   6.374  15.644 -0.3029 -1.5204 -0.4964
13501TIP3   OH261917   3.394   0.369  16.309  0.7936 -0.0660 -0.0962
13501TIP3    H161918   3.328   0.348  16.375  1.1201 -0.7458  0.0170
13501TIP3    H261919   3.379   0.462  16.290 -0.8855 -0.4732 -0.8570
13502TIP3   OH261920   2.035   4.208   2.469 -0.5506  0.5075 -0.1660
13502TIP3    H161921   2.062   4.292   2.505 -0.5962  0.9071 -1.0532
13502TIP3    H261922   2.117   4.165   2.443 -0.5669  0.5308 -0.2569
13503TIP3   OH261923   6.652   1.475   4.779 -0.3463  0.5633  0.3030
13503TIP3    H161924   6.735   1.515   4.802 -0.0703  1.8401 -2.6213
13503TIP3    H261925   6.672   1.420   4.702 -1.9030 -0.3414  0.5157
13504TIP3   OH261926   5.413   3.209   1.591 -0.0728  0.0530  0.1819
13504TIP3    H161927   5.459   3.293   1.594 -0.0105  0.0595 -0.7285
13504TIP3    H261928   5.429   3.169   1.677  0.2084  0.8060  0.4804
13505TIP3   OH261929   1.479   5.547   5.474 -0.1837 -0.1433 -0.1437
13505TIP3    H161930   1.437   5.629   5.448  0.9593 -0.2903 -2.6138
13505TIP3    H261931   1.568   5.572   5.499  0.0806 -0.5828 -0.6354
13506TIP3   OH261932   3.262   4.713  14.041 -0.8093  0.6365  0.0584
13506TIP3    H161933   3.217   4.752  13.966 -1.2371 -1.3024 -0.7251
13506TIP3    H261934   3.298   4.631  14.007 -3.4787 -1.7364  2.6627
13507TIP3   OH261935   4.020   5.014   2.200 -0.0337 -0.0157 -1.0339
13507TIP3    H161936   4.018   4.979   2.289 -0.5074 -0.5656 -1.2587
13507TIP3    H261937   4.058   4.943   2.147 -2.8471 -0.9835 -1.8389
13508TIP3   OH261938   5.009   2.725   5.620  0.6027  0.1369  0.7229
13508TIP3    H161939   5.076   2.664   5.589  0.0740 -0.3158  0.4482
13508TIP3    H261940   4.965   2.755   5.541  0.7969  0.8023  0.8681
13509TIP3   OH261941   4.693   1.898  13.554 -0.5272  0.0412 -0.6343
13509TIP3    H161942   4.747   1.871  13.629 -1.2156  0.4796  0.0210
13509TIP3    H261943   4.642   1.972  13.587 -0.8946  0.1782 -1.5149
13510TIP3   OH261944   4.233   0.552  14.668  0.0223 -0.0294  0.1036
13510TIP3    H161945   4.239   0.519  14.579 -0.0014  0.4015 -0.0577
13510TIP3    H261946   4.143   0.534  14.695 -0.3587  1.0226 -0.4267
13511TIP3   OH261947   5.671   1.578  16.800 -0.0239 -0.1844  0.3502
13511TIP3    H161948   5.705   1.660  16.837  0.7472 -0.8636  1.1869
13511TIP3    H261949   5.643   1.601  16.711 -0.0523  1.0380  0.6674
13512TIP3   OH261950   2.136   1.911  12.888  0.4338  0.3539 -0.5371
13512TIP3    H161951   2.084   1.905  12.808  0.9527  1.2596 -0.9454
13512TIP3    H261952   2.082   1.963  12.947  0.1891 -0.0524 -0.3942
13513TIP3   OH261953   0.079   1.130  14.891 -0.2941  0.2536  0.6028
13513TIP3    H161954   0.158   1.107  14.939 -0.1192  1.2005  0.7860
13513TIP3    H261955   0.065   1.223  14.911 -1.0310  0.2825 -0.0187
13514TIP3   OH261956   5.123   4.061  12.903 -0.3165  0.4091 -0.3036
13514TIP3    H161957   5.063   3.999  12.861  0.0354 -1.5004  1.9614
13514TIP3    H261958   5.066   4.127  12.942 -1.0782 -1.8757  2.6161
13515TIP3   OH261959   3.156   0.008   3.411  0.2318  0.1719 -0.2204
13515TIP3    H161960   3.081  -0.045   3.436 -0.1064  0.9751  0.5312
13515TIP3    H261961   3.228  -0.026   3.464 -0.2466  1.1869  1.1264
13516TIP3   OH261962   4.656   5.956  13.782  0.0936 -0.1417  0.2761
13516TIP3    H161963   4.636   5.981  13.692  1.1753  0.8325  0.2914
13516TIP3    H261964   4.573   5.924  13.817 -0.7016  0.9214 -0.5964
13517TIP3   OH261965   1.644   1.247  11.541 -0.2277 -0.0255 -0.3490
13517TIP3    H161966   1.716   1.237  11.603 -1.0347 -1.4933  0.3765
13517TIP3    H261967   1.686   1.253  11.455  0.7890 -0.2321  0.1361
13518TIP3   OH261968   0.837   4.529   5.752 -0.2499 -0.0297 -0.1304
13518TIP3    H161969   0.747   4.537   5.782  0.0088  0.0520  0.6431
13518TIP3    H261970   0.888   4.513   5.832  0.7143  2.2058 -0.2463
13519TIP3   OH261971   2.050   2.864   2.744  0.3169  0.0798  0.6727
13519TIP3    H161972   2.126   2.863   2.686 -1.3705 -0.5054 -1.5920
13519TIP3    H261973   2.055   2.781   2.791 -0.3539 -1.1537 -1.4032
13520TIP3   OH261974   0.196   3.627  12.346 -0.1605 -0.1463 -0.1726
13520TIP3    H161975   0.159   3.580  12.420 -0.3607  0.2661 -0.0102
13520TIP3    H261976   0.132   3.613  12.275 -2.0376  2.7878  0.8288
13521TIP3   OH261977   2.089   4.547   4.032 -0.6373  0.1031 -0.1323
13521TIP3    H161978   2.054   4.492   4.102  0.5220 -0.6311 -0.1099
13521TIP3    H261979   2.166   4.588   4.071  1.2080 -1.8761 -1.5523
13522TIP3   OH261980   2.389   4.158  13.505 -0.1359  0.1990 -0.2073
13522TIP3    H161981   2.382   4.245  13.544  1.3315  1.2445 -2.1788
13522TIP3    H261982   2.306   4.145  13.459 -0.7252  0.1639  0.8627
13523TIP3   OH261983   0.874   2.961  13.843  0.0057  0.2250 -0.3295
13523TIP3    H161984   0.910   2.933  13.928 -2.1649  1.6130  1.0985
13523TIP3    H261985   0.787   2.993  13.864 -1.4140 -1.3989 -3.4414
13524TIP3   OH261986   4.423   1.927   2.589 -0.5021 -0.0136 -0.4234
13524TIP3    H161987   4.387   1.939   2.677  1.0499 -1.8856  0.5299
13524TIP3    H261988   4.354   1.881   2.541 -0.9279 -0.0025  0.1702
13525TIP3   OH261989   1.904   5.408   5.599 -0.7473 -0.1799 -0.2095
13525TIP3    H161990   1.846   5.346   5.555 -1.6090  1.6268 -1.6595
13525TIP3    H261991   1.888   5.394   5.692 -0.6527 -2.3753 -0.4866
13526TIP3   OH261992   1.373   6.751   3.924 -0.2194 -0.0485 -0.1475
13526TIP3    H161993   1.446   6.797   3.881  2.4706 -0.3701  3.8142
13526TIP3    H261994   1.306   6.818   3.937  0.5363  0.9451 -1.2798
13527TIP3   OH261995   0.248   4.946  14.404  0.4588 -0.5454 -0.0345
13527TIP3    H161996   0.241   5.042  14.408 -0.1027 -0.5248 -1.3150
13527TIP3    H261997   0.256   4.927  14.311  1.1946 -1.7175  0.2599
13528TIP3   OH261998   4.099   0.607  14.951 -0.4915  0.2091  0.3413
13528TIP3    H161999   4.120   0.548  15.023  1.6631  0.8584  0.2933
13528TIP3    H262000   4.026   0.565  14.906 -0.3214 -1.3861  1.4932
13529TIP3   OH262001   4.544   1.170   0.813  0.0019 -0.6487  0.3647
13529TIP3    H162002   4.632   1.140   0.835  0.0316 -0.4102  0.5772
13529TIP3    H262003   4.514   1.216   0.891  0.1936  0.3941 -0.1583
13530TIP3   OH262004   3.574   3.599  16.786 -0.2436  0.6170 -0.4690
13530TIP3    H162005   3.531   3.513  16.790 -0.3535  0.7636  2.6082
13530TIP3    H262006   3.505   3.661  16.809  0.4389  1.3014 -0.2493
13531TIP3   OH262007   2.413   1.959  13.041 -0.0623  0.6983 -0.0784
13531TIP3    H162008   2.334   1.934  12.993  1.6582 -1.8626 -1.7225
13531TIP3    H262009   2.440   2.041  13.001 -0.4863  0.2737 -1.2623
13532TIP3   OH262010   3.701   6.526   1.688  0.0534  0.4420  0.0786
13532TIP3    H162011   3.608   6.507   1.679  0.2701 -1.7458  1.9255
13532TIP3    H262012   3.720   6.591   1.620 -3.3638  2.8992  1.3374
13533TIP3   OH262013   3.600   1.093   0.842 -0.2022 -0.4990 -0.3244
13533TIP3    H162014   3.538   1.022   0.858 -1.2056  0.9710  2.6471
13533TIP3    H262015   3.685   1.055   0.863 -0.5198 -1.3960 -0.6460
13534TIP3   OH262016   3.207   2.281   5.327  0.4351 -0.1976  0.3166
13534TIP3    H162017   3.202   2.192   5.362  0.0179 -0.2336  0.1745
13534TIP3    H262018   3.151   2.332   5.385 -1.6649 -0.5918 -1.2965
13535TIP3   OH262019   5.893   1.494   4.274  0.3842  0.0365  0.1555
13535TIP3    H162020   5.971   1.465   4.226 -0.4903 -1.5904 -0.3184
13535TIP3    H262021   5.828   1.508   4.205 -0.1060  0.2272  0.6614
13536TIP3   OH262022   1.721   0.324  16.481  0.4818  0.5921  0.4038
13536TIP3    H162023   1.785   0.373  16.533  3.2610 -1.5762 -0.8078
13536TIP3    H262024   1.774   0.277  16.417 -2.5126 -0.0644 -1.6771
13537TIP3   OH262025   3.256   3.947  12.709  0.2496  0.1396 -0.2040
13537TIP3    H162026   3.345   3.981  12.710  0.0011  0.7999  0.0727
13537TIP3    H262027   3.241   3.916  12.799  0.4304 -0.6040 -0.4225
13538TIP3   OH262028   3.897   0.407   2.321 -0.0569  0.3844  0.4069
13538TIP3    H162029   3.977   0.358   2.339 -1.5511 -2.0966  0.5519
13538TIP3    H262030   3.911   0.446   2.235  1.2627 -0.0431  0.4155
13539TIP3   OH262031   4.875   3.377  15.986  0.4248 -0.6375 -0.2237
13539TIP3    H162032   4.926   3.390  15.907 -0.4886  1.1463 -0.5434
13539TIP3    H262033   4.939   3.351  16.052  1.5066  0.0250 -1.0038
13540TIP3   OH262034   3.322   2.579  14.400 -0.3113 -0.3885  0.2902
13540TIP3    H162035   3.351   2.670  14.389 -1.0995 -0.1976 -0.3196
13540TIP3    H262036   3.251   2.585  14.464 -1.5092 -0.3299 -1.0136
13541TIP3   OH262037   2.087   0.714   6.204 -0.1645 -0.0510 -0.1270
13541TIP3    H162038   2.182   0.705   6.194 -0.4060 -1.9611 -0.9484
13541TIP3    H262039   2.060   0.765   6.128  0.0748 -0.5084 -0.5256
13542TIP3   OH262040   5.392   5.503  13.842  0.6782  0.4644  0.1342
13542TIP3    H162041   5.309   5.461  13.817  0.4812  0.0569  1.4314
13542TIP3    H262042   5.440   5.435  13.889  2.0502  0.4999 -1.1896
13543TIP3   OH262043   5.347   5.038   0.870  0.3457 -0.0599 -0.2344
13543TIP3    H162044   5.324   5.007   0.957  2.0342  0.9241  0.5860
13543TIP3    H262045   5.264   5.044   0.824 -0.5810 -0.4066  1.3646
13544TIP3   OH262046   0.683   5.026   0.621 -0.5751 -0.1936  0.1287
13544TIP3    H162047   0.652   5.109   0.585 -0.3296  0.2393  0.8962
13544TIP3    H262048   0.772   5.045   0.652  0.6685 -1.5319 -2.4818
13545TIP3   OH262049   3.274   1.250  14.279 -0.3612 -0.0570 -0.3156
13545TIP3    H162050   3.273   1.247  14.184  0.1432 -0.2518 -0.3165
13545TIP3    H262051   3.297   1.341  14.300 -0.0467 -0.1194 -0.3833
13546TIP3   OH262052   2.924   4.233   3.709 -0.1475 -0.0500 -0.4413
13546TIP3    H162053   2.850   4.214   3.767  0.2313  0.9702  0.3911
13546TIP3    H262054   2.998   4.185   3.747  0.6213  2.3667  1.2123
13547TIP3   OH262055   5.633   4.747  13.383 -0.0313 -0.5647  0.0028
13547TIP3    H162056   5.595   4.661  13.401  1.2580 -1.0898  0.3147
13547TIP3    H262057   5.582   4.781  13.310 -2.4237 -0.3569  1.6884
13548TIP3   OH262058   5.100   2.495  15.476  0.2613 -0.5962  0.9346
13548TIP3    H162059   5.167   2.485  15.408  0.3443  0.7276  0.8053
13548TIP3    H262060   5.073   2.406  15.497  0.7087 -1.0459 -0.3736
13549TIP3   OH262061   5.937   1.385  15.956 -0.1867 -1.0089  0.5338
13549TIP3    H162062   5.850   1.359  15.988 -0.3470  1.5162  2.2726
13549TIP3    H262063   5.919   1.443  15.882 -0.0243  0.4214  1.6042
13550TIP3   OH262064   6.185   1.783   2.306 -0.2390 -0.0002  0.3617
13550TIP3    H162065   6.155   1.835   2.231 -1.3394 -0.6641  0.3410
13550TIP3    H262066   6.155   1.694   2.288  0.2180 -0.3296  1.1912
13551TIP3   OH262067   6.389   0.133  16.946 -0.1718  0.3347 -0.1823
13551TIP3    H162068   6.448   0.173  17.010 -0.0828  1.8175 -1.1712
13551TIP3    H262069   6.309   0.185  16.951 -0.5268 -0.1745 -0.5590
13552TIP3   OH262070   3.237   3.104  13.360 -0.0782  0.1518 -0.2105
13552TIP3    H162071   3.142   3.102  13.375 -0.3494 -0.0416 -1.8454
13552TIP3    H262072   3.256   3.196  13.339  0.1418  0.2373  0.3538
13553TIP3   OH262073   0.246   5.987   4.019  0.0540 -0.2336 -0.0042
13553TIP3    H162074   0.221   6.079   4.015 -0.4781 -0.3855 -0.2784
13553TIP3    H262075   0.223   5.959   4.107  0.0873 -0.1361  0.0342
13554TIP3   OH262076   3.081   3.467   3.645 -0.1475 -0.2051  0.0541
13554TIP3    H162077   3.096   3.483   3.552  0.3276  0.2418  0.2010
13554TIP3    H262078   3.030   3.386   3.648  0.1098 -0.3951 -0.5784
13555TIP3   OH262079   1.493   5.861   2.635  0.3888 -0.1651 -0.4804
13555TIP3    H162080   1.537   5.890   2.715 -0.6298 -0.4328  0.1782
13555TIP3    H262081   1.530   5.774   2.619  0.1834 -0.3514  0.0229
13556TIP3   OH262082   5.817   2.083   4.127  0.4829  0.1421  0.1603
13556TIP3    H162083   5.780   2.001   4.160  1.8748 -0.4789  0.2473
13556TIP3    H262084   5.838   2.133   4.206  1.1085 -0.0997  0.1489
13557TIP3   OH262085   1.121   2.823   5.549  0.3739  0.0614 -0.1401
13557TIP3    H162086   1.120   2.751   5.486 -1.0061  0.2536 -0.3594
13557TIP3    H262087   1.183   2.796   5.617 -0.0607 -1.2885 -0.2735
13558TIP3   OH262088   5.138   6.013  13.567 -0.6380 -0.7725 -0.2247
13558TIP3    H162089   5.179   5.943  13.618 -1.0426 -1.4518 -0.8220
13558TIP3    H262090   5.199   6.087  13.573  0.3479 -1.5552 -0.5332
13559TIP3   OH262091   3.980   6.113  16.594 -0.1901 -0.7473 -0.2050
13559TIP3    H162092   4.033   6.044  16.555 -0.7126 -0.8833 -0.6874
13559TIP3    H262093   4.041   6.185  16.610  0.8155 -2.0971  2.3321
13560TIP3   OH262094   0.952   2.572  10.577 -0.3997  0.6522 -0.4888
13560TIP3    H162095   0.869   2.604  10.543  0.0538  2.1419 -0.2259
13560TIP3    H262096   0.994   2.531  10.501 -2.2222 -1.9389 -0.1543
13561TIP3   OH262097   2.152   5.159  12.499 -0.3337  0.0659  0.1273
13561TIP3    H162098   2.059   5.155  12.473 -0.9217 -0.2002  2.2126
13561TIP3    H262099   2.188   5.075  12.468 -0.0233  1.3807 -3.3324
13562TIP3   OH262100   3.666   3.339   5.719  0.3410  0.0544  0.0281
13562TIP3    H162101   3.678   3.252   5.758  1.6333 -0.4723 -1.4925
13562TIP3    H262102   3.587   3.330   5.666  2.0447 -1.0853 -2.4282
13563TIP3   OH262103   4.864   5.935  12.958  0.2087 -0.2827  0.4017
13563TIP3    H162104   4.793   5.994  12.933  1.9699  1.0095 -1.6743
13563TIP3    H262105   4.835   5.849  12.927  0.8444  0.7358 -3.2768
13564TIP3   OH262106   3.823   5.519  13.149 -0.7197 -0.0661 -0.3975
13564TIP3    H162107   3.859   5.471  13.224  2.1188 -0.0166 -1.6334
13564TIP3    H262108   3.797   5.604  13.185 -2.8602 -1.3576  1.2021
13565TIP3   OH262109   6.277   1.237   3.731 -0.0687  0.3867  0.6294
13565TIP3    H162110   6.297   1.330   3.726 -2.7364  0.9767  0.4217
13565TIP3    H262111   6.182   1.232   3.741  0.1308 -2.2830  1.7835
13566TIP3   OH262112   0.658   2.903   1.327  0.4673  0.8402 -0.0094
13566TIP3    H162113   0.675   2.976   1.267 -0.4090  1.9541  1.0842
13566TIP3    H262114   0.704   2.829   1.288  1.9236  2.1319 -0.7953
13567TIP3   OH262115   2.712   4.444  16.989  0.1596 -0.1915  0.2125
13567TIP3    H162116   2.684   4.386  16.917 -0.1440  0.2249 -0.0065
13567TIP3    H262117   2.797   4.476  16.961  0.2067 -0.3187  0.2082
13568TIP3   OH262118   2.105   6.146  14.799  0.1079  0.3782 -0.0309
13568TIP3    H162119   2.019   6.187  14.788 -0.8880 -1.7628 -0.4035
13568TIP3    H262120   2.086   6.061  14.838  2.0317 -0.3364 -0.6227
13569TIP3   OH262121   1.211   1.475  14.740  0.9564 -0.1896 -0.3153
13569TIP3    H162122   1.257   1.407  14.690  1.8554  0.8202 -0.8710
13569TIP3    H262123   1.178   1.536  14.674  4.2173  2.4621  0.3919
13570TIP3   OH262124   2.249   1.189   3.095  0.5468  0.4283 -0.5340
13570TIP3    H162125   2.259   1.194   3.000 -1.1842 -1.0822 -0.8312
13570TIP3    H262126   2.314   1.124   3.122  1.8209  1.6792 -0.5173
13571TIP3   OH262127   5.589   4.390  15.769 -0.1192  0.1026 -0.2433
13571TIP3    H162128   5.638   4.366  15.847 -1.3851  0.0679  0.5641
13571TIP3    H262129   5.586   4.486  15.772 -1.6308  0.0504  0.7061
13572TIP3   OH262130   5.037   1.300   0.338 -0.1843 -0.3575 -0.4043
13572TIP3    H162131   5.033   1.219   0.287  0.4727 -0.7286  0.1216
13572TIP3    H262132   5.116   1.344   0.308 -0.8137  0.3336 -1.0469
13573TIP3   OH262133   4.074   1.809  16.949  0.1294  0.1997 -0.2510
13573TIP3    H162134   4.058   1.715  16.945  0.2786  0.1641 -0.0019
13573TIP3    H262135   3.990   1.847  16.973  0.0038  0.1525 -0.6101
13574TIP3   OH262136   0.804   6.266  12.699 -0.7839 -0.3935  0.3202
13574TIP3    H162137   0.789   6.185  12.651 -0.9638 -1.7083  2.5266
13574TIP3    H262138   0.818   6.332  12.631 -0.8328 -2.2197 -1.5091
13575TIP3   OH262139   0.353   6.673   4.449 -0.4263  0.2146  0.1870
13575TIP3    H162140   0.416   6.733   4.490 -0.5329 -0.6280  1.6045
13575TIP3    H262141   0.276   6.727   4.431  0.3189  1.0244 -0.6528
13576TIP3   OH262142   4.318   2.127  12.350  0.1813  0.0043  0.2718
13576TIP3    H162143   4.358   2.131  12.263  0.8301  1.3277  0.6279
13576TIP3    H262144   4.304   2.033  12.365 -1.4207 -0.1523 -1.9270
13577TIP3   OH262145   6.020   2.486  14.634  0.6222 -0.1543  0.5238
13577TIP3    H162146   5.932   2.494  14.597  0.1209  1.9263  2.1045
13577TIP3    H262147   6.079   2.513  14.563 -0.1260  0.4173  0.1158
13578TIP3   OH262148   4.123   2.155  14.214  0.5954 -0.3418  0.1140
13578TIP3    H162149   4.195   2.155  14.151  2.3641 -0.1035  2.0696
13578TIP3    H262150   4.116   2.246  14.242 -1.1308 -0.1864 -0.7587
13579TIP3   OH262151   1.934   5.078   0.246  0.7430 -0.0186 -0.0524
13579TIP3    H162152   1.944   5.036   0.332 -0.2614 -0.7641 -0.2903
13579TIP3    H262153   1.840   5.073   0.228  1.0695 -0.6402 -1.5817
13580TIP3   OH262154   4.042   3.515  17.181 -0.5030  0.1862 -0.3643
13580TIP3    H162155   3.968   3.480  17.231 -1.6189  0.4376 -1.7925
13580TIP3    H262156   4.004   3.587  17.130  0.7470  0.3645 -1.0661
13581TIP3   OH262157   4.405   1.674   3.037  0.7393  0.2704 -0.3346
13581TIP3    H162158   4.368   1.724   3.110  0.6863  0.7727 -0.7073
13581TIP3    H262159   4.458   1.607   3.080  1.0601  0.8295  0.1650
13582TIP3   OH262160   4.733   1.146   3.737  0.7628 -0.0770  0.0906
13582TIP3    H162161   4.724   1.050   3.741  2.6698 -0.2992 -0.5066
13582TIP3    H262162   4.648   1.176   3.705 -0.2805 -1.4763  1.4528
13583TIP3   OH262163   0.387   0.808   4.777  0.3917  0.0594  0.3710
13583TIP3    H162164   0.457   0.781   4.836  1.2750 -0.7608 -1.0150
13583TIP3    H262165   0.429   0.867   4.714  0.1741 -1.4663 -1.2634
13584TIP3   OH262166   3.319   1.537  14.297 -0.0874 -0.5781  0.1827
13584TIP3    H162167   3.393   1.559  14.240 -0.5866 -2.1678 -1.1082
13584TIP3    H262168   3.298   1.619  14.341  1.4551  0.2557 -0.5939
13585TIP3   OH262169   1.969   1.857  14.612 -0.5849 -0.1591 -0.5323
13585TIP3    H162170   1.985   1.911  14.535 -1.3473  0.4422 -0.2779
13585TIP3    H262171   2.035   1.787  14.608  0.1612  0.5797 -1.0599
13586TIP3   OH262172   5.199   6.534   4.929 -0.4949 -0.1597 -0.0335
13586TIP3    H162173   5.187   6.568   5.017 -0.2223 -0.7543  0.2406
13586TIP3    H262174   5.114   6.546   4.886 -0.5226  0.4541  0.1957
13587TIP3   OH262175   3.435   5.748   1.824 -0.1230  0.1086  0.3579
13587TIP3    H162176   3.375   5.698   1.768 -1.3059  0.7858  0.9869
13587TIP3    H262177   3.411   5.839   1.808  0.7034  0.3857  0.6808
13588TIP3   OH262178   2.130   6.549  16.660  0.0114  0.3408 -0.3715
13588TIP3    H162179   2.086   6.625  16.698 -0.9822  0.0186 -0.8530
13588TIP3    H262180   2.109   6.553  16.567  2.3441  1.0676 -0.8888
13589TIP3   OH262181   3.025   5.328   4.012  0.2164  0.4970  0.1112
13589TIP3    H162182   3.041   5.256   4.074  0.9490  1.6497  1.2818
13589TIP3    H262183   2.964   5.291   3.948 -0.4369 -0.7747  1.4306
13590TIP3   OH262184   4.149   4.526  11.762  0.1038  0.8696  0.1487
13590TIP3    H162185   4.064   4.493  11.734 -0.5542  1.1085  1.7941
13590TIP3    H262186   4.128   4.591  11.829  1.5966  0.8889  0.6120
13591TIP3   OH262187   0.656   6.447  15.747 -0.3610 -0.0961  0.1642
13591TIP3    H162188   0.628   6.356  15.749 -0.1752 -0.1239  1.6909
13591TIP3    H262189   0.691   6.460  15.658  2.8482 -2.4709  1.0018
13592TIP3   OH262190   6.212   3.863   4.878 -0.0887 -0.1343 -0.5042
13592TIP3    H162191   6.172   3.941   4.917 -0.9358 -1.3300  1.0925
13592TIP3    H262192   6.228   3.887   4.787  2.2861  2.8907  0.6155
13593TIP3   OH262193   6.723   6.024  14.217 -0.1387 -0.6235  0.0360
13593TIP3    H162194   6.764   6.103  14.253 -1.6302 -0.3421  1.1658
13593TIP3    H262195   6.705   6.046  14.126 -0.3000  0.2670  0.2725
13594TIP3   OH262196   2.251   1.077  14.338 -0.1286  0.3388  0.2570
13594TIP3    H162197   2.346   1.065  14.350 -0.4415  0.1079  2.5771
13594TIP3    H262198   2.216   0.988  14.332 -0.0127  0.4363 -2.3387
13595TIP3   OH262199   3.833   0.956  17.109  0.2449  0.2706  0.4871
13595TIP3    H162200   3.896   0.973  17.038 -0.9329  0.7306 -0.4637
13595TIP3    H262201   3.805   0.866  17.095  1.1316 -0.1268  1.2647
13596TIP3   OH262202   1.565   1.813   3.620 -0.2889  0.4196 -0.2204
13596TIP3    H162203   1.646   1.785   3.662 -0.0774 -0.6290 -1.2974
13596TIP3    H262204   1.505   1.740   3.634 -0.0110 -0.2346 -2.2746
13597TIP3   OH262205   3.482   1.402  16.105  0.6204 -0.2447 -0.6505
13597TIP3    H162206   3.535   1.464  16.055 -0.1756 -0.2253 -1.4792
13597TIP3    H262207   3.495   1.429  16.196  0.7479  0.7800 -0.9575
13598TIP3   OH262208   0.515   2.385  12.207  0.3223 -0.2594 -0.3952
13598TIP3    H162209   0.551   2.392  12.295  1.0870  0.2313 -0.7392
13598TIP3    H262210   0.436   2.440  12.209  0.7017  0.2787 -0.2058
13599TIP3   OH262211   2.767   1.447  15.452  0.1787 -0.0481 -0.1526
13599TIP3    H162212   2.690   1.481  15.498 -1.4849 -1.8558 -1.5245
13599TIP3    H262213   2.741   1.444  15.360  2.7972  1.6819 -0.9957
13600TIP3   OH262214   3.113   4.008  12.486 -0.6023 -0.5545 -0.3910
13600TIP3    H162215   3.151   4.002  12.574 -0.9045  3.5956  0.1263
13600TIP3    H262216   3.178   3.969  12.429  1.0703 -0.3771  1.3448
13601TIP3   OH262217   6.389   2.463  16.578 -0.5734 -0.1066 -0.3170
13601TIP3    H162218   6.303   2.476  16.618  0.0322  1.5386  0.5000
13601TIP3    H262219   6.373   2.469  16.483 -0.9632  2.9484 -0.1008
13602TIP3   OH262220   0.924   0.876  16.363 -0.0153 -0.7123 -0.3406
13602TIP3    H162221   0.845   0.929  16.351 -0.6365 -1.5250  0.1109
13602TIP3    H262222   0.950   0.893  16.454  0.6063 -0.0811 -0.6283
13603TIP3   OH262223   1.561   3.327   3.978  0.2916  0.3214  0.4610
13603TIP3    H162224   1.644   3.354   4.016 -0.1201  1.0445  0.8549
13603TIP3    H262225   1.526   3.262   4.040  1.9448 -2.2214 -1.1953
13604TIP3   OH262226   4.932   5.370  11.688  0.1506  0.5513  0.3203
13604TIP3    H162227   4.970   5.329  11.611  0.4515  0.8107  0.3304
13604TIP3    H262228   4.840   5.386  11.664  0.5045  1.5964 -0.3713
13605TIP3   OH262229   5.546   6.171   2.059 -0.1668  0.2116  0.5236
13605TIP3    H162230   5.596   6.250   2.038 -0.0177 -0.0380 -0.0531
13605TIP3    H262231   5.455   6.194   2.042  0.0063 -0.1891 -1.0189
13606TIP3   OH262232   6.417   6.563  14.491  0.0676  0.1081 -0.1853
13606TIP3    H162233   6.413   6.603  14.578  0.0309 -0.4980  0.0922
13606TIP3    H262234   6.443   6.635  14.433  0.2228  0.4833  0.3443
13607TIP3   OH262235   5.702   4.728   4.653 -0.2766 -0.4531 -0.0989
13607TIP3    H162236   5.658   4.704   4.571  0.8864  0.2384 -0.9379
13607TIP3    H262237   5.682   4.820   4.665 -0.9279 -0.6952  0.7139
13608TIP3   OH262238   4.722   2.411  11.664  0.6183 -0.6571 -0.3534
13608TIP3    H162239   4.811   2.406  11.629  1.2403 -1.2660  1.2461
13608TIP3    H262240   4.730   2.375  11.753 -1.2831 -1.0094 -0.3125
13609TIP3   OH262241   5.734   4.286   0.509 -0.2976  0.4275  0.0190
13609TIP3    H162242   5.812   4.310   0.560 -0.0873 -0.9381  0.3651
13609TIP3    H262243   5.756   4.201   0.472 -0.8384  0.9673 -1.5735
13610TIP3   OH262244   1.262   1.086  15.000  0.5607  0.3545  0.1428
13610TIP3    H162245   1.298   1.144  14.933  0.6697  0.8070  0.5914
13610TIP3    H262246   1.324   1.092  15.073  0.5639 -0.3130  0.2014
13611TIP3   OH262247   5.989   0.083   2.177  0.3248 -0.1221  0.4428
13611TIP3    H162248   5.950   0.103   2.092  0.1346 -2.3138 -0.0302
13611TIP3    H262249   5.922   0.030   2.221 -0.1712  2.2005  2.5596
13612TIP3   OH262250   0.667   2.579   0.027  0.2805  0.2612 -0.1351
13612TIP3    H162251   0.601   2.620  -0.028  1.3214  0.2662 -1.3862
13612TIP3    H262252   0.745   2.574  -0.028  1.0385 -0.6465  1.0029
13613TIP3   OH262253   5.564   2.602   6.556  0.0231  0.6136  0.2188
13613TIP3    H162254   5.604   2.545   6.622  0.8845 -0.4626 -1.1711
13613TIP3    H262255   5.476   2.567   6.544 -0.2380  1.0042  1.0214
13614TIP3   OH262256   2.934   0.934   4.020 -0.6392 -0.1095  0.1009
13614TIP3    H162257   2.931   1.015   4.071  0.5803  0.3959 -0.6374
13614TIP3    H262258   2.935   0.962   3.929 -1.8200 -1.0005 -0.2072
13615TIP3   OH262259   4.784   3.105   1.253  0.1632  0.0512  0.7648
13615TIP3    H162260   4.808   3.122   1.344  0.2687  0.6463  0.6317
13615TIP3    H262261   4.717   3.038   1.258  2.0168 -1.8273  1.1246
13616TIP3   OH262262   5.415   5.883  15.521  0.0612 -0.0659  0.2220
13616TIP3    H162263   5.364   5.946  15.470  2.3242  0.4316 -1.5237
13616TIP3    H262264   5.456   5.935  15.590 -0.3267 -0.1275  0.4975
13617TIP3   OH262265   1.835   3.540  12.961  0.2337  0.0755  0.2924
13617TIP3    H162266   1.870   3.452  12.975 -0.2931 -0.0111  1.1067
13617TIP3    H262267   1.912   3.596  12.957  0.5553 -0.3664  0.1672
13618TIP3   OH262268   2.109   2.105  15.975 -0.7209 -0.9590 -0.0178
13618TIP3    H162269   2.075   2.194  15.965  1.0607 -0.3453 -0.7284
13618TIP3    H262270   2.098   2.087  16.069  0.1698  0.5588  0.4157
13619TIP3   OH262271   0.148   5.157   4.287  0.4573 -0.7354  0.1515
13619TIP3    H162272   0.215   5.132   4.224 -0.5834 -2.9653 -0.1350
13619TIP3    H262273   0.066   5.152   4.238 -0.0929  0.3513  0.9299
13620TIP3   OH262274   2.254   6.188  12.759 -0.2350  0.3244  0.1728
13620TIP3    H162275   2.259   6.270  12.710  1.7001 -0.7059 -1.4417
13620TIP3    H262276   2.322   6.133  12.720 -1.2844 -1.9381  1.4374
13621TIP3   OH262277   6.210   5.787   1.988  0.0492 -0.0029  0.0484
13621TIP3    H162278   6.206   5.880   2.012  0.0933  0.2452 -0.8821
13621TIP3    H262279   6.118   5.759   1.987 -0.1018  0.4694 -1.2956
13622TIP3   OH262280   1.663   0.457  16.797 -0.3914  0.5448 -0.4447
13622TIP3    H162281   1.736   0.440  16.738 -1.2714 -0.6643 -1.2037
13622TIP3    H262282   1.671   0.391  16.865 -1.2401 -0.1209 -0.9755
13623TIP3   OH262283   6.048   0.137   0.489  0.4166  0.2660  0.5475
13623TIP3    H162284   5.967   0.125   0.440  0.7537  0.2762 -0.0190
13623TIP3    H262285   6.093   0.053   0.483  0.2673  0.1392  1.1934
13624TIP3   OH262286   0.719   4.694   1.607  0.0405 -0.1304 -0.0385
13624TIP3    H162287   0.638   4.738   1.582 -1.2439 -2.0290  0.6926
13624TIP3    H262288   0.747   4.740   1.687 -1.7323 -1.1238  1.1951
13625TIP3   OH262289   3.940   5.729   5.983  0.4269 -0.0241  0.6362
13625TIP3    H162290   3.976   5.777   6.058  1.0277  0.9711 -0.2708
13625TIP3    H262291   3.849   5.714   6.006  0.4071  0.9552  1.2460
13626TIP3   OH262292   4.450   5.275   1.121  0.0369 -0.0893  0.4515
13626TIP3    H162293   4.449   5.193   1.071  1.1890 -0.1958  0.5944
13626TIP3    H262294   4.362   5.312   1.108 -0.1865 -0.8862 -0.3653
13627TIP3   OH262295   4.107   3.722   0.665  0.0201 -0.1722  0.2373
13627TIP3    H162296   4.194   3.759   0.680 -0.3458  1.5863 -1.7037
13627TIP3    H262297   4.070   3.713   0.753  1.2705  1.2979  0.9595
13628TIP3   OH262298   1.276   3.911  10.958  0.1601  0.2627 -0.3598
13628TIP3    H162299   1.269   3.853  10.882  0.8010 -1.2925  0.7549
13628TIP3    H262300   1.296   3.997  10.921  1.8164 -0.7474 -1.8716
13629TIP3   OH262301   6.739   4.653  11.604  0.4556 -0.0218 -0.1839
13629TIP3    H162302   6.740   4.558  11.613  1.4820 -0.1010 -0.9450
13629TIP3    H262303   6.775   4.686  11.687 -1.4871 -0.2098  0.7594
13630TIP3   OH262304   3.660   2.925  14.262 -0.3225 -0.2332 -0.2056
13630TIP3    H162305   3.704   2.842  14.246  1.0719  0.5521 -0.5672
13630TIP3    H262306   3.725   2.991  14.239  0.3141  1.0159  4.7307
13631TIP3   OH262307   5.005   6.762  11.320 -0.0074  0.2553 -0.1128
13631TIP3    H162308   4.911   6.764  11.302 -0.5269 -1.3905  2.2013
13631TIP3    H262309   5.030   6.854  11.329 -1.9902  0.6468  1.9045
13632TIP3   OH262310   0.898   0.443  16.791 -0.0020 -0.9841 -0.4494
13632TIP3    H162311   0.909   0.379  16.862 -0.2409 -1.7726 -1.1137
13632TIP3    H262312   0.973   0.502  16.801  1.4781 -2.6990 -1.2026
13633TIP3   OH262313   4.463   3.192   6.771 -0.1824 -0.6392 -0.4949
13633TIP3    H162314   4.464   3.097   6.764  1.4497 -0.9911  3.1016
13633TIP3    H262315   4.382   3.211   6.819  0.2698 -0.3736  0.1725
13634TIP3   OH262316   3.642   4.017  15.661  0.2780 -0.2603 -0.2550
13634TIP3    H162317   3.677   4.054  15.579 -2.6152  3.3995  0.0038
13634TIP3    H262318   3.719   4.003  15.716  2.1394 -1.3579 -3.0454
13635TIP3   OH262319   2.291   0.444   5.122  0.6423  0.5381  0.1031
13635TIP3    H162320   2.345   0.404   5.053 -0.4111  0.4395 -0.6780
13635TIP3    H262321   2.292   0.537   5.102  2.0595  0.7688  1.1890
13636TIP3   OH262322   1.179   0.296  10.960  0.4257 -0.5904 -0.3592
13636TIP3    H162323   1.211   0.379  10.922  1.3131 -0.2394  1.1277
13636TIP3    H262324   1.088   0.290  10.930  0.8035  0.1619 -1.7295
13637TIP3   OH262325   5.748   6.490  15.174 -0.5343 -0.0615  0.0224
13637TIP3    H162326   5.833   6.454  15.199  0.2116  2.2421  0.9709
13637TIP3    H262327   5.766   6.583  15.157 -3.0845  0.7588  1.5302
13638TIP3   OH262328   4.093   3.347   1.533 -0.4539  0.8352  0.7645
13638TIP3    H162329   4.030   3.332   1.463 -0.5801  5.0170 -0.1706
13638TIP3    H262330   4.050   3.314   1.612 -2.5010  0.7530 -0.3470
13639TIP3   OH262331   3.098   5.632   0.793 -0.0992  0.0820  0.7238
13639TIP3    H162332   3.031   5.676   0.742  1.7090  0.9109 -0.9958
13639TIP3    H262333   3.091   5.540   0.769  0.9766  0.5185 -1.3202
13640TIP3   OH262334   3.267   5.684   1.584  0.3753 -0.4755 -0.3971
13640TIP3    H162335   3.237   5.730   1.505  0.3320 -2.5629 -1.6266
13640TIP3    H262336   3.201   5.616   1.599  1.1037 -0.9596  0.6544
13641TIP3   OH262337   1.984   3.947  15.832 -0.6456 -0.0851  0.1279
13641TIP3    H162338   2.018   3.872  15.783 -1.0384 -0.6105  0.6571
13641TIP3    H262339   2.010   3.931  15.922 -0.8932  0.3216  0.2739
13642TIP3   OH262340   3.054   4.004   3.233  0.4649 -0.2611 -1.1314
13642TIP3    H162341   3.114   4.076   3.253 -2.5821  1.2072  3.7772
13642TIP3    H262342   2.970   4.048   3.216 -0.7796 -2.5166 -0.9419
13643TIP3   OH262343   6.287   4.748  11.532  0.0398  0.4526 -0.2157
13643TIP3    H162344   6.263   4.669  11.483 -0.8402  1.3285 -1.2288
13643TIP3    H262345   6.296   4.719  11.622 -2.1615 -0.4637 -0.2560
13644TIP3   OH262346   6.753   4.511  16.290  0.1659  0.4256  0.5690
13644TIP3    H162347   6.817   4.444  16.316 -0.2289 -0.0840  0.2422
13644TIP3    H262348   6.672   4.484  16.334  0.0123  0.7107  0.4611
13645TIP3   OH262349   3.466   6.277   1.071 -0.2291 -0.6154  0.0202
13645TIP3    H162350   3.561   6.281   1.068 -0.1290 -2.5811  0.2696
13645TIP3    H262351   3.445   6.266   1.164 -0.6733 -0.7381 -0.0916
13646TIP3   OH262352   6.585   2.506   2.442 -0.2832 -0.2374  0.1017
13646TIP3    H162353   6.672   2.545   2.443  0.4078 -1.7383 -0.3995
13646TIP3    H262354   6.589   2.439   2.373 -2.0241  0.1263 -0.3796
13647TIP3   OH262355   3.858   2.362  12.828 -0.1864  0.6119 -0.1331
13647TIP3    H162356   3.858   2.417  12.750  0.3797 -0.0057 -0.5701
13647TIP3    H262357   3.949   2.334  12.838 -0.6453 -1.0656 -0.4889
13648TIP3   OH262358   4.645   3.218  12.768  0.0754 -0.1655  0.6406
13648TIP3    H162359   4.682   3.304  12.788  1.3814 -0.6723  0.4183
13648TIP3    H262360   4.556   3.222  12.803  0.1954  1.1980  0.8280
13649TIP3   OH262361   3.373   2.723   1.996  0.5693 -0.1327  0.4025
13649TIP3    H162362   3.330   2.797   1.952 -2.4233 -0.8617  1.9350
13649TIP3    H262363   3.360   2.741   2.089  2.5978 -1.0314  0.8704
13650TIP3   OH262364   1.540   1.284   4.475 -0.1375 -0.5601  0.0113
13650TIP3    H162365   1.520   1.318   4.388 -2.6363  0.8219  1.0773
13650TIP3    H262366   1.497   1.198   4.477 -1.3187  0.0248  0.3540
13651TIP3   OH262367   2.215   4.400  12.947  0.0499 -0.0821 -0.4239
13651TIP3    H162368   2.246   4.490  12.934  0.6024 -0.0804  0.8034
13651TIP3    H262369   2.261   4.371  13.026 -0.4546 -1.2936 -0.5782
13652TIP3   OH262370   4.623   2.958  11.349 -0.1049  0.4283  0.6223
13652TIP3    H162371   4.552   3.021  11.340  0.5892  1.3694  1.5808
13652TIP3    H262372   4.640   2.927  11.260 -2.7160 -0.9563  0.5683
13653TIP3   OH262373   2.818   6.722  11.657  0.1450  0.7094 -0.2234
13653TIP3    H162374   2.878   6.746  11.587 -0.8418  2.2208 -0.5624
13653TIP3    H262375   2.757   6.795  11.664 -2.0474 -1.0333 -0.2874
13654TIP3   OH262376   0.580   4.098  12.190 -0.0949 -0.1844  0.2197
13654TIP3    H162377   0.552   4.067  12.276  1.2718 -0.9210  0.4215
13654TIP3    H262378   0.566   4.022  12.132  2.1881 -0.8493  0.4877
13655TIP3   OH262379   4.240   4.995  13.262 -0.5394  0.3663 -0.5036
13655TIP3    H162380   4.290   5.068  13.226 -0.8462  0.6950 -0.2701
13655TIP3    H262381   4.149   5.014  13.237 -0.7204  0.4722  0.2331
13656TIP3   OH262382   6.352   3.977   2.427  0.2152 -0.1162  0.3604
13656TIP3    H162383   6.443   3.951   2.417  0.9194  2.4831 -0.4107
13656TIP3    H262384   6.335   4.036   2.354 -2.3888 -1.3120 -0.0493
13657TIP3   OH262385   5.111   1.991  15.932  0.2435  0.2970  0.9399
13657TIP3    H162386   5.200   1.957  15.939  0.5615  0.1935 -2.7794
13657TIP3    H262387   5.122   2.086  15.929  0.0463  0.3784  2.3338
13658TIP3   OH262388   0.781   0.031  11.740  0.7233 -0.4445 -0.0161
13658TIP3    H162389   0.741   0.111  11.773  1.0553 -1.2737  2.4717
13658TIP3    H262390   0.748  -0.039  11.798  3.0168 -1.6184 -0.0681
13659TIP3   OH262391   5.979   1.974  13.753  0.3490  0.1218  0.1586
13659TIP3    H162392   5.982   1.920  13.674  0.8188  0.1892  0.1330
13659TIP3    H262393   5.886   1.992  13.766  0.3245  0.5964 -0.7042
13660TIP3   OH262394   5.271   0.376  13.707 -0.5705 -0.2583  0.1326
13660TIP3    H162395   5.294   0.307  13.769  0.5232 -0.3256 -0.3394
13660TIP3    H262396   5.353   0.424  13.693 -1.3229  1.1641  0.4896
13661TIP3   OH262397   1.274   0.102   1.313 -0.2507 -0.1111  0.1137
13661TIP3    H162398   1.325   0.133   1.388  0.4257 -1.7637  0.3513
13661TIP3    H262399   1.315   0.143   1.237  1.0920 -1.0162  0.3487
13662TIP3   OH262400   5.795   5.806   1.464 -0.0304 -0.2502  0.3376
13662TIP3    H162401   5.707   5.841   1.449 -0.0290  1.2888  3.4963
13662TIP3    H262402   5.795   5.722   1.419 -2.8753  0.0660 -0.3520
13663TIP3   OH262403   3.542   2.993  14.984  0.0107 -0.1888  0.3568
13663TIP3    H162404   3.492   2.917  15.013 -0.6355 -0.0411 -0.3387
13663TIP3    H262405   3.490   3.068  15.011  0.6654  0.0156  1.0741
13664TIP3   OH262406   6.054   5.153   2.749  0.3517  0.7212 -0.2230
13664TIP3    H162407   5.975   5.127   2.701 -0.4025  0.8504  0.9469
13664TIP3    H262408   6.119   5.169   2.680 -0.8040  1.1777 -1.2223
13665TIP3   OH262409   4.050   1.492  13.476 -0.0245 -0.2430 -0.0711
13665TIP3    H162410   4.127   1.464  13.426 -1.8469 -0.0907 -3.0482
13665TIP3    H262411   4.080   1.569  13.525  1.4356  0.4472 -1.9911
13666TIP3   OH262412   3.287   3.850  13.081 -0.7078 -0.3155 -0.4943
13666TIP3    H162413   3.209   3.842  13.136 -1.1439 -0.5388 -1.1427
13666TIP3    H262414   3.357   3.870  13.142 -1.8704  3.3897 -0.2900
13667TIP3   OH262415   5.027   0.341  12.411  0.8745 -0.8462 -0.1464
13667TIP3    H162416   4.955   0.354  12.349  2.9391  1.2947 -2.2077
13667TIP3    H262417   4.998   0.385  12.491 -0.1317 -0.0098 -0.9587
13668TIP3   OH262418   6.090   0.722  13.114 -0.8167 -0.1625 -0.4399
13668TIP3    H162419   6.063   0.785  13.048  0.7501  1.4267  0.3995
13668TIP3    H262420   6.010   0.702  13.162 -1.6715 -0.1875 -1.8524
13669TIP3   OH262421   1.679   4.869   0.229  0.2625  0.1022  0.2326
13669TIP3    H162422   1.733   4.913   0.162 -2.1091  0.0992 -1.7514
13669TIP3    H262423   1.689   4.776   0.210  0.3954  0.0539  0.5395
13670TIP3   OH262424   0.441   2.640   2.933 -0.2186  0.1085  0.6832
13670TIP3    H162425   0.355   2.599   2.928 -1.0014  1.2402  3.6250
13670TIP3    H262426   0.496   2.574   2.976 -0.0704  0.0326  0.3738
13671TIP3   OH262427   4.230   5.741  16.300 -0.3494  0.3798  0.2879
13671TIP3    H162428   4.259   5.756  16.210 -0.2705  1.6094  0.5058
13671TIP3    H262429   4.279   5.664  16.329  1.3311  1.3195  0.0374
13672TIP3   OH262430   2.290   0.566  12.815  0.0063 -0.2273  0.2782
13672TIP3    H162431   2.328   0.617  12.887 -0.2936 -0.0863  0.3350
13672TIP3    H262432   2.224   0.624  12.777  1.3644  0.4144 -1.2324
13673TIP3   OH262433   4.063   1.767  11.449 -0.7389  0.2596 -0.5656
13673TIP3    H162434   4.125   1.836  11.425 -1.1493  0.6436 -0.5406
13673TIP3    H262435   4.006   1.808  11.514 -1.6045  0.2070 -1.2763
13674TIP3   OH262436   0.579   3.508  11.854  0.6169 -0.6245 -0.1472
13674TIP3    H162437   0.574   3.593  11.812 -1.0170 -0.4961  0.2739
13674TIP3    H262438   0.672   3.498  11.877  0.9057  0.8078 -0.6287
13675TIP3   OH262439   2.668   5.036  15.794  0.7466  0.2216 -0.4326
13675TIP3    H162440   2.763   5.042  15.784  0.5253  0.6456 -2.3671
13675TIP3    H262441   2.652   4.944  15.813  1.5384  0.1464 -0.1089
13676TIP3   OH262442   0.548   2.988   5.680 -0.3196  0.2084  0.9856
13676TIP3    H162443   0.603   3.039   5.739 -1.6143 -0.6684  3.0237
13676TIP3    H262444   0.581   2.898   5.687 -0.7945  0.0123  0.7952
13677TIP3   OH262445   6.319   4.048  12.741 -0.1636  0.5766 -0.0045
13677TIP3    H162446   6.258   3.995  12.691  1.1582 -0.9328 -0.0642
13677TIP3    H262447   6.293   4.139  12.723 -1.1303  0.0043 -1.5731
13678TIP3   OH262448   2.134   6.192   4.317 -0.0408 -0.7682  0.0762
13678TIP3    H162449   2.040   6.189   4.334 -0.2059  2.0187 -0.2154
13678TIP3    H262450   2.164   6.271   4.361  1.8793 -0.7712 -1.1921
13679TIP3   OH262451   3.122   6.271   0.724  0.2960  0.5606 -0.7041
13679TIP3    H162452   3.152   6.302   0.810  0.4708  1.6411 -1.1421
13679TIP3    H262453   3.135   6.176   0.727  5.1487  1.0609 -1.3442
13680TIP3   OH262454   5.141   3.767   1.587  0.0599 -0.1156  0.7324
13680TIP3    H162455   5.167   3.781   1.678  0.5057  1.4591  0.3897
13680TIP3    H262456   5.206   3.816   1.536 -0.3628 -0.7198 -0.4091
13681TIP3   OH262457   4.453   2.257  13.380 -0.0336 -0.0804  0.0816
13681TIP3    H162458   4.423   2.172  13.411  1.0757  0.1997  2.0092
13681TIP3    H262459   4.510   2.238  13.305  0.2458 -1.0342  0.5374
13682TIP3   OH262460   3.401   1.136  16.834  0.0704  0.2969 -0.2428
13682TIP3    H162461   3.377   1.108  16.746 -0.4273  1.5820 -0.5364
13682TIP3    H262462   3.355   1.220  16.845 -1.6819 -0.9328  2.0698
13683TIP3   OH262463   4.777   2.750   6.266  0.4053  0.5392 -0.3236
13683TIP3    H162464   4.763   2.703   6.348 -0.5611  1.6010  0.1381
13683TIP3    H262465   4.710   2.717   6.207  0.6752  0.2607 -0.4748
13684TIP3   OH262466   4.731   4.660   0.592 -0.3287 -0.3232 -0.0298
13684TIP3    H162467   4.823   4.651   0.566 -0.5085  0.6404 -1.0132
13684TIP3    H262468   4.703   4.570   0.610  0.4134 -0.7804 -1.0719
13685TIP3   OH262469   2.059   2.756  14.092  0.0675  0.1904 -0.2044
13685TIP3    H162470   1.977   2.801  14.114  0.4304  1.5068 -1.4751
13685TIP3    H262471   2.033   2.692  14.025 -0.0173  0.2813 -0.2606
13686TIP3   OH262472   5.360   2.894   3.012 -0.3082 -0.0506 -0.2128
13686TIP3    H162473   5.370   2.802   3.037  2.0906  0.0735 -0.5638
13686TIP3    H262474   5.442   2.915   2.967 -1.1752  2.0372 -0.8710
13687TIP3   OH262475   4.639   5.795   5.491  0.5105  0.5373  0.7704
13687TIP3    H162476   4.699   5.814   5.419  0.4371 -1.5129  0.1528
13687TIP3    H262477   4.639   5.875   5.544  1.0981  1.7974 -1.1139
13688TIP3   OH262478   2.504   3.267   2.110 -0.2022 -0.4217  0.3518
13688TIP3    H162479   2.588   3.236   2.078  0.0008 -0.7435  1.1695
13688TIP3    H262480   2.472   3.326   2.042  1.0377  0.2938  0.3667
13689TIP3   OH262481   3.536   4.481  15.406  0.2431 -0.0550 -0.2022
13689TIP3    H162482   3.601   4.430  15.357 -0.0345  0.0139 -0.6387
13689TIP3    H262483   3.577   4.494  15.492  0.7296 -0.1679 -0.4133
13690TIP3   OH262484   3.562   5.299   1.636 -0.7795 -0.1034 -0.4299
13690TIP3    H162485   3.601   5.273   1.552 -0.9142 -0.7485 -0.2993
13690TIP3    H262486   3.469   5.312   1.615 -0.8325 -0.3624 -0.3672
13691TIP3   OH262487   5.166   6.622  13.589 -0.3049 -0.4207 -0.0053
13691TIP3    H162488   5.204   6.535  13.600 -2.4247 -1.0142  3.7369
13691TIP3    H262489   5.221   6.679  13.642 -0.4848  0.0073 -0.2752
13692TIP3   OH262490   4.718   0.600  17.201 -0.0338 -0.5738  0.4158
13692TIP3    H162491   4.647   0.585  17.264  0.3006 -3.6110  0.1304
13692TIP3    H262492   4.789   0.638  17.253 -1.5026  1.6117  0.8803
13693TIP3   OH262493   2.470   6.402   2.879  0.4344 -0.2074  0.1414
13693TIP3    H162494   2.456   6.439   2.966  1.5080 -1.4495  0.8587
13693TIP3    H262495   2.390   6.354   2.860 -0.7856  2.0604 -0.6050
13694TIP3   OH262496   5.881   0.126  11.050 -0.1245 -0.4897 -0.1668
13694TIP3    H162497   5.881   0.069  10.973  0.7277 -1.5138  0.5850
13694TIP3    H262498   5.926   0.205  11.021  2.5050 -1.8857  0.0150
13695TIP3   OH262499   6.344   2.692   5.472  0.0012 -0.1517  0.0696
13695TIP3    H162500   6.274   2.721   5.530 -0.0532  0.1681 -0.1578
13695TIP3    H262501   6.299   2.654   5.397  0.0709 -0.4734  0.1897
13696TIP3   OH262502   3.281   4.403   4.105  0.0082  0.9865 -0.2251
13696TIP3    H162503   3.205   4.408   4.046 -1.3793  2.0334  1.5923
13696TIP3    H262504   3.286   4.311   4.130  0.0419  0.7049 -1.2444
13697TIP3   OH262505   0.473   4.758  12.124  0.1740  0.1521 -0.2570
13697TIP3    H162506   0.526   4.688  12.085 -1.2108 -0.8797 -0.3572
13697TIP3    H262507   0.537   4.821  12.158  1.4435 -0.7990 -0.8281
13698TIP3   OH262508   1.665   2.013   0.551  0.5062  0.0096 -0.2412
13698TIP3    H162509   1.684   2.101   0.519  0.2953  0.8732  1.9254
13698TIP3    H262510   1.744   1.986   0.598 -0.4535  0.2432  1.5783
13699TIP3   OH262511   6.385   5.456  12.440  0.0930 -0.3432 -0.5814
13699TIP3    H162512   6.355   5.546  12.424  1.4797 -0.0554 -1.6438
13699TIP3    H262513   6.451   5.465  12.510 -0.4598 -0.6581 -0.0155
13700TIP3   OH262514   1.710   0.373   0.185  0.0079  0.0821  0.1408
13700TIP3    H162515   1.689   0.282   0.162  1.6359 -0.1750 -0.3745
13700TIP3    H262516   1.733   0.369   0.278 -1.6370  0.2737  0.5682
13701TIP3   OH262517   4.367   0.058  13.888 -0.7384 -0.0629 -0.8235
13701TIP3    H162518   4.338   0.138  13.932  1.0816  0.5014 -0.5695
13701TIP3    H262519   4.374   0.083  13.796  0.0739  0.1782 -0.7085
13702TIP3   OH262520   3.110   5.981  13.162 -0.0033 -0.2064 -0.3750
13702TIP3    H162521   3.124   5.896  13.120  1.3571  0.3854 -1.1602
13702TIP3    H262522   3.024   5.974  13.202 -0.1726 -1.7405 -0.9643
13703TIP3   OH262523   2.611   1.558  16.863  0.0670  0.6439 -0.3351
13703TIP3    H162524   2.550   1.610  16.811 -0.4150  0.6360  0.2184
13703TIP3    H262525   2.681   1.619  16.887  0.6510  0.4758 -1.5788
13704TIP3   OH262526   0.953   4.018  16.636  0.0906  0.1977 -0.3132
13704TIP3    H162527   0.899   3.939  16.636 -0.6619  0.7041 -0.8310
13704TIP3    H262528   0.966   4.038  16.728  1.3952 -1.2721 -0.1457
13705TIP3   OH262529   2.490   2.285  15.914 -0.0784  0.1179  0.3257
13705TIP3    H162530   2.438   2.205  15.920 -0.1196  0.0495 -0.8323
13705TIP3    H262531   2.576   2.260  15.948  0.4109 -0.8828 -1.6067
13706TIP3   OH262532   2.953   6.567   3.375  0.1303  0.1366  0.2616
13706TIP3    H162533   2.924   6.496   3.319 -0.3260  0.3548  0.2232
13706TIP3    H262534   3.024   6.528   3.427  1.2944  0.2364 -1.2141
13707TIP3   OH262535   3.460   6.384  12.724  0.0097 -0.5717  0.3196
13707TIP3    H162536   3.460   6.325  12.650  2.4231 -3.3521  2.4095
13707TIP3    H262537   3.548   6.423  12.724 -0.6514  0.9518  0.5397
13708TIP3   OH262538   2.133   6.365   4.509 -0.0004  0.0942  0.4156
13708TIP3    H162539   2.179   6.430   4.563  2.3377  1.4651 -3.0850
13708TIP3    H262540   2.063   6.414   4.466  1.1619  0.1146 -1.4861
13709TIP3   OH262541   0.567   6.296  17.066  0.5014  0.1199  0.4532
13709TIP3    H162542   0.474   6.275  17.078  0.2482  0.4089 -0.9968
13709TIP3    H262543   0.586   6.358  17.137 -1.0047  1.8580 -0.6165
13710TIP3   OH262544   0.321   2.254  16.279  0.1267 -0.1943 -0.2269
13710TIP3    H162545   0.259   2.326  16.277  0.3511 -0.0297 -2.4526
13710TIP3    H262546   0.332   2.234  16.372 -1.3114  1.4345  0.3118
13711TIP3   OH262547   0.610   0.509  14.970  0.6313  0.3842  0.1775
13711TIP3    H162548   0.615   0.603  14.988  1.0259  1.0016 -2.8947
13711TIP3    H262549   0.589   0.470  15.054  1.4214  3.1366  1.7184
13712TIP3   OH262550   6.161   6.042   2.099 -0.2533 -0.0819 -0.2615
13712TIP3    H162551   6.231   6.089   2.145 -0.2775  1.4189 -1.7201
13712TIP3    H262552   6.116   6.109   2.047 -1.3360 -1.4295 -1.1213
13713TIP3   OH262553   2.665   3.871  16.057 -0.1954 -0.2017  0.1189
13713TIP3    H162554   2.630   3.782  16.059  1.3464 -0.8231  0.6406
13713TIP3    H262555   2.758   3.859  16.034  0.5851  1.0710  2.4890
13714TIP3   OH262556   5.294   3.563  16.379 -0.3031  0.1657  0.0834
13714TIP3    H162557   5.388   3.553  16.392 -0.1394  1.4018 -0.0799
13714TIP3    H262558   5.284   3.652  16.345 -1.3887 -0.4917 -1.3413
13715TIP3   OH262559   2.027   0.393  15.625 -0.1494 -0.0837  0.7847
13715TIP3    H162560   2.122   0.407  15.615 -0.1471  0.2320  1.2246
13715TIP3    H262561   1.987   0.463  15.574 -0.1579 -1.4854 -1.1531
13716TIP3   OH262562   5.314   2.831  14.021  0.0368 -0.1713 -0.1420
13716TIP3    H162563   5.292   2.853  13.930 -2.0226  2.3237  0.8757
13716TIP3    H262564   5.238   2.782  14.053  0.4281 -0.4002  0.4416
13717TIP3   OH262565   0.158   1.854  16.961 -0.3757  0.4550 -0.4698
13717TIP3    H162566   0.243   1.887  16.931 -0.1864  0.4884  0.0949
13717TIP3    H262567   0.174   1.761  16.980 -0.4778  0.4480 -0.4175
13718TIP3   OH262568   1.892   4.744  15.681 -0.3421 -0.4141 -0.1256
13718TIP3    H162569   1.986   4.742  15.701 -0.0044  1.9003 -1.3762
13718TIP3    H262570   1.883   4.685  15.606  0.5883  1.4099 -1.7224
13719TIP3   OH262571   0.001   1.633  16.218  0.0204  0.2308 -0.3580
13719TIP3    H162572   0.017   1.673  16.303 -1.5070  1.0172 -0.4173
13719TIP3    H262573  -0.086   1.664  16.193  0.9517  1.0480 -2.7817
13720TIP3   OH262574   6.310   3.071   3.780 -0.1123 -0.3805 -0.5266
13720TIP3    H162575   6.274   3.118   3.706  1.7219  0.6086 -0.8070
13720TIP3    H262576   6.314   3.135   3.851  2.1480 -0.1481 -0.8325
13721TIP3   OH262577   2.644   1.256  11.838  0.1773 -0.0523  0.1224
13721TIP3    H162578   2.633   1.255  11.933 -2.1130 -1.6793 -0.1145
13721TIP3    H262579   2.582   1.323  11.807  0.4322 -0.0017 -0.2878
13722TIP3   OH262580   5.813   4.473  15.396 -0.2300 -0.2968  0.0104
13722TIP3    H162581   5.859   4.510  15.471 -0.4613  0.9607 -0.4582
13722TIP3    H262582   5.833   4.532  15.323 -2.0027 -0.1035 -0.3642
13723TIP3   OH262583   3.360   4.057  14.127  0.1058  0.1408  0.4690
13723TIP3    H162584   3.326   4.115  14.194  0.6118  1.7451 -0.6400
13723TIP3    H262585   3.450   4.084  14.114 -0.0073 -0.0732 -0.9193
13724TIP3   OH262586   3.121   6.426   5.734 -0.2617  0.1724 -0.4051
13724TIP3    H162587   3.208   6.456   5.709 -0.7431  2.0207  0.0269
13724TIP3    H262588   3.125   6.415   5.829  0.2898 -2.4807 -0.7141
13725TIP3   OH262589   3.411   2.553  11.522  0.3781  0.0550 -0.7982
13725TIP3    H162590   3.359   2.632  11.541  1.9862  1.1860 -0.9819
13725TIP3    H262591   3.405   2.501  11.602 -0.0288  0.7321 -0.3779
13726TIP3   OH262592   3.567   0.088  12.807  0.1983  0.3397 -0.0816
13726TIP3    H162593   3.636   0.144  12.842 -0.1335  0.5052  0.3140
13726TIP3    H262594   3.592   0.073  12.716  0.6268  0.5996 -0.0092
13727TIP3   OH262595   6.716   4.491   1.584  0.5814  0.1019 -0.1172
13727TIP3    H162596   6.713   4.524   1.494  0.9753 -0.0767 -0.1969
13727TIP3    H262597   6.809   4.472   1.599  0.5700  0.4734  0.4497
13728TIP3   OH262598   4.472   1.236   3.710 -0.3055 -0.1844  0.8259
13728TIP3    H162599   4.392   1.202   3.750 -0.6994 -0.5624 -0.2665
13728TIP3    H262600   4.512   1.290   3.778 -0.8552 -0.9883  1.8065
13729TIP3   OH262601   0.044   5.892   2.996  0.4344  0.8018  0.1311
13729TIP3    H162602   0.063   5.970   3.048 -0.5253 -0.1348  1.9100
13729TIP3    H262603  -0.050   5.877   3.009  1.0957 -2.1418  1.8958
13730TIP3   OH262604   3.400   6.227   3.656 -0.5570  0.2663 -0.3281
13730TIP3    H162605   3.357   6.258   3.737 -0.2663  0.5090 -0.2644
13730TIP3    H262606   3.331   6.182   3.608 -0.8295  0.4575 -0.1188
13731TIP3   OH262607   3.069   2.460  16.616 -0.2435 -0.2432  0.5381
13731TIP3    H162608   3.020   2.490  16.693  0.8515 -1.9743  1.9713
13731TIP3    H262609   3.160   2.481  16.637  0.1595 -1.5219  0.1047
13732TIP3   OH262610   2.922   0.181   0.343 -0.0891  0.7871  0.0979
13732TIP3    H162611   3.011   0.163   0.311 -0.4470 -1.5773  0.3448
13732TIP3    H262612   2.920   0.142   0.431 -0.5757  3.1167  1.1437
13733TIP3   OH262613   4.719   4.068  14.645  0.0364  0.5096 -0.7584
13733TIP3    H162614   4.709   4.065  14.740  3.0885 -0.8746 -0.4199
13733TIP3    H262615   4.739   4.160  14.626  2.2036  0.2765  0.2943
13734TIP3   OH262616   0.746   6.031  12.559  0.1340 -0.4933  0.7509
13734TIP3    H162617   0.682   6.063  12.496 -0.3309 -3.6766 -0.4942
13734TIP3    H262618   0.695   6.008  12.637  0.1917 -0.0492  0.9191
13735TIP3   OH262619   6.681   4.380   1.121 -0.6549 -0.3071 -0.1215
13735TIP3    H162620   6.766   4.387   1.077 -0.2988 -0.1268  0.5892
13735TIP3    H262621   6.688   4.300   1.173 -1.0392 -0.4640 -0.3088
13736TIP3   OH262622   4.223   2.686   5.895 -0.0322 -0.5640 -0.2984
13736TIP3    H162623   4.263   2.711   5.979 -0.2299 -0.2871 -0.2835
13736TIP3    H262624   4.275   2.613   5.864  0.1255 -0.5813  0.0054
13737TIP3   OH262625   1.737   3.577   3.716 -0.2393  0.3927 -0.3288
13737TIP3    H162626   1.770   3.488   3.702  0.1311  0.4192  0.3512
13737TIP3    H262627   1.806   3.620   3.767  0.5169  1.6975 -2.3952
13738TIP3   OH262628   0.090   3.195   3.177 -0.5407  0.8897  0.0659
13738TIP3    H162629   0.035   3.237   3.111 -1.2928  1.2616  0.9159
13738TIP3    H262630   0.149   3.264   3.207 -1.3231  1.1701  0.9787
13739TIP3   OH262631   5.362   3.414  15.935  0.2088 -0.7305  0.0769
13739TIP3    H162632   5.276   3.443  15.905  0.4428 -0.4631 -0.3379
13739TIP3    H262633   5.343   3.354  16.007 -0.2445  1.6902  2.0616
13740TIP3   OH262634   6.011   1.423   3.490  0.2550 -0.5345  0.4009
13740TIP3    H162635   5.920   1.427   3.520 -0.1276 -0.6167 -0.7154
13740TIP3    H262636   6.020   1.334   3.456  0.4224 -0.1549 -0.5408
13741TIP3   OH262637   0.573   1.028   2.874  0.5751  0.0592 -0.8526
13741TIP3    H162638   0.645   1.090   2.866  1.1432 -0.5186 -0.2510
13741TIP3    H262639   0.582   0.969   2.800  2.4072 -1.7442  0.7509
13742TIP3   OH262640   1.036   5.242  15.735  0.0583  0.0073  0.1977
13742TIP3    H162641   1.114   5.187  15.747  0.1755  0.0947 -0.1487
13742TIP3    H262642   1.008   5.225  15.645 -0.9355 -0.8013  0.6553
13743TIP3   OH262643   1.925   1.842   3.473  0.4750 -0.0856 -0.0265
13743TIP3    H162644   2.006   1.894   3.482  0.3528 -0.2751  2.5115
13743TIP3    H262645   1.868   1.897   3.419  1.6999  0.7565 -0.5189
13744TIP3   OH262646   2.460   3.712   2.355  0.5783 -0.0954  0.7679
13744TIP3    H162647   2.519   3.637   2.350 -1.5623 -1.8554  1.3435
13744TIP3    H262648   2.515   3.783   2.388  3.1304 -0.8447 -1.6655
13745TIP3   OH262649   3.173   2.450   0.332 -1.0089  0.1540 -0.5083
13745TIP3    H162650   3.223   2.392   0.389  0.0641  1.3803 -0.1889
13745TIP3    H262651   3.102   2.395   0.299 -0.6301 -1.0490  0.6249
13746TIP3   OH262652   5.243   2.172   6.017 -0.0331  0.2157  0.3299
13746TIP3    H162653   5.257   2.138   5.929 -1.1247  2.6654 -0.8359
13746TIP3    H262654   5.158   2.136   6.043  0.9810 -1.7363  1.0166
13747TIP3   OH262655   6.507   1.684  16.159  0.7925  0.0270 -0.2838
13747TIP3    H162656   6.471   1.671  16.247  1.3500 -0.1687 -0.0839
13747TIP3    H262657   6.466   1.764  16.128  0.6602  0.1472  0.1931
13748TIP3   OH262658   0.327   4.254  14.263  0.1930 -0.2394 -0.8339
13748TIP3    H162659   0.404   4.308  14.280  0.1321 -0.2100 -0.6546
13748TIP3    H262660   0.261   4.317  14.230 -0.3263  0.0245  0.6701
13749TIP3   OH262661   4.708   1.444   4.840 -0.5194  0.5638 -0.0677
13749TIP3    H162662   4.708   1.354   4.872 -0.7571 -0.1569 -2.0305
13749TIP3    H262663   4.751   1.494   4.909  0.3415 -1.1886  0.6982
13750TIP3   OH262664   1.845   0.054  16.635 -0.8758  0.6393  0.1007
13750TIP3    H162665   1.750   0.065  16.634 -0.9772 -0.1240  0.5489
13750TIP3    H262666   1.876   0.107  16.562 -1.7317  0.1723 -0.6121
13751TIP3   OH262667   4.150   0.841   2.776 -0.2364  0.2612 -0.1640
13751TIP3    H162668   4.166   0.855   2.870 -0.9510 -0.9672  0.1628
13751TIP3    H262669   4.236   0.850   2.735 -0.4885  4.5030  0.0917
13752TIP3   OH262670   4.365   2.381  15.797 -0.1566 -0.5237  0.1997
13752TIP3    H162671   4.318   2.447  15.847 -0.6305  0.3154 -1.3111
13752TIP3    H262672   4.454   2.415  15.789 -0.2467 -0.3454 -0.0618
13753TIP3   OH262673   1.393   1.526   2.598 -0.6731 -0.1682  0.7899
13753TIP3    H162674   1.422   1.616   2.613  2.4309 -1.1535  1.0626
13753TIP3    H262675   1.388   1.518   2.503 -0.1940  0.0692  0.7439
13754TIP3   OH262676   3.801   5.741   1.278  0.3232 -0.2502 -0.7587
13754TIP3    H162677   3.776   5.655   1.244  1.7693 -0.6200 -0.9316
13754TIP3    H262678   3.783   5.736   1.372 -0.4930 -0.4063 -0.9221
13755TIP3   OH262679   4.280   6.346  13.068 -0.5046  0.4009  0.0630
13755TIP3    H162680   4.282   6.356  12.973 -3.7724  0.6530 -0.0634
13755TIP3    H262681   4.273   6.252  13.083  1.5662  0.2422  0.1407
13756TIP3   OH262682   2.463   0.272   6.068 -0.2818 -0.0745 -0.5425
13756TIP3    H162683   2.426   0.250   6.153  2.7455 -0.1750  0.8100
13756TIP3    H262684   2.499   0.360   6.080  0.7574 -0.3631 -1.5237
13757TIP3   OH262685   5.755   2.166   4.672  0.2229 -0.1469 -0.2719
13757TIP3    H162686   5.694   2.119   4.616 -1.1063  1.0292  0.1493
13757TIP3    H262687   5.739   2.131   4.760  1.7612 -1.4408 -0.4845
13758TIP3   OH262688   0.659   5.300  11.293 -0.2642 -0.2069 -0.4258
13758TIP3    H162689   0.590   5.236  11.308  0.1561 -0.6588 -0.4109
13758TIP3    H262690   0.613   5.385  11.292 -0.6749 -0.4079  0.6339
13759TIP3   OH262691   2.466   4.042  11.685  0.5709  0.3338  0.0045
13759TIP3    H162692   2.412   4.077  11.614  0.2095 -0.2002  0.0211
13759TIP3    H262693   2.435   3.953  11.698  1.1460  0.1770  0.3248
13760TIP3   OH262694   2.530   1.091   0.880 -0.1620 -0.3558 -0.1417
13760TIP3    H162695   2.489   1.164   0.834 -1.1512 -1.7534 -1.5880
13760TIP3    H262696   2.621   1.117   0.892 -0.8015  1.6245  0.5303
13761TIP3   OH262697   0.974   1.168   1.710  0.4031 -0.0501 -0.2058
13761TIP3    H162698   0.972   1.156   1.805 -1.3197  0.0245 -0.2166
13761TIP3    H262699   0.953   1.261   1.697 -2.1091 -0.6490 -0.7383
13762TIP3   OH262700   6.202   0.221  11.170 -0.7962  0.2230  0.9525
13762TIP3    H162701   6.190   0.219  11.075  0.1071  0.3231  0.8262
13762TIP3    H262702   6.257   0.298  11.185 -0.0490 -0.4058  1.4467
13763TIP3   OH262703   2.402   2.929  12.876 -0.2347  0.7453 -0.1865
13763TIP3    H162704   2.463   2.986  12.923 -0.9537  0.8054  0.6836
13763TIP3    H262705   2.315   2.966  12.895 -0.6064  0.1538 -0.7167
13764TIP3   OH262706   0.579   6.253  16.388  0.2319 -0.0379 -0.1809
13764TIP3    H162707   0.540   6.306  16.457  0.6324  0.3029 -0.2206
13764TIP3    H262708   0.512   6.187  16.369 -1.2604  1.8806 -1.7978
13765TIP3   OH262709   4.149   6.146   2.386 -0.2732 -0.5385  0.4411
13765TIP3    H162710   4.084   6.152   2.316 -1.1724 -0.9899  1.2291
13765TIP3    H262711   4.122   6.213   2.449 -0.2128 -1.0033  0.9652
13766TIP3   OH262712   4.107   4.553  16.093  0.1488  0.5778 -0.4086
13766TIP3    H162713   4.174   4.512  16.148 -0.1399 -0.1337 -0.5769
13766TIP3    H262714   4.155   4.603  16.028  0.5074  0.2319 -0.4077
13767TIP3   OH262715   5.615   5.729   0.121  0.1579  0.4632 -0.5402
13767TIP3    H162716   5.561   5.690   0.052 -0.5780 -1.0117  0.8210
13767TIP3    H262717   5.588   5.820   0.124 -1.4535  0.0072 -0.6468
13768TIP3   OH262718   6.146   1.939   2.084 -0.3037 -0.3542  0.0274
13768TIP3    H162719   6.051   1.945   2.072  0.1009  3.0823 -2.6890
13768TIP3    H262720   6.168   2.017   2.135  0.8414 -2.3805  2.7014
13769TIP3   OH262721   2.234   2.305   3.055  0.4822 -0.0983 -0.2232
13769TIP3    H162722   2.160   2.263   3.099  0.9468 -1.6860 -0.9461
13769TIP3    H262723   2.308   2.293   3.116  0.2646  1.1431  0.3181
13770TIP3   OH262724   3.406   5.139  14.572  0.4252  0.7306 -0.0675
13770TIP3    H162725   3.381   5.049  14.590  0.2102  0.7305 -0.3664
13770TIP3    H262726   3.477   5.133  14.508 -1.1576  0.8371 -1.8983
13771TIP3   OH262727   6.057   2.601  13.966  0.2230  0.5216  0.2352
13771TIP3    H162728   6.129   2.662  13.984 -0.8338  1.5715  1.0101
13771TIP3    H262729   6.100   2.516  13.955  1.6123  1.1854  0.3646
13772TIP3   OH262730   1.882   1.672   1.807 -0.0357 -0.0759 -0.8168
13772TIP3    H162731   1.975   1.658   1.794  0.1088 -0.6044  0.7639
13772TIP3    H262732   1.870   1.767   1.798  0.8755  0.1534  0.3549
13773TIP3   OH262733   2.200   6.042  16.032  0.8171  0.1471 -0.6588
13773TIP3    H162734   2.286   6.003  16.050  0.7441  0.0829 -0.4391
13773TIP3    H262735   2.214   6.136  16.041  0.7170  0.0992  0.0405
13774TIP3   OH262736   3.251   3.260  16.258 -0.0027 -0.6471 -0.4437
13774TIP3    H162737   3.166   3.247  16.216 -0.0976 -1.0842 -0.1216
13774TIP3    H262738   3.309   3.286  16.186 -1.0148  2.3891 -0.2453
13775TIP3   OH262739   1.389   6.293  15.094 -0.3609 -0.1131  0.4635
13775TIP3    H162740   1.295   6.286  15.115 -0.3909 -1.6652 -0.0762
13775TIP3    H262741   1.426   6.212  15.127  0.1768 -1.1029 -2.3783
13776TIP3   OH262742   5.648   0.541   1.276 -0.0822  0.6673  0.6318
13776TIP3    H162743   5.686   0.629   1.274 -0.1900  0.7097  0.3334
13776TIP3    H262744   5.555   0.556   1.292 -0.3559  0.6991 -0.8906
13777TIP3   OH262745   0.625   4.036  15.351 -0.0462  0.0300 -0.1829
13777TIP3    H162746   0.584   4.003  15.271  2.0745 -1.4517 -0.7191
13777TIP3    H262747   0.626   3.961  15.410 -1.3582  1.0452  1.1763
13778TIP3   OH262748   3.740   3.916   4.063  0.9942  0.1236 -0.2729
13778TIP3    H162749   3.749   3.993   4.118 -0.4600  0.2802 -0.2372
13778TIP3    H262750   3.792   3.849   4.108  0.1042  0.3431  1.1128
13779TIP3   OH262751   2.984   5.131   5.994 -0.5604 -1.0159  0.5624
13779TIP3    H162752   3.069   5.095   6.018  0.3603  0.1559 -0.8780
13779TIP3    H262753   2.932   5.125   6.075  0.6826 -2.2513  1.3004
13780TIP3   OH262754   1.190   2.948   3.533 -0.0747 -0.5362  0.4319
13780TIP3    H162755   1.150   2.865   3.505  0.2589  0.0351 -1.7862
13780TIP3    H262756   1.271   2.921   3.575  0.0353 -1.3487 -0.2775
13781TIP3   OH262757   2.515   5.343  11.786  0.0479  0.1421 -0.1550
13781TIP3    H162758   2.462   5.267  11.812  0.0857  0.4926  0.9412
13781TIP3    H262759   2.496   5.353  11.692  2.1183 -2.8975 -0.9761
13782TIP3   OH262760   4.713   5.910  12.569 -0.1498  0.3923  0.4881
13782TIP3    H162761   4.698   5.838  12.507  1.2848  0.8407 -0.3959
13782TIP3    H262762   4.632   5.914  12.620 -1.5440  0.2962 -1.6350
13783TIP3   OH262763   6.298   2.222   5.204 -0.3157  0.0115 -0.2021
13783TIP3    H162764   6.364   2.287   5.180 -0.4261  0.3318  0.3549
13783TIP3    H262765   6.214   2.263   5.184 -0.3719 -0.1159 -0.2306
13784TIP3   OH262766   5.071   0.417  10.739  0.2139 -0.5985  0.5400
13784TIP3    H162767   5.115   0.388  10.659 -0.2755  0.3500 -0.0768
13784TIP3    H262768   5.139   0.464  10.788 -0.0140  0.5915 -0.2661
13785TIP3   OH262769   0.806   6.700   3.232  0.2277 -0.1419 -0.1829
13785TIP3    H162770   0.839   6.657   3.153  0.8419 -0.7090  0.3804
13785TIP3    H262771   0.799   6.793   3.207 -0.7085 -0.4859 -1.2619
13786TIP3   OH262772   2.413   0.388  16.533  0.0433  0.2171  0.1267
13786TIP3    H162773   2.398   0.476  16.498  3.2931  0.7150 -0.2118
13786TIP3    H262774   2.386   0.394  16.625  0.1934  1.5541  0.0974
13787TIP3   OH262775   0.693   5.634   4.388 -0.3314 -0.1520 -0.0551
13787TIP3    H162776   0.696   5.657   4.295  2.1654 -0.7217 -0.1423
13787TIP3    H262777   0.782   5.605   4.408 -1.1328 -1.0653  2.2538
13788TIP3   OH262778   3.083   4.774   0.978  0.3483 -0.0290 -0.1181
13788TIP3    H162779   3.155   4.818   0.933 -0.5308  1.8705  0.2829
13788TIP3    H262780   3.071   4.824   1.058 -1.6908 -0.0426 -0.3873
13789TIP3   OH262781   3.621   1.076   0.203  0.2945  0.3974 -0.0670
13789TIP3    H162782   3.591   1.156   0.160 -0.3228  0.7249  0.9471
13789TIP3    H262783   3.548   1.015   0.193  0.4787  0.2017 -0.2127
13790TIP3   OH262784   6.770   4.077  11.669 -0.6421  0.1573  0.3431
13790TIP3    H162785   6.821   4.154  11.644  1.9386 -1.2660  1.0961
13790TIP3    H262786   6.802   4.007  11.612 -2.0174 -0.6820  0.5709
13791TIP3   OH262787   3.170   2.812  10.851  1.0724  0.0500 -0.2016
13791TIP3    H162788   3.164   2.905  10.873  1.6875 -0.6202  3.0781
13791TIP3    H262789   3.246   2.807  10.792  2.3175  1.3730  1.2300
13792TIP3   OH262790   4.591   0.918   3.855  0.4136  0.0865 -0.4346
13792TIP3    H162791   4.602   0.825   3.836  0.4373  0.6658 -3.4432
13792TIP3    H262792   4.509   0.923   3.903  1.4029 -1.6799  1.5353
13793TIP3   OH262793   2.819   0.297   3.041  0.3235 -0.1219  0.0592
13793TIP3    H162794   2.780   0.332   3.121  0.8377 -0.3469  0.4052
13793TIP3    H262795   2.786   0.207   3.035 -1.1793  0.4771 -0.9489
13794TIP3   OH262796   3.956   2.953  13.419  0.5082 -0.6998 -0.8338
13794TIP3    H162797   3.987   2.893  13.487  1.2384  1.7761  1.0786
13794TIP3    H262798   4.036   2.984  13.376  0.6159  3.1398  1.9101
13795TIP3   OH262799   0.242   1.067  14.613 -0.3489  0.3763 -0.5759
13795TIP3    H162800   0.162   1.100  14.654 -0.0353  0.5877 -0.1251
13795TIP3    H262801   0.244   0.974  14.633 -0.7951  0.2490 -1.1135
13796TIP3   OH262802   6.504   3.819  12.819 -0.0206  0.7211 -0.1418
13796TIP3    H162803   6.440   3.891  12.814 -1.2711 -0.1566  2.3337
13796TIP3    H262804   6.450   3.740  12.822  1.0658  0.0087  2.9528
13797TIP3   OH262805   6.071   3.481  11.372 -0.5243  0.3598  0.2133
13797TIP3    H162806   6.086   3.429  11.293 -1.6446  1.4198 -0.7024
13797TIP3    H262807   5.977   3.497  11.373 -0.8169 -1.2239  2.7775
13798TIP3   OH262808   4.805   6.541  13.976 -0.4264  0.4145  0.0144
13798TIP3    H162809   4.878   6.516  13.919 -1.6455 -2.2351 -0.4813
13798TIP3    H262810   4.736   6.568  13.915 -0.2570  1.7902  0.4311
13799TIP3   OH262811   6.396   5.018   3.861 -0.0348 -0.5767 -0.2944
13799TIP3    H162812   6.447   5.031   3.942 -0.3414  1.3156 -0.3813
13799TIP3    H262813   6.309   5.053   3.882  0.3615  1.4485 -1.9588
13800TIP3   OH262814   0.341   0.406  12.598  0.2536 -0.2142  0.1510
13800TIP3    H162815   0.369   0.350  12.671 -0.8551 -0.7856  0.1562
13800TIP3    H262816   0.275   0.464  12.636 -0.2658 -0.4567 -0.3619
13801TIP3   OH262817   5.779   2.123  12.179 -0.0584  0.3748 -0.2970
13801TIP3    H162818   5.686   2.135  12.200 -0.0592  2.3812 -1.3516
13801TIP3    H262819   5.825   2.175  12.245  0.3035 -0.0490 -0.2093
13802TIP3   OH262820   3.976   1.608  15.184 -0.0957 -0.2148  0.2327
13802TIP3    H162821   4.017   1.522  15.187 -0.5571 -0.4551 -0.2511
13802TIP3    H262822   4.048   1.668  15.164  0.1312 -0.5606  0.0105
13803TIP3   OH262823   3.413   1.660   1.627  0.3325  0.0280  0.2142
13803TIP3    H162824   3.504   1.660   1.655  0.5039  2.7256 -0.2564
13803TIP3    H262825   3.399   1.572   1.591  3.0841  0.0087 -0.9056
13804TIP3   OH262826   6.324   2.950  16.912 -0.0187 -0.1984 -0.0881
13804TIP3    H162827   6.316   2.886  16.841 -0.9900  0.0780 -0.2355
13804TIP3    H262828   6.322   2.898  16.992 -0.7436 -0.3555 -0.2107
13805TIP3   OH262829   0.528   6.360  13.957 -0.1831 -0.1108  0.0603
13805TIP3    H162830   0.517   6.414  13.879 -0.5934  0.2834  0.3910
13805TIP3    H262831   0.574   6.416  14.019 -0.9913  0.0077  0.5610
13806TIP3   OH262832   0.788   5.410   0.393 -0.2292 -0.5196  0.4396
13806TIP3    H162833   0.833   5.359   0.460  0.2397 -0.9668 -0.2150
13806TIP3    H262834   0.852   5.420   0.323 -0.7084 -0.0343  0.0647
13807TIP3   OH262835   5.746   0.500  16.189 -0.4449  0.7048  0.4494
13807TIP3    H162836   5.714   0.440  16.122 -4.2145  0.6793  2.1338
13807TIP3    H262837   5.771   0.444  16.262  1.1341  0.8814  0.0485
13808TIP3   OH262838   5.842   1.308   5.628 -0.3921  0.1132  0.0031
13808TIP3    H162839   5.828   1.232   5.572 -1.2880  1.5129 -1.7369
13808TIP3    H262840   5.932   1.336   5.607 -0.0357 -0.5087  0.7001
13809TIP3   OH262841   4.949   0.396   1.463  0.5050  0.0844  0.1211
13809TIP3    H162842   4.939   0.484   1.498  0.9680  0.0514  0.3454
13809TIP3    H262843   5.026   0.361   1.508  2.3622  0.7827 -2.4299
13810TIP3   OH262844   3.156   0.021  12.247 -0.7849  0.2346 -0.6569
13810TIP3    H162845   3.200   0.090  12.196 -1.3746 -0.9898 -2.9104
13810TIP3    H262846   3.102  -0.025  12.183 -0.2483 -2.4591  0.7390
13811TIP3   OH262847   2.638   1.695   5.036 -0.0951 -0.3275 -0.5056
13811TIP3    H162848   2.648   1.604   5.008 -1.1792 -0.2680 -1.1161
13811TIP3    H262849   2.585   1.735   4.968  1.3079  1.0593 -0.8168
13812TIP3   OH262850   3.756   2.390  14.716  0.6880 -0.3870 -0.3080
13812TIP3    H162851   3.703   2.373  14.794 -2.8515  0.9574 -2.2971
13812TIP3    H262852   3.738   2.316  14.658  2.2753 -0.7224 -0.3813
13813TIP3   OH262853   4.267   0.203   1.964  0.1495  0.1641 -0.5171
13813TIP3    H162854   4.343   0.147   1.947 -1.1218 -1.4890 -0.9531
13813TIP3    H262855   4.198   0.167   1.907 -0.4060  2.8821 -1.6518
13814TIP3   OH262856   4.065   1.351   6.897 -0.5046 -0.0061  0.0558
13814TIP3    H162857   4.141   1.301   6.868 -0.3096  0.5477 -0.3712
13814TIP3    H262858   4.087   1.442   6.880 -1.3596  0.1414 -0.2863
13815TIP3   OH262859   2.373   2.145   5.014 -0.5375  0.0695  0.5742
13815TIP3    H162860   2.350   2.231   5.050  1.6390  0.2374  1.6642
13815TIP3    H262861   2.409   2.164   4.927 -1.6356  0.0900  0.1194
13816TIP3   OH262862   6.495   6.015   3.927 -0.2891 -0.2677  0.1544
13816TIP3    H162863   6.431   6.038   3.860  0.6894 -0.4247 -0.8526
13816TIP3    H262864   6.580   6.037   3.888  0.4174 -2.0297  0.6396
13817TIP3   OH262865   2.726   0.955   3.528  0.5173  0.1511 -0.6214
13817TIP3    H162866   2.775   1.037   3.540 -1.1135  1.1112 -0.4206
13817TIP3    H262867   2.700   0.956   3.436 -0.4353  0.3728 -0.3455
13818TIP3   OH262868   1.763   6.565   3.040 -0.0796 -0.3159  0.9096
13818TIP3    H162869   1.738   6.580   2.949  2.2404  0.2394  0.3137
13818TIP3    H262870   1.761   6.470   3.051 -1.0635 -0.3395  0.4914
13819TIP3   OH262871   3.799   6.056   1.333 -0.3064 -0.5455 -0.7805
13819TIP3    H162872   3.849   6.003   1.396 -1.0439 -0.8977 -0.4853
13819TIP3    H262873   3.739   5.994   1.292  0.0193 -0.2673 -1.6735
13820TIP3   OH262874   0.571   5.942  14.872 -0.1500 -0.1370 -0.1126
13820TIP3    H162875   0.592   5.913  14.783  0.8766 -2.8571  0.9632
13820TIP3    H262876   0.488   5.899  14.892 -1.0818  1.5849 -0.2499
13821TIP3   OH262877   0.597   5.859   6.259 -0.0834  0.7481 -0.4158
13821TIP3    H162878   0.580   5.938   6.311 -1.5229  0.6039 -0.6483
13821TIP3    H262879   0.566   5.788   6.314  1.2913  0.3254 -0.1730
13822TIP3   OH262880   5.089   4.674  11.286  0.0711  0.4747  0.0761
13822TIP3    H162881   5.166   4.643  11.240 -0.1228  1.2373 -0.7690
13822TIP3    H262882   5.055   4.597  11.332  0.4565 -0.2091 -0.7796
13823TIP3   OH262883   5.104   4.324  16.081 -0.2084  0.1671  0.3070
13823TIP3    H162884   5.072   4.409  16.051  0.1086  0.5029  0.9041
13823TIP3    H262885   5.097   4.329  16.177 -0.4118 -0.5703  0.3318
13824TIP3   OH262886   4.008   3.557   1.766 -0.2224 -0.2375  0.2267
13824TIP3    H162887   3.953   3.580   1.841 -0.0184 -0.3051  0.3979
13824TIP3    H262888   4.084   3.616   1.773  0.6667 -1.4639  1.0861
13825TIP3   OH262889   6.619   5.203   5.769 -0.3609  0.5082  0.1790
13825TIP3    H162890   6.577   5.214   5.854  1.2073  1.1869  0.8996
13825TIP3    H262891   6.547   5.188   5.708 -1.4281 -1.3349  1.8270
13826TIP3   OH262892   1.956   0.186  16.385 -0.2966  0.6454 -0.6006
13826TIP3    H162893   2.031   0.241  16.409 -0.3417  0.4056  0.1121
13826TIP3    H262894   1.974   0.158  16.296 -0.0339  1.4211 -0.8012
13827TIP3   OH262895   6.765   2.306  15.463 -0.6871 -0.0383 -0.3108
13827TIP3    H162896   6.732   2.269  15.544  0.1475 -1.2291 -0.5021
13827TIP3    H262897   6.854   2.271  15.454 -0.6914  0.2316 -1.6369
13828TIP3   OH262898   4.697   6.643   0.070 -0.1321 -0.5949  0.3008
13828TIP3    H162899   4.744   6.721   0.040 -3.0185  0.1040 -2.7713
13828TIP3    H262900   4.740   6.619   0.152  2.7037  2.5030 -0.1602
13829TIP3   OH262901   3.388   2.159   1.744  0.1815  0.6179 -0.0503
13829TIP3    H162902   3.391   2.065   1.729  1.4323  0.6880 -0.2733
13829TIP3    H262903   3.351   2.195   1.663  0.8948  0.4249 -0.4657
13830TIP3   OH262904   1.095   4.494  15.435 -0.0270 -0.5448  0.2097
13830TIP3    H162905   1.133   4.581  15.447 -1.6953  0.2703 -0.2852
13830TIP3    H262906   1.077   4.488  15.341  2.1742 -2.3346 -0.1400
13831TIP3   OH262907   3.652   4.164  13.195 -0.5719  0.2915  0.0408
13831TIP3    H162908   3.584   4.185  13.131 -1.0504 -1.1175  0.0681
13831TIP3    H262909   3.718   4.116  13.145 -0.1041  0.7112  0.2463
13832TIP3   OH262910   3.124   2.458   4.226  0.1270 -0.6115 -0.4585
13832TIP3    H162911   3.220   2.453   4.222  0.2537 -1.6996  2.2855
13832TIP3    H262912   3.096   2.367   4.237 -1.1628 -0.2121 -0.3323
13833TIP3   OH262913   4.020   2.120   4.443 -0.4546 -0.0861 -0.2869
13833TIP3    H162914   3.952   2.129   4.510  1.1944 -0.8222  1.5330
13833TIP3    H262915   4.007   2.196   4.386 -1.0870  1.2655  1.6079
13834TIP3   OH262916   3.617   5.309   5.548 -0.0762  0.2553  0.0395
13834TIP3    H162917   3.614   5.220   5.513  1.4857  0.4598 -0.6580
13834TIP3    H262918   3.567   5.304   5.629  0.1029 -1.2965  0.0781
13835TIP3   OH262919   6.466   0.391  11.295  0.5228 -0.3678 -0.7323
13835TIP3    H162920   6.511   0.470  11.325  0.8677 -0.2401 -1.5634
13835TIP3    H262921   6.387   0.424  11.252  0.3033 -0.5202 -0.4484
13836TIP3   OH262922   5.814   6.775  13.710 -0.3266  0.4104  0.0440
13836TIP3    H162923   5.722   6.798  13.699  0.2945  2.8766 -0.2934
13836TIP3    H262924   5.851   6.777  13.622  0.0315 -0.7845  0.1511
13837TIP3   OH262925   2.262   5.236   4.998 -0.2788  0.2452  0.3164
13837TIP3    H162926   2.232   5.169   5.060  0.9585 -0.0241  0.6538
13837TIP3    H262927   2.191   5.300   4.995 -1.2034 -0.7541  0.4850
13838TIP3   OH262928   0.551   1.988   0.501 -0.3647 -1.0846  0.6538
13838TIP3    H162929   0.552   2.011   0.594 -1.0743  0.0574  0.3888
13838TIP3    H262930   0.643   1.968   0.481 -0.4158 -2.7270  1.9168
13839TIP3   OH262931   0.534   6.061  15.880  0.4187  0.3159 -0.0494
13839TIP3    H162932   0.615   6.066  15.930  0.4399 -1.0569  0.0746
13839TIP3    H262933   0.555   6.103  15.797  0.7728  1.4168  0.5917
13840TIP3   OH262934   2.458   3.900   5.808 -0.0063 -0.1779  0.1088
13840TIP3    H162935   2.501   3.862   5.884 -1.2424  0.5844  1.2079
13840TIP3    H262936   2.419   3.981   5.840 -2.0620 -0.7321 -0.9089
13841TIP3   OH262937   1.732   5.100  14.758  0.2731 -0.0695 -0.0198
13841TIP3    H162938   1.791   5.049  14.813 -0.2748  0.1980  0.8451
13841TIP3    H262939   1.694   5.036  14.698 -2.2917 -1.2380  2.6594
13842TIP3   OH262940   6.231   3.692  12.949 -0.3024 -0.5509  0.3035
13842TIP3    H162941   6.247   3.751  13.024 -0.2893 -0.1682  0.0017
13842TIP3    H262942   6.240   3.604  12.985 -1.5797 -0.3972  1.0556
13843TIP3   OH262943   2.305   1.579  13.201 -0.0568 -0.3262  0.4435
13843TIP3    H162944   2.342   1.509  13.254 -0.2606 -1.4071 -0.8022
13843TIP3    H262945   2.235   1.615  13.255  0.2527 -0.8744  1.2270
13844TIP3   OH262946   2.755   6.773   2.036 -0.1522  0.0057 -0.2782
13844TIP3    H162947   2.773   6.684   2.007  0.1393 -0.2039  0.5540
13844TIP3    H262948   2.777   6.774   2.129 -1.4544  0.5877  0.0305
13845TIP3   OH262949   0.918   0.092   5.489  0.1581  0.0712 -0.0434
13845TIP3    H162950   0.983   0.107   5.421  1.4199 -1.1680  0.8536
13845TIP3    H262951   0.871   0.013   5.461  0.6022 -0.3743  0.4646
13846TIP3   OH262952   0.607   6.156   4.535 -0.0257 -0.4671  0.2755
13846TIP3    H162953   0.630   6.222   4.600 -0.9790 -0.1145  0.2662
13846TIP3    H262954   0.617   6.200   4.451  3.5595 -1.6225 -0.0035
13847TIP3   OH262955   0.327   4.291  12.504 -0.1135 -0.3346  0.0548
13847TIP3    H162956   0.253   4.293  12.565  0.0576 -1.1418  0.2912
13847TIP3    H262957   0.287   4.287  12.417 -0.3750  1.8353  0.0429
13848TIP3   OH262958   2.760   3.468   1.611 -0.5168  0.1093 -0.7912
13848TIP3    H162959   2.772   3.388   1.560  1.6275  0.6723 -1.2471
13848TIP3    H262960   2.694   3.446   1.677  0.2184 -2.1057 -0.7630
13849TIP3   OH262961   4.299   1.895  11.356 -0.2952 -0.1283  0.1392
13849TIP3    H162962   4.371   1.832  11.356 -1.6417 -1.7335  0.9067
13849TIP3    H262963   4.274   1.904  11.264  1.0698  0.6757 -0.1618
13850TIP3   OH262964   3.590   3.315  13.270 -0.6352 -0.1511  0.0200
13850TIP3    H162965   3.651   3.293  13.340  0.4965  0.4606 -0.7428
13850TIP3    H262966   3.640   3.300  13.190 -1.3965  0.6200 -0.6162
13851TIP3   OH262967   6.132   0.166  13.046  0.7057  0.4292  0.2643
13851TIP3    H162968   6.209   0.119  13.078  0.0132  0.0931  1.4304
13851TIP3    H262969   6.102   0.218  13.120 -0.2042  0.5553 -0.1784
13852TIP3   OH262970   2.970   3.833  14.533  0.0800 -0.6007 -0.1504
13852TIP3    H162971   3.042   3.884  14.494 -0.3176  0.5428  0.5691
13852TIP3    H262972   2.909   3.900  14.566 -0.5077 -1.5522  0.7151
13853TIP3   OH262973   2.267   1.642   3.910  0.6796  0.4865 -0.5209
13853TIP3    H162974   2.254   1.737   3.911  2.2257  0.7114 -0.9615
13853TIP3    H262975   2.279   1.619   4.003 -1.6247  0.4151 -0.2024
13854TIP3   OH262976   1.801   6.572  11.364 -0.2774 -0.4576  0.2322
13854TIP3    H162977   1.790   6.624  11.285 -0.8028  0.8336  1.1463
13854TIP3    H262978   1.880   6.607  11.406  0.2323 -1.4034  0.0915
13855TIP3   OH262979   0.614   3.614  12.897 -0.1175 -0.4743  0.5937
13855TIP3    H162980   0.538   3.623  12.954 -0.7294 -1.3158 -0.0690
13855TIP3    H262981   0.689   3.619  12.956 -0.7624 -2.2858  1.6124
13856TIP3   OH262982   5.711   4.355  16.538 -0.0974  0.3466  0.3511
13856TIP3    H162983   5.737   4.271  16.498 -0.6514  0.8081 -0.9984
13856TIP3    H262984   5.779   4.416  16.510  0.1805  0.4079  1.1517
13857TIP3   OH262985   0.721   1.619  16.156 -0.3238  0.2635 -0.2475
13857TIP3    H162986   0.729   1.638  16.063 -0.4624  1.5242 -0.0132
13857TIP3    H262987   0.627   1.631  16.175 -0.2652  0.2059  0.0914
13858TIP3   OH262988   4.922   6.310  12.026 -0.0810 -0.8389  0.5275
13858TIP3    H162989   4.871   6.384  11.995  1.4633 -0.9867 -2.5370
13858TIP3    H262990   5.009   6.345  12.044  0.6265 -1.8149 -0.8223
13859TIP3   OH262991   4.970   3.279  11.517 -0.2490  0.1308  0.3819
13859TIP3    H162992   5.062   3.299  11.530 -0.4020  1.8756 -1.1027
13859TIP3    H262993   4.969   3.213  11.448 -0.0678 -0.7846  1.2393
13860TIP3   OH262994   1.864   5.756   5.000 -0.3546  0.2583  0.1988
13860TIP3    H162995   1.902   5.706   4.928  0.1614  0.7357  0.1382
13860TIP3    H262996   1.802   5.695   5.041  1.0609 -0.8284  0.7984
13861TIP3   OH262997   3.798   4.272  11.026  0.3332  0.2084 -0.3837
13861TIP3    H162998   3.883   4.227  11.028  0.5311  0.5920 -0.0579
13861TIP3    H262999   3.804   4.331  10.951 -0.2318 -0.8902 -1.3129
13862TIP3   OH263000   2.128   2.931  12.685  0.4034 -0.7595 -0.1666
13862TIP3    H163001   2.068   2.867  12.646 -2.8756  2.1127 -0.0263
13862TIP3    H263002   2.208   2.922  12.634 -1.4524 -1.9452 -3.0353
13863TIP3   OH263003   3.131   5.522  14.758  0.9733  0.0419 -0.0446
13863TIP3    H163004   3.156   5.568  14.678  2.3262  0.1685  0.4344
13863TIP3    H263005   3.141   5.429  14.736  0.5312  0.0486 -0.2793
13864TIP3   OH263006   0.100   1.596  10.550 -0.2519  0.3167  0.7217
13864TIP3    H163007   0.015   1.553  10.559 -0.4004  0.3802 -0.2956
13864TIP3    H263008   0.162   1.525  10.535 -0.4709  0.4343 -0.7856
13865TIP3   OH263009   3.632   2.741   3.449  0.4170  0.1860  0.0383
13865TIP3    H163010   3.558   2.708   3.397  1.3443 -2.1855  0.1727
13865TIP3    H263011   3.603   2.733   3.540  0.2565  0.6917  0.0306
13866TIP3   OH263012   4.591   0.082  16.730 -0.4114  0.1734  0.0790
13866TIP3    H163013   4.496   0.078  16.717 -0.3138 -0.5210 -0.4612
13866TIP3    H263014   4.608   0.021  16.802 -0.6884  2.3443  2.0121
13867TIP3   OH263015   3.383   5.256   6.578 -0.1404  0.2190  0.7450
13867TIP3    H163016   3.288   5.268   6.576  0.0411  1.7599 -0.6874
13867TIP3    H263017   3.415   5.321   6.515  1.9161  0.2446  1.8059
13868TIP3   OH263018   2.612   1.954  15.419  0.0894 -0.5451 -0.1034
13868TIP3    H163019   2.699   1.921  15.440  0.5262  0.1759 -0.7658
13868TIP3    H263020   2.627   2.024  15.356 -0.8047  1.0334  1.4069
13869TIP3   OH263021   0.412   0.020  12.082  0.7178  0.0002  0.6736
13869TIP3    H163022   0.372   0.046  11.999 -1.9198 -1.9853  1.2427
13869TIP3    H263023   0.440   0.102  12.122 -1.3139  1.3196 -0.5354
13870TIP3   OH263024   3.683   0.318   0.422  0.0557 -0.1124 -0.7621
13870TIP3    H163025   3.626   0.242   0.432 -1.1342  0.7189 -1.1050
13870TIP3    H263026   3.647   0.365   0.346  0.4735  1.0423 -0.2572
13871TIP3   OH263027   0.252   6.290  13.948 -0.0030  0.2451 -1.0122
13871TIP3    H163028   0.345   6.289  13.926  0.1788  1.4928 -0.3557
13871TIP3    H263029   0.207   6.293  13.864  0.5484 -0.0969 -1.3263
13872TIP3   OH263030   6.042   0.891  12.431 -0.1656  0.3175 -0.2008
13872TIP3    H163031   6.118   0.877  12.375 -0.2269 -0.9140 -0.0087
13872TIP3    H263032   6.051   0.825  12.500 -1.1858  0.4217  0.0442
13873TIP3   OH263033   0.548   5.765   3.770 -0.1270 -0.1755  0.0808
13873TIP3    H163034   0.590   5.821   3.704 -0.2399 -0.1632  0.0171
13873TIP3    H263035   0.539   5.821   3.847  0.2824 -0.2846  0.2048
13874TIP3   OH263036   4.299   6.272  16.996 -0.1089  0.1357  0.4716
13874TIP3    H163037   4.314   6.226  17.079 -0.2379 -0.2653  0.2771
13874TIP3    H263038   4.301   6.202  16.930  0.1312  0.4712  0.1238
13875TIP3   OH263039   6.485   3.844  11.445 -0.1347 -0.4326 -0.2585
13875TIP3    H163040   6.480   3.931  11.484 -2.5699 -0.7181  0.1096
13875TIP3    H263041   6.395   3.823  11.420  0.5625 -2.4768 -1.1748
13876TIP3   OH263042   0.551   3.398   5.296  0.1009  0.3871  0.3887
13876TIP3    H163043   0.520   3.309   5.311 -1.4293  1.0134  1.0817
13876TIP3    H263044   0.633   3.387   5.248  0.6061 -1.4165  1.6058
13877TIP3   OH263045   0.706   4.896   6.257  0.0194 -0.4854  0.4309
13877TIP3    H163046   0.764   4.923   6.328 -1.1024  0.7734  0.8835
13877TIP3    H263047   0.626   4.947   6.271 -0.5103 -0.8383 -1.2557
13878TIP3   OH263048   5.259   5.714   5.223 -0.2491  0.2046  0.1196
13878TIP3    H163049   5.345   5.693   5.259  0.0317  3.5553  1.5330
13878TIP3    H263050   5.278   5.755   5.139 -0.6777 -2.1741 -1.1991
13879TIP3   OH263051   6.610   2.668   5.704  0.4472 -0.5018  0.0327
13879TIP3    H163052   6.525   2.711   5.715  0.3770 -0.6105 -0.0791
13879TIP3    H263053   6.658   2.688   5.784  0.1419 -0.8338  0.2978
13880TIP3   OH263054   0.856   3.017   3.100 -0.3614 -0.2081  0.2865
13880TIP3    H163055   0.833   2.927   3.125  1.7204 -0.9442 -0.3268
13880TIP3    H263056   0.866   3.063   3.184 -1.9789 -0.3903  0.5919
13881TIP3   OH263057   0.179   0.488   6.078  0.0310 -0.0027 -0.0101
13881TIP3    H163058   0.204   0.498   6.170  0.2828 -3.3506  0.3581
13881TIP3    H263059   0.242   0.541   6.030  1.3626 -0.0650  1.6140
13882TIP3   OH263060   4.430   4.955  12.061  0.7185 -0.4060 -0.0791
13882TIP3    H163061   4.468   4.998  11.984 -1.1071 -0.0682 -0.8253
13882TIP3    H263062   4.435   4.862  12.041  1.0305 -0.3547 -0.2388
13883TIP3   OH263063   1.984   4.772   0.020 -0.0807 -0.3106 -0.1844
13883TIP3    H163064   2.065   4.779   0.070  0.3890  1.0646 -1.0992
13883TIP3    H263065   2.011   4.735  -0.064 -0.8539 -2.5703  0.5081
13884TIP3   OH263066   2.535   3.933  15.495 -0.1935  0.0916  0.4392
13884TIP3    H163067   2.578   3.868  15.440 -0.1559 -1.5804  2.3650
13884TIP3    H263068   2.449   3.896  15.514 -1.8115  2.5301 -1.8142
13885TIP3   OH263069   1.954   2.617   0.641 -0.0663 -0.5051 -0.2416
13885TIP3    H163070   1.882   2.581   0.694 -0.5643 -1.1206 -1.3314
13885TIP3    H263071   2.029   2.563   0.665 -0.4861 -1.3357 -0.7987
13886TIP3   OH263072   0.155   2.116   4.395 -0.2519 -0.1034 -0.4673
13886TIP3    H163073   0.191   2.115   4.307  0.6917  0.3674 -0.0850
13886TIP3    H263074   0.217   2.167   4.447 -0.6144 -0.6762  0.5511
13887TIP3   OH263075   4.338   0.436   3.635  0.4102  0.5240  0.0086
13887TIP3    H163076   4.323   0.508   3.697 -0.9034 -0.4974  0.9025
13887TIP3    H263077   4.322   0.357   3.685 -1.2508 -0.3097 -1.7474
13888TIP3   OH263078   6.701   0.363   3.913  0.3434  0.1603 -0.2067
13888TIP3    H163079   6.738   0.278   3.938  0.5770  0.4031  0.2795
13888TIP3    H263080   6.722   0.372   3.820 -1.4284 -1.2170 -0.7837
13889TIP3   OH263081   3.270   0.492  15.752  0.5243 -0.5047  0.4707
13889TIP3    H163082   3.290   0.400  15.771  0.3443 -0.5474  0.4513
13889TIP3    H263083   3.337   0.518  15.689  1.7170 -0.0862  1.8793
13890TIP3   OH263084   3.805   5.899  14.843 -0.5470 -0.0349  0.0215
13890TIP3    H163085   3.749   5.976  14.857 -0.5306  0.2307 -1.2857
13890TIP3    H263086   3.752   5.825  14.871 -1.4951  0.2338 -0.9955
13891TIP3   OH263087   5.098   5.604  14.161 -0.2852 -0.4305 -0.3969
13891TIP3    H163088   5.017   5.606  14.211 -0.1636  1.3506 -0.2628
13891TIP3    H263089   5.085   5.532  14.099 -1.6987 -0.5816  0.0485
13892TIP3   OH263090   4.201   0.599   2.222 -0.2894 -0.2942 -0.5332
13892TIP3    H163091   4.204   0.504   2.219  0.9544 -0.2723 -0.2700
13892TIP3    H263092   4.108   0.621   2.212 -0.4370 -1.4801 -1.8190
13893TIP3   OH263093   2.893   6.154   2.763 -0.0625 -0.0680 -0.1581
13893TIP3    H163094   2.849   6.199   2.690 -2.0033  2.3991  2.3688
13893TIP3    H263095   2.837   6.079   2.782  0.3518 -0.6147 -1.0630
13894TIP3   OH263096   1.794   0.255   5.535  0.0832  0.7080 -0.1770
13894TIP3    H163097   1.816   0.172   5.491 -0.8931  0.0523  0.5440
13894TIP3    H263098   1.743   0.228   5.612 -2.3939  2.1021 -1.2695
13895TIP3   OH263099   0.792   0.176   4.489 -0.3290  0.3697  0.2169
13895TIP3    H163100   0.851   0.195   4.562 -1.1631 -0.8653  1.2255
13895TIP3    H263101   0.848   0.139   4.421  0.2201  0.1265  0.8013
13896TIP3   OH263102   0.820   2.911   1.851 -0.1593 -0.0126  0.0379
13896TIP3    H163103   0.815   3.005   1.872  0.9150  0.2896 -1.0029
13896TIP3    H263104   0.746   2.896   1.794 -1.9798 -0.4242  2.4226
13897TIP3   OH263105   5.001   6.781  13.409 -0.0515  0.0375 -0.2947
13897TIP3    H163106   5.039   6.850  13.464  0.0281 -0.1166 -0.1551
13897TIP3    H263107   4.947   6.828  13.346 -1.0992  0.1548  0.6658
13898TIP3   OH263108   3.401   3.702   6.370 -1.0449 -0.4765  0.0827
13898TIP3    H163109   3.493   3.701   6.394 -1.1957  0.4597  0.7387
13898TIP3    H263110   3.377   3.795   6.372 -2.3807 -0.8326  1.4377
13899TIP3   OH263111   0.729   3.340   4.772 -0.2643 -0.3155  0.0304
13899TIP3    H163112   0.743   3.398   4.848 -0.3399 -0.7865  0.4087
13899TIP3    H263113   0.634   3.343   4.758 -0.1302  0.6565 -0.7600
13900TIP3   OH263114   0.639   3.856  11.337  0.4121  0.0224  0.5769
13900TIP3    H163115   0.562   3.869  11.391  0.3854  0.3154  0.4685
13900TIP3    H263116   0.709   3.835  11.399  0.7982  2.1413  0.8863
13901TIP3   OH263117   1.703   4.678  14.151  0.1510  0.3393  0.7467
13901TIP3    H163118   1.636   4.712  14.092 -0.7710  1.1333  2.2082
13901TIP3    H263119   1.744   4.755  14.188  1.3147 -0.1509  0.4836
13902TIP3   OH263120   0.558   6.475  14.404 -0.1201 -0.0090  0.2548
13902TIP3    H163121   0.502   6.543  14.442 -1.6051 -1.2145  0.2768
13902TIP3    H263122   0.520   6.393  14.436  1.6826 -0.8460  0.2832
13903TIP3   OH263123   5.847   6.738   3.260 -0.0200  0.5485  0.3133
13903TIP3    H163124   5.937   6.708   3.248  0.2910  0.2804  2.9911
13903TIP3    H263125   5.793   6.661   3.241  0.2419  0.8803 -1.9293
13904TIP3   OH263126   1.936   0.622  15.856  0.6999  0.3596  0.3805
13904TIP3    H163127   1.887   0.663  15.928 -1.0978 -0.0622 -0.5785
13904TIP3    H263128   1.917   0.529  15.864  1.7351  0.1378  0.2790
13905TIP3   OH263129   2.151   0.108  14.271  0.5295  0.1743  0.4054
13905TIP3    H163130   2.126   0.137  14.183 -1.9513  0.7998  1.2839
13905TIP3    H263131   2.235   0.149  14.287  1.0500  0.0039 -1.6970
13906TIP3   OH263132   5.432   1.271   5.927  0.0309 -0.3020  0.0023
13906TIP3    H163133   5.515   1.310   5.900 -0.0126  0.4520  0.9133
13906TIP3    H263134   5.457   1.199   5.985  0.0188  0.9108  1.5288
13907TIP3   OH263135   6.296   2.087  11.422  0.0988  0.3969  0.1934
13907TIP3    H163136   6.236   2.066  11.494 -0.3095 -1.3749 -0.6504
13907TIP3    H263137   6.259   2.043  11.346  2.0156 -0.0361 -0.5160
13908TIP3   OH263138   0.943   4.446  13.570  0.6127 -0.2676 -0.2339
13908TIP3    H163139   0.898   4.487  13.496  0.9105  1.1773  0.3582
13908TIP3    H263140   1.033   4.436  13.541  0.3705 -1.2492 -0.6663
13909TIP3   OH263141   1.869   2.978   5.367 -0.2207 -0.0044 -0.1142
13909TIP3    H163142   1.895   3.058   5.411 -3.0470  0.8866  0.0305
13909TIP3    H263143   1.845   3.006   5.278 -2.7965 -0.3721  0.4241
13910TIP3   OH263144   1.090   4.184  15.168 -0.2686  0.2291  0.0233
13910TIP3    H163145   1.030   4.109  15.168 -0.4188  0.3408 -0.9860
13910TIP3    H263146   1.176   4.146  15.184 -0.4710 -0.0538  0.4395
13911TIP3   OH263147   0.531   3.670   0.121  0.0494  0.8279  0.4518
13911TIP3    H163148   0.462   3.720   0.165 -0.5052 -0.1013  0.6467
13911TIP3    H263149   0.586   3.639   0.193 -2.1699 -2.6814  0.7594
13912TIP3   OH263150   3.547   5.704   0.407 -0.1600  0.6318  0.3640
13912TIP3    H163151   3.608   5.724   0.336  0.1428 -0.5589  0.2701
13912TIP3    H263152   3.462   5.695   0.363 -0.5968  3.1903  0.6177
13913TIP3   OH263153   1.674   2.074   4.393  0.4389 -0.4681 -0.1376
13913TIP3    H163154   1.712   1.997   4.435  0.1255 -0.0138  1.0067
13913TIP3    H263155   1.644   2.129   4.466  1.4878  1.1724 -0.8987
13914TIP3   OH263156   3.179   0.774   2.756 -0.1945  0.2901  0.0079
13914TIP3    H163157   3.107   0.765   2.819 -0.5211  1.9732 -0.0923
13914TIP3    H263158   3.240   0.834   2.799  1.5040 -1.6248  0.3714
13915TIP3   OH263159   5.815   6.061  14.897 -0.1980 -0.0758 -0.3322
13915TIP3    H163160   5.832   5.967  14.903 -0.3904 -0.1292 -0.6119
13915TIP3    H263161   5.870   6.100  14.965  0.5022 -0.3124 -0.7639
13916TIP3   OH263162   1.184   6.713   1.777  0.0574  0.0737 -0.4860
13916TIP3    H163163   1.123   6.785   1.763  0.1725  0.5094  1.1243
13916TIP3    H263164   1.240   6.714   1.700 -1.3416  0.2808 -1.5337
13917TIP3   OH263165   0.866   0.217   3.239  0.1643  0.3118  0.0659
13917TIP3    H163166   0.851   0.193   3.331 -1.3448  0.0926 -0.2250
13917TIP3    H263167   0.779   0.221   3.201  0.8084  0.0741 -1.4574
13918TIP3   OH263168   1.878   6.412  12.259  0.2818  0.5838  0.4978
13918TIP3    H163169   1.925   6.438  12.179  2.3113 -1.0976  1.0972
13918TIP3    H263170   1.887   6.488  12.317  2.7809  0.0961  0.7986
13919TIP3   OH263171   2.687   4.428  11.479  0.5101 -0.0991  0.0907
13919TIP3    H163172   2.671   4.349  11.532  2.8806  0.5972  1.9323
13919TIP3    H263173   2.746   4.481  11.532  1.0273  1.7614 -2.2560
13920TIP3   OH263174   6.084   6.564   4.765 -0.2206 -0.1197 -0.3411
13920TIP3    H163175   6.166   6.613   4.769 -1.0661  1.3261 -0.6050
13920TIP3    H263176   6.081   6.517   4.849  0.7800 -0.0597 -0.2594
13921TIP3   OH263177   1.391   2.682  15.820  0.0445 -0.7280 -0.6197
13921TIP3    H163178   1.324   2.727  15.872 -0.8305  0.0729 -2.3809
13921TIP3    H263179   1.448   2.752  15.789  1.5535 -1.3736  0.6020
13922TIP3   OH263180   5.006   5.889   1.289 -0.3015  0.2819  0.1590
13922TIP3    H163181   4.928   5.834   1.286 -1.9899  2.6790 -0.3675
13922TIP3    H263182   5.010   5.932   1.204  2.2913 -0.6823 -0.2774
13923TIP3   OH263183   2.838   2.285   4.724 -0.2959 -0.0209 -0.1870
13923TIP3    H163184   2.859   2.251   4.810 -0.4427  0.6009  0.0944
13923TIP3    H263185   2.885   2.228   4.663 -0.0782 -0.3657  0.3082
13924TIP3   OH263186   2.363   0.444  13.418 -0.0284 -0.2049 -0.4035
13924TIP3    H163187   2.429   0.427  13.351  1.2225 -0.1232  0.7980
13924TIP3    H263188   2.364   0.367  13.474  0.7793  0.8372  1.0377
13925TIP3   OH263189   6.531   6.377  11.747 -0.0964 -0.1152  0.0702
13925TIP3    H163190   6.604   6.376  11.809  0.6186  0.1341 -0.7458
13925TIP3    H263191   6.570   6.346  11.664 -0.8682  0.2115 -0.4168
13926TIP3   OH263192   6.551   2.228   5.961  0.1443 -0.5412  0.5561
13926TIP3    H163193   6.540   2.267   5.874  2.4564 -0.1487  0.4041
13926TIP3    H263194   6.464   2.196   5.985 -0.9736  1.2890 -0.9742
13927TIP3   OH263195   0.712   6.493  12.388  0.4448 -0.2125 -0.4999
13927TIP3    H163196   0.753   6.579  12.394  1.6064 -0.8606  1.3895
13927TIP3    H263197   0.778   6.438  12.345 -0.4947 -0.0646 -2.1786
13928TIP3   OH263198   3.941   4.480   2.793 -0.2307  0.1281 -0.6944
13928TIP3    H163199   4.011   4.419   2.818 -0.8417  0.0504  0.9018
13928TIP3    H263200   3.861   4.436   2.820 -0.8936  0.3318 -2.2858
13929TIP3   OH263201   4.477   2.598   4.993 -0.1521 -0.6437 -0.1029
13929TIP3    H163202   4.528   2.649   4.930  0.8190 -0.5652  0.7437
13929TIP3    H263203   4.407   2.658   5.020  0.1395 -0.2584 -0.1980
13930TIP3   OH263204   5.405   2.084  16.158  0.0325  0.0557 -0.0370
13930TIP3    H163205   5.367   2.171  16.152  0.9988  0.8571  4.2426
13930TIP3    H263206   5.494   2.094  16.124  0.5227  1.0060  1.5090
13931TIP3   OH263207   1.566   2.309   0.597 -0.3168  0.1827 -0.2995
13931TIP3    H163208   1.534   2.300   0.507 -1.1692  1.6364 -0.1574
13931TIP3    H263209   1.657   2.338   0.587 -0.5421  0.7583 -0.6775
13932TIP3   OH263210   0.606   3.786   2.188  0.5244 -0.3458 -0.4339
13932TIP3    H163211   0.601   3.868   2.140 -0.3127  0.6162  1.2620
13932TIP3    H263212   0.657   3.807   2.267 -0.4100 -1.2413  0.4277
13933TIP3   OH263213   3.495   5.478  16.515 -0.3790 -0.0218 -0.6214
13933TIP3    H163214   3.432   5.409  16.493  0.0676  0.6003 -4.1532
13933TIP3    H263215   3.578   5.433  16.525 -0.4914 -0.2681 -0.7901
13934TIP3   OH263216   1.178   3.854  13.748 -0.5912 -0.0916  0.0069
13934TIP3    H163217   1.146   3.808  13.670 -0.0459  1.4611 -1.1693
13934TIP3    H263218   1.106   3.909  13.775  0.0366  1.1689 -0.8530
13935TIP3   OH263219   0.232   1.359   2.487  0.4371 -0.2322 -0.2834
13935TIP3    H163220   0.312   1.336   2.439  0.0915  1.1643 -1.5767
13935TIP3    H263221   0.211   1.280   2.537  1.1835 -1.5289 -1.9421
13936TIP3   OH263222   5.936   1.793  16.222 -0.3538 -0.2712 -0.1729
13936TIP3    H163223   5.886   1.712  16.206 -1.4261  0.2648  0.4477
13936TIP3    H263224   6.028   1.764  16.222 -0.5098 -0.9897 -3.0788
13937TIP3   OH263225   0.703   0.143  15.179  0.2446  0.4814  0.1318
13937TIP3    H163226   0.797   0.127  15.172  0.0398  0.1125 -2.2237
13937TIP3    H263227   0.678   0.174  15.092 -1.8314  0.5500  0.7316
13938TIP3   OH263228   6.493   3.753   1.143  0.0485 -0.0962 -0.0592
13938TIP3    H163229   6.531   3.673   1.179 -0.5900 -0.3446  0.0578
13938TIP3    H263230   6.400   3.748   1.164 -0.2368  0.0139 -1.2712
13939TIP3   OH263231   5.149   1.680   0.372  0.1440  0.3755  0.6514
13939TIP3    H163232   5.118   1.733   0.298  1.3853 -0.1142 -0.2348
13939TIP3    H263233   5.221   1.629   0.337 -1.4202 -2.4431  1.3121
13940TIP3   OH263234   3.504   3.736   3.579  0.4268 -0.5580  0.5339
13940TIP3    H163235   3.501   3.653   3.627 -1.2644  0.1105  1.6023
13940TIP3    H263236   3.448   3.722   3.503  0.4917 -0.5429  0.4833
13941TIP3   OH263237   5.517   1.008   0.328 -0.0810 -0.4844  0.3327
13941TIP3    H163238   5.582   1.078   0.323  1.0653 -1.6581 -2.3052
13941TIP3    H263239   5.561   0.937   0.374 -0.1063 -0.6248  0.1435
13942TIP3   OH263240   0.965   5.002  13.055  0.2017 -1.0209 -0.1718
13942TIP3    H163241   0.905   4.945  13.006 -2.4730  1.4075  0.1907
13942TIP3    H263242   0.973   5.080  13.001 -0.9172  0.7155  2.0941
13943TIP3   OH263243   5.766   1.314   3.535 -0.2174 -0.1158 -0.2395
13943TIP3    H163244   5.799   1.249   3.473  0.9377  0.2650 -0.0308
13943TIP3    H263245   5.706   1.264   3.591  1.6704 -1.3090  0.7673
13944TIP3   OH263246   4.961   0.643  12.469 -0.1099 -0.2422 -0.1503
13944TIP3    H163247   4.881   0.605  12.432  0.3296 -2.8079  1.3764
13944TIP3    H263248   4.969   0.602  12.555  2.8261 -0.0355 -0.2775
13945TIP3   OH263249   1.132   0.507  16.130 -0.0465  0.0943 -0.5505
13945TIP3    H163250   1.066   0.576  16.125  1.6547  1.9206  1.0516
13945TIP3    H263251   1.215   0.553  16.128  1.1521 -1.9904 -0.3830
13946TIP3   OH263252   1.063   3.906  11.939  0.2482  0.2878  0.0949
13946TIP3    H163253   1.134   3.969  11.927  0.8874 -0.2525  0.9447
13946TIP3    H263254   1.059   3.892  12.034 -1.4225  0.7847  0.1221
13947TIP3   OH263255   3.118   0.690  17.043  0.3156  0.1155  0.2417
13947TIP3    H163256   3.128   0.660  17.133  0.3952  2.0115  0.9078
13947TIP3    H263257   3.181   0.762  17.035 -0.0969  0.3400 -1.1399
13948TIP3   OH263258   3.114   0.349   4.860 -0.2437  0.3830  0.0098
13948TIP3    H163259   3.079   0.260   4.858 -1.2762  0.7692  0.2094
13948TIP3    H263260   3.151   0.359   4.947 -1.4441  0.6239  0.5089
13949TIP3   OH263261   0.836   5.717   0.494  0.7143 -0.0598  0.1340
13949TIP3    H163262   0.829   5.682   0.405 -0.8111 -0.7195  0.4892
13949TIP3    H263263   0.893   5.793   0.486 -1.4118  1.3670 -1.8355
13950TIP3   OH263264   0.484   4.882  11.810  0.5706 -0.3613  0.2202
13950TIP3    H163265   0.502   4.850  11.722  1.4728 -0.7738  0.5468
13950TIP3    H263266   0.534   4.963  11.817  1.6596 -1.0846  0.8531
13951TIP3   OH263267   4.361   2.894   1.018 -0.1642 -0.1737 -0.6397
13951TIP3    H163268   4.448   2.857   1.004  0.1250  0.8537 -1.6201
13951TIP3    H263269   4.377   2.975   1.067 -0.8093 -1.4181  1.6888
13952TIP3   OH263270   4.116   6.300  15.112 -0.2322 -0.6831  0.2992
13952TIP3    H163271   4.189   6.361  15.111 -0.1055 -0.8578 -1.4376
13952TIP3    H263272   4.117   6.258  15.026 -2.5276 -0.4950  0.1302
13953TIP3   OH263273   0.544   1.421   1.960  0.2418 -0.0576 -0.4465
13953TIP3    H163274   0.629   1.433   2.002  0.2587  1.5183 -0.8814
13953TIP3    H263275   0.481   1.424   2.031  0.5034 -0.6949 -0.1831
13954TIP3   OH263276   6.360   5.904   1.319  0.1916 -0.0780  0.2892
13954TIP3    H163277   6.330   5.890   1.409  0.0568 -0.7869  0.1416
13954TIP3    H263278   6.453   5.880   1.321  0.7428  2.0698  0.7355
13955TIP3   OH263279   1.507   5.272   1.002  0.6184 -0.1958 -0.5368
13955TIP3    H163280   1.583   5.261   0.945  0.3988 -1.4542 -0.6032
13955TIP3    H263281   1.524   5.213   1.076  1.9268  2.9618  1.7897
13956TIP3   OH263282   2.174   4.441   1.542 -0.2916 -0.5577 -0.2901
13956TIP3    H163283   2.107   4.417   1.477 -1.6373 -1.2487  1.3014
13956TIP3    H263284   2.124   4.473   1.617  1.2950  1.7249 -0.1461
13957TIP3   OH263285   4.819   4.821   3.623  0.1443 -0.1026  0.7509
13957TIP3    H163286   4.750   4.883   3.649  0.4556 -0.1093  1.6080
13957TIP3    H263287   4.824   4.829   3.528 -0.7825  0.1725  0.7211
13958TIP3   OH263288   6.777   0.928   1.123  0.3839  0.0336 -0.3781
13958TIP3    H163289   6.825   0.845   1.124 -1.5363 -1.1088  1.1406
13958TIP3    H263290   6.804   0.972   1.204  2.7475  1.7352 -2.0356
13959TIP3   OH263291   0.384   3.702  13.263 -0.4355  0.4163  0.0071
13959TIP3    H163292   0.464   3.734  13.222 -0.7682  2.2597  0.7541
13959TIP3    H263293   0.409   3.618  13.301  0.6092  0.0257 -1.4849
13960TIP3   OH263294   5.050   3.241  16.356  0.0534  0.2303  0.1816
13960TIP3    H163295   5.021   3.163  16.310 -0.5023  0.0965  0.7565
13960TIP3    H263296   5.069   3.212  16.445  4.7732 -0.2856 -0.8892
13961TIP3   OH263297   4.145   3.585  15.830  0.1224 -0.2795 -0.0225
13961TIP3    H163298   4.050   3.576  15.821 -0.2452 -0.2466  3.2140
13961TIP3    H263299   4.168   3.655  15.769 -2.3510  1.6436  1.1272
13962TIP3   OH263300   0.033   0.134   5.861 -0.2140 -0.5175  0.0257
13962TIP3    H163301   0.112   0.185   5.878 -0.3329 -0.4575  0.4033
13962TIP3    H263302   0.027   0.130   5.765 -0.3138  0.3399 -0.0028
13963TIP3   OH263303   3.268   1.104   0.820  0.9272  0.2851 -0.5191
13963TIP3    H163304   3.336   1.145   0.767 -0.7042  1.0919 -2.0171
13963TIP3    H263305   3.197   1.085   0.758 -0.5226  0.1393  1.1544
13964TIP3   OH263306   5.865   1.343  13.563  0.1460  0.0699 -0.1419
13964TIP3    H163307   5.944   1.305  13.601 -0.0238  2.0977  2.3540
13964TIP3    H263308   5.810   1.267  13.542  1.7126 -1.2488  0.3738
13965TIP3   OH263309   2.672   4.147  12.610 -0.4781 -0.0912 -0.2618
13965TIP3    H163310   2.750   4.109  12.569 -0.4509  0.6537 -0.9245
13965TIP3    H263311   2.638   4.209  12.545  0.1951  1.9220  1.2213
13966TIP3   OH263312   2.503   2.505  13.611  0.5571  0.1160  0.2238
13966TIP3    H163313   2.483   2.474  13.523  0.5344  0.6625  0.0339
13966TIP3    H263314   2.598   2.499  13.618  0.6353  0.8264 -0.1296
13967TIP3   OH263315   3.334   1.695   2.470  0.1561  1.0536  0.4307
13967TIP3    H163316   3.395   1.624   2.448 -1.9549 -1.6256  2.7985
13967TIP3    H263317   3.265   1.688   2.404 -1.3165 -0.8045  2.0912
13968TIP3   OH263318   6.359   5.802  14.035  0.0926  0.7267 -0.0741
13968TIP3    H163319   6.426   5.799  14.103 -0.8178  0.2984  0.8242
13968TIP3    H263320   6.301   5.873  14.062 -0.6698  0.0842 -0.0297
13969TIP3   OH263321   3.323   2.942   2.743  0.7416  0.3677 -0.4346
13969TIP3    H163322   3.413   2.953   2.713  0.9939  0.7737  0.4602
13969TIP3    H263323   3.331   2.896   2.826  0.0889 -0.0930 -0.6221
13970TIP3   OH263324   4.337   6.658   4.040  0.4832  0.0795  0.2567
13970TIP3    H163325   4.370   6.728   3.983 -0.4555 -1.2743 -2.0148
13970TIP3    H263326   4.400   6.587   4.030 -1.1441 -1.1796 -1.2685
13971TIP3   OH263327   3.634   5.586   1.556 -0.4023 -0.2935 -0.4826
13971TIP3    H163328   3.549   5.547   1.575 -0.1116 -0.7829 -0.1660
13971TIP3    H263329   3.674   5.527   1.492 -0.0829 -0.3501 -0.2314
13972TIP3   OH263330   5.036   4.413  13.371  0.4222 -0.4656 -0.0391
13972TIP3    H163331   5.024   4.503  13.399 -1.1783 -0.5432 -0.4483
13972TIP3    H263332   5.007   4.360  13.446  2.2715 -0.6480  0.5684
13973TIP3   OH263333   2.085   2.201  16.789  0.0726 -0.3213  0.1217
13973TIP3    H163334   2.159   2.146  16.764  0.7979  0.6380  0.1250
13973TIP3    H263335   2.013   2.172  16.734  0.6773 -0.7008 -0.4710
13974TIP3   OH263336   6.081   2.413  13.255  0.1307  0.0418  0.2749
13974TIP3    H163337   6.051   2.394  13.344 -1.0770 -1.1482 -0.3710
13974TIP3    H263338   6.102   2.327  13.218  1.7727  0.6294 -0.1957
13975TIP3   OH263339   2.647   5.337  13.253 -0.3641  0.1949 -0.3509
13975TIP3    H163340   2.732   5.302  13.227 -0.1990  0.0858  0.3268
13975TIP3    H263341   2.662   5.373  13.341 -1.1491 -0.3456  0.0146
13976TIP3   OH263342   5.842   1.032   2.603  0.4524  0.4377  0.1863
13976TIP3    H163343   5.756   0.991   2.617  1.0524 -0.6815  0.6777
13976TIP3    H263344   5.904   0.967   2.635  1.4418  1.6867  0.7976
13977TIP3   OH263345   6.753   4.369  16.720 -0.2547  0.2724 -0.1244
13977TIP3    H163346   6.775   4.285  16.680  0.2066  1.6922 -3.0099
13977TIP3    H263347   6.837   4.408  16.744 -0.5032 -0.3465  1.8326
13978TIP3   OH263348   3.895   4.201   4.534  0.4995 -0.2727 -0.2975
13978TIP3    H163349   3.917   4.287   4.571  1.2403  0.1064 -1.6198
13978TIP3    H263350   3.799   4.203   4.526  0.1519 -0.8652  2.8139
13979TIP3   OH263351   0.984   6.180   4.298  0.3224  0.2635  0.3010
13979TIP3    H163352   1.031   6.142   4.224  0.3743 -1.4927  1.2079
13979TIP3    H263353   1.038   6.256   4.324  1.0331  0.0720 -0.5818
13980TIP3   OH263354   0.967   0.711  16.138  0.3952  0.2805  0.8064
13980TIP3    H163355   0.893   0.731  16.081 -0.1813 -1.7253  0.8284
13980TIP3    H263356   0.956   0.770  16.213 -0.0008  1.4609 -0.1549
13981TIP3   OH263357   6.097   1.105   6.593  0.1251  0.4652 -0.3059
13981TIP3    H163358   6.129   1.094   6.683  0.1698  3.2190  0.0491
13981TIP3    H263359   6.159   1.055   6.539  1.9135  1.3410  0.8920
13982TIP3   OH263360   1.650   4.244   4.529 -0.0701  0.3369 -0.2610
13982TIP3    H163361   1.576   4.186   4.510  0.9195 -1.2195  0.5489
13982TIP3    H263362   1.640   4.317   4.467 -0.4873 -1.4178 -2.3049
13983TIP3   OH263363   6.522   2.602  13.151  0.3336 -0.2284 -0.6578
13983TIP3    H163364   6.578   2.582  13.226  0.0006 -1.2370 -0.6672
13983TIP3    H263365   6.441   2.635  13.190  1.3026  2.2644 -0.6734
13984TIP3   OH263366   2.518   4.147   3.642  0.3902  0.0201 -0.1105
13984TIP3    H163367   2.551   4.236   3.654 -0.3036  0.5533 -1.9314
13984TIP3    H263368   2.427   4.159   3.613  0.4158 -1.2657 -0.7368
13985TIP3   OH263369   3.051   5.188   0.486 -0.1378  0.2864  0.3816
13985TIP3    H163370   2.982   5.133   0.450 -0.2560  0.7103 -0.0461
13985TIP3    H263371   3.056   5.263   0.427  0.6432  0.2928  0.4454
13986TIP3   OH263372   0.323   2.228   5.607 -0.1743 -0.3552  0.0079
13986TIP3    H163373   0.371   2.306   5.579 -0.4785 -0.1147  0.1467
13986TIP3    H263374   0.313   2.176   5.528 -2.1077  0.9019 -0.6153
13987TIP3   OH263375   4.250   0.804  12.521  0.0942 -0.4768  0.2129
13987TIP3    H163376   4.302   0.724  12.527 -1.3427 -1.4841 -0.4425
13987TIP3    H263377   4.182   0.793  12.588  0.8376  0.9292  1.2271
13988TIP3   OH263378   2.571   1.402   5.683 -0.0176 -0.3154 -0.1400
13988TIP3    H163379   2.530   1.475   5.636 -1.0877 -0.8902 -0.1184
13988TIP3    H263380   2.547   1.325   5.633 -2.4342 -1.1061  2.1218
13989TIP3   OH263381   2.955   5.895  11.312 -0.0268 -0.4328 -0.3242
13989TIP3    H163382   3.040   5.939  11.307  0.5191 -0.9497  3.0353
13989TIP3    H263383   2.974   5.803  11.294 -0.0200 -0.3830 -0.5639
13990TIP3   OH263384   0.821   1.042   0.256  0.1612  0.1224 -0.0163
13990TIP3    H163385   0.829   1.125   0.303 -1.3860 -0.3525  1.1522
13990TIP3    H263386   0.870   1.055   0.176  1.7462  1.4326  1.1260
13991TIP3   OH263387   0.989   1.983  15.988 -0.2343  0.2721 -0.2807
13991TIP3    H163388   0.917   1.963  16.049  0.2519 -1.1395 -0.1491
13991TIP3    H263389   1.044   2.045  16.036  1.1657 -2.2526  1.5487
13992TIP3   OH263390   2.660   5.730  12.332  0.9899 -0.6552 -0.1468
13992TIP3    H163391   2.682   5.742  12.240  0.7033 -3.3122 -0.5902
13992TIP3    H263392   2.719   5.661  12.362  0.6906 -0.2146  1.5304
13993TIP3   OH263393   4.168   4.353   1.072  0.1207 -0.2724  0.1241
13993TIP3    H163394   4.169   4.258   1.081 -2.3313 -0.2564  0.8916
13993TIP3    H263395   4.171   4.386   1.162  0.7281  0.3772 -0.1253
13994TIP3   OH263396   3.074   5.502   4.294 -0.0499 -0.3454  0.4841
13994TIP3    H163397   3.073   5.503   4.390  2.6286 -1.3241  0.5617
13994TIP3    H263398   3.124   5.424   4.271 -0.1742  0.1848 -1.7215
13995TIP3   OH263399   0.131   6.104   5.380  0.0102 -0.3507 -0.2132
13995TIP3    H163400   0.176   6.187   5.364  0.1258 -0.3423  0.1483
13995TIP3    H263401   0.040   6.121   5.359 -0.1253  0.1228  0.7446
13996TIP3   OH263402   0.562   0.859  13.270 -0.2603 -0.4410 -0.0564
13996TIP3    H163403   0.574   0.860  13.365  1.8076  0.8081 -0.3098
13996TIP3    H263404   0.555   0.766  13.249  0.2079 -0.7872  1.2148
13997TIP3   OH263405   1.112   4.616   1.563  0.0971 -0.1886 -0.2874
13997TIP3    H163406   1.039   4.616   1.501 -1.0227  0.5813  0.9898
13997TIP3    H263407   1.174   4.680   1.528  0.6684 -1.6050 -1.9360
13998TIP3   OH263408   6.710   2.515   3.207  0.5590  0.0544 -0.4306
13998TIP3    H163409   6.625   2.508   3.251  0.9722  1.1218  0.5775
13998TIP3    H263410   6.749   2.595   3.242  1.3494  0.3885 -2.0061
13999TIP3   OH263411   0.703   1.856   0.079 -0.0639 -0.5428  0.5647
13999TIP3    H163412   0.765   1.838   0.150  0.1023 -0.5789  0.4111
13999TIP3    H263413   0.619   1.823   0.111 -0.5183  1.7003  1.7570
14000TIP3   OH263414   5.756   2.773  11.822  0.1308  0.8341  0.2005
14000TIP3    H163415   5.792   2.692  11.858 -2.3624  0.7547  2.6944
14000TIP3    H263416   5.803   2.843  11.867  0.4607  0.7579 -0.0256
14001TIP3   OH263417   4.780   6.072   5.743 -0.7289  0.7813 -0.4058
14001TIP3    H163418   4.690   6.082   5.714 -2.0225 -1.4669  2.5934
14001TIP3    H263419   4.792   6.141   5.808 -0.6271  0.3645  0.0130
14002TIP3   OH263420   1.022   5.786  14.157 -0.1461  0.2702  0.2437
14002TIP3    H163421   0.959   5.716  14.176 -1.1286  0.4790 -2.1366
14002TIP3    H263422   1.105   5.741  14.147 -0.6982 -0.5255 -0.8486
14003TIP3   OH263423   5.859   0.301  13.550  0.0782  0.1863  0.5136
14003TIP3    H163424   5.895   0.386  13.574  0.6647 -0.0020  0.2927
14003TIP3    H263425   5.775   0.297  13.596 -0.0507  0.9755  0.3518
14004TIP3   OH263426   1.012   1.081  13.613  0.0552 -0.2659  0.3441
14004TIP3    H163427   1.088   1.048  13.564 -1.3552 -0.9374 -1.4695
14004TIP3    H263428   0.998   1.017  13.682  0.1678 -1.0131 -0.3162
14005TIP3   OH263429   5.308   4.178  12.435 -0.1343 -0.5881  0.1394
14005TIP3    H163430   5.213   4.175  12.426 -0.3996  2.3465  1.2703
14005TIP3    H263431   5.324   4.163  12.528  0.2782  1.5365  0.4469
14006TIP3   OH263432   3.867   4.390  14.506  1.3166 -0.0280  0.4173
14006TIP3    H163433   3.827   4.313  14.546  0.8606  0.2767  0.5572
14006TIP3    H263434   3.957   4.364  14.489  1.6631  0.0200  2.1292
14007TIP3   OH263435   2.072   0.052   0.335  0.2130 -0.1149  0.5122
14007TIP3    H163436   2.002   0.059   0.400 -0.1301  0.2824  0.0993
14007TIP3    H263437   2.139   0.114   0.365 -0.1888  0.4859  0.1847
14008TIP3   OH263438   5.035   3.794  11.387 -0.9088 -0.3716 -0.1459
14008TIP3    H163439   5.041   3.772  11.480 -0.8107  1.2894  0.2657
14008TIP3    H263440   5.061   3.714  11.342  1.3160 -0.5117  1.2879
14009TIP3   OH263441   6.046   2.748  14.319 -0.0836  0.4575  0.0864
14009TIP3    H163442   6.122   2.752  14.376 -0.1715  1.4481  0.1505
14009TIP3    H263443   6.076   2.785  14.236 -0.6079  1.2856  0.2518
14010TIP3   OH263444   5.959   2.968   1.849  1.1822  0.2027  0.7654
14010TIP3    H163445   5.979   2.917   1.927  2.0322  0.5272  0.7746
14010TIP3    H263446   5.958   3.059   1.880 -1.9331  0.1197  1.0807
14011TIP3   OH263447   3.278   2.212   0.069  0.5896  0.3759 -0.1378
14011TIP3    H163448   3.302   2.167   0.150  0.8373  2.3327  0.8961
14011TIP3    H263449   3.305   2.303   0.083  0.6789  0.7312 -2.4307
14012TIP3   OH263450   3.763   0.271  12.860  0.0294 -0.0530 -0.4770
14012TIP3    H163451   3.856   0.283  12.846  0.0633  0.4342  0.1318
14012TIP3    H263452   3.721   0.315  12.787  0.2321  1.3683  0.2555
14013TIP3   OH263453   2.352   4.496  12.123  0.6716 -0.1149 -0.5375
14013TIP3    H163454   2.389   4.493  12.035 -1.4548 -2.5337 -1.4117
14013TIP3    H263455   2.257   4.497  12.109  0.3103 -0.5384  1.7395
14014TIP3   OH263456   1.476   3.756  10.812 -0.3599  0.8368  0.4827
14014TIP3    H163457   1.455   3.719  10.898  1.2051  0.2568  0.6417
14014TIP3    H263458   1.435   3.696  10.750  0.1192  0.1806  0.7934
14015TIP3   OH263459   5.917   3.085   3.416  0.3280 -0.1946 -0.2407
14015TIP3    H163460   5.830   3.092   3.455  1.6570  0.0864  2.8227
14015TIP3    H263461   5.900   3.065   3.324 -2.9694  0.7359  0.0864
14016TIP3   OH263462   2.279   4.745   1.202 -0.2628  0.1638 -0.1131
14016TIP3    H163463   2.240   4.679   1.145  0.7979 -2.4468  2.0354
14016TIP3    H263464   2.205   4.781   1.251 -0.8548  0.5889 -1.3068
14017TIP3   OH263465   0.982   5.785   0.219 -0.0849 -0.1018  0.0650
14017TIP3    H163466   1.061   5.795   0.165 -0.8598 -1.7230 -1.3994
14017TIP3    H263467   0.914   5.832   0.170 -0.0400  1.3630  1.3634
14018TIP3   OH263468   0.715   3.020  14.971 -0.1026 -0.1614 -0.0992
14018TIP3    H163469   0.713   3.076  14.893  0.3571  0.0427  0.0323
14018TIP3    H263470   0.706   3.081  15.044 -4.1110 -0.6567 -0.0857
14019TIP3   OH263471   2.974   4.552  14.867 -0.0601  0.1019 -0.1883
14019TIP3    H163472   2.942   4.463  14.852  2.0484 -0.5999 -0.7369
14019TIP3    H263473   2.931   4.580  14.948 -0.8462 -1.3647 -0.0815
14020TIP3   OH263474   0.189   4.449  14.147  0.0936  0.3330 -0.0885
14020TIP3    H163475   0.096   4.437  14.167  0.1833 -0.1271  0.0510
14020TIP3    H263476   0.202   4.544  14.148 -0.0823  0.3438  1.1699
14021TIP3   OH263477   3.421   2.739  12.102  0.3244  0.0271  0.6173
14021TIP3    H163478   3.478   2.744  12.025 -0.4722  1.2608  0.0992
14021TIP3    H263479   3.482   2.742  12.176  0.9777  0.7085  0.0639
14022TIP3   OH263480   0.857   3.737  11.845 -0.3010 -0.4010  0.4400
14022TIP3    H163481   0.778   3.785  11.820 -0.2298 -1.2319 -1.4225
14022TIP3    H263482   0.906   3.799  11.899 -0.8952  1.0981 -0.7019
14023TIP3   OH263483   3.827   1.377  16.662 -0.4560  0.3374 -0.4718
14023TIP3    H163484   3.792   1.320  16.730  0.0889  0.9732  0.3631
14023TIP3    H263485   3.779   1.459  16.672 -0.2707  0.4840 -0.7559
14024TIP3   OH263486   2.598   1.919   1.510  0.7485 -0.7330 -0.4313
14024TIP3    H163487   2.653   1.927   1.432  2.9263 -1.9726  0.9296
14024TIP3    H263488   2.636   1.846   1.559 -1.1842 -0.6209  1.3232
14025TIP3   OH263489   6.098   4.662   1.057  0.5549 -0.0847 -0.0581
14025TIP3    H163490   6.090   4.709   1.140 -1.3232 -0.0314 -0.2460
14025TIP3    H263491   6.130   4.576   1.081 -1.6237 -0.6592  0.9406
14026TIP3   OH263492   1.928   3.708   0.442  0.0950  0.0908  0.1718
14026TIP3    H163493   1.874   3.688   0.519 -0.6132 -1.0760 -0.6056
14026TIP3    H263494   1.867   3.700   0.369  0.9780  0.2932 -0.5810
14027TIP3   OH263495   2.548   6.189   0.073  0.1584  0.0628 -1.1023
14027TIP3    H163496   2.550   6.161  -0.018 -1.2395  0.9542 -1.4310
14027TIP3    H263497   2.559   6.109   0.123  1.6755 -0.3398 -2.0568
14028TIP3   OH263498   0.759   0.374   2.410 -0.5037 -0.4097  0.1197
14028TIP3    H163499   0.702   0.344   2.338 -1.4395  1.0023  0.2619
14028TIP3    H263500   0.847   0.374   2.372 -0.7813 -1.2388 -0.5353
14029TIP3   OH263501   0.532   1.942  10.830  0.2387  0.5865 -0.4630
14029TIP3    H163502   0.482   1.867  10.796  0.2642 -0.0367  0.8225
14029TIP3    H263503   0.474   2.017  10.815  0.1660  0.3040 -1.6679
14030TIP3   OH263504   4.494   3.600   0.032  0.0920  0.1088 -0.0410
14030TIP3    H163505   4.476   3.677  -0.023 -0.8426  1.0468  1.5320
14030TIP3    H263506   4.426   3.603   0.100 -0.0545 -2.2169 -0.0528
14031TIP3   OH263507   3.917   1.806  16.539  0.5666  0.2155  0.5527
14031TIP3    H163508   3.943   1.895  16.519 -0.2289  0.0191 -1.5214
14031TIP3    H263509   3.821   1.807  16.534  0.5076 -0.5715  1.3390
14032TIP3   OH263510   3.799   3.245   0.262  0.5949 -0.2536 -0.5340
14032TIP3    H163511   3.737   3.223   0.331  0.8202  0.9742  0.0612
14032TIP3    H263512   3.863   3.302   0.304  1.2149 -0.1870 -1.5471
14033TIP3   OH263513   6.718   4.448  12.944 -0.2024  0.2252  0.2865
14033TIP3    H163514   6.745   4.492  12.864 -0.4269  1.5702  0.9245
14033TIP3    H263515   6.624   4.431  12.932  0.1999 -1.4924 -0.5852
14034TIP3   OH263516   1.439   5.885   2.200  0.4802 -0.0970 -0.4096
14034TIP3    H163517   1.486   5.808   2.169  0.1159  0.0859 -1.4255
14034TIP3    H263518   1.368   5.850   2.254  1.5333 -0.3871  0.8365
14035TIP3   OH263519   4.658   0.497  16.621  0.1798 -0.1536 -0.2345
14035TIP3    H163520   4.620   0.468  16.538 -0.8208  0.7937 -0.1171
14035TIP3    H263521   4.584   0.532  16.670  0.8267 -0.3711  0.9186
14036TIP3   OH263522   4.192   2.534   3.948  0.5433 -0.8366 -0.3617
14036TIP3    H163523   4.199   2.616   3.900 -2.0627 -1.2053 -1.4608
14036TIP3    H263524   4.246   2.472   3.898  0.9473 -0.2684 -0.6321
14037TIP3   OH263525   4.826   3.590   1.896  0.3525 -0.4257 -0.0426
14037TIP3    H163526   4.740   3.595   1.855  0.2806 -0.4333  0.1092
14037TIP3    H263527   4.847   3.680   1.919 -0.0346 -0.5478  0.7979
14038TIP3   OH263528   1.116   1.284   4.097  0.4895  0.0086  0.1421
14038TIP3    H163529   1.159   1.259   4.015 -0.5145  0.0481 -0.4088
14038TIP3    H263530   1.043   1.222   4.105 -0.6317  1.2823 -0.0530
14039TIP3   OH263531   1.747   3.097   0.926 -0.0691  0.2171 -0.8495
14039TIP3    H163532   1.819   3.126   0.983  0.0499  0.3577 -1.0679
14039TIP3    H263533   1.705   3.178   0.897  1.6033  0.3270 -3.1957
14040TIP3   OH263534   5.044   4.205  13.164 -0.1316 -0.2277 -0.5870
14040TIP3    H163535   5.045   4.278  13.225  0.1033 -0.1197 -0.7224
14040TIP3    H263536   5.087   4.133  13.211  1.4050  0.2890 -1.1758
14041TIP3   OH263537   0.698   4.933  12.297 -0.0893 -0.3084 -0.3509
14041TIP3    H163538   0.746   4.983  12.230  1.1604 -1.2184 -0.1481
14041TIP3    H263539   0.626   4.991  12.323  1.7608  1.7074  0.4308
14042TIP3   OH263540   2.396   6.281   4.924 -0.2622 -0.3811  0.5471
14042TIP3    H163541   2.329   6.259   4.859  0.3469  0.1013 -0.2501
14042TIP3    H263542   2.426   6.368   4.899 -1.0231  0.4193  2.3298
14043TIP3   OH263543   3.023   1.187  15.775 -0.2334 -0.4527  0.7832
14043TIP3    H163544   2.948   1.175  15.716 -0.3013  0.0923  0.7614
14043TIP3    H263545   3.090   1.128  15.740 -0.4346 -0.4814  0.4408
14044TIP3   OH263546   1.336   1.795  14.649 -0.3495 -0.3575 -0.4503
14044TIP3    H163547   1.390   1.728  14.609 -0.7686 -0.9821  0.0160
14044TIP3    H263548   1.329   1.769  14.741 -0.4984  0.3298 -0.2646
14045TIP3   OH263549   3.729   0.977  16.630 -0.7133  0.2742 -0.2916
14045TIP3    H163550   3.683   1.027  16.562 -0.2444  1.0667 -0.0323
14045TIP3    H263551   3.767   1.044  16.687  1.2105 -0.3820 -0.7867
14046TIP3   OH263552   2.833   4.477   0.194  0.4889 -1.0982  0.2045
14046TIP3    H163553   2.843   4.524   0.112  0.2871 -0.3403  0.6091
14046TIP3    H263554   2.922   4.470   0.229  0.7401 -2.5859 -0.7129
14047TIP3   OH263555   1.355   0.487  12.192 -0.7446 -0.0380  0.4120
14047TIP3    H163556   1.402   0.486  12.109 -0.3456  0.0496  0.6389
14047TIP3    H263557   1.374   0.572  12.231 -1.1581  0.0315  0.4632
14048TIP3   OH263558   4.765   5.409   0.584 -0.1249 -0.2819 -0.4054
14048TIP3    H163559   4.709   5.355   0.528 -1.2206 -0.7908  1.1435
14048TIP3    H263560   4.836   5.350   0.611  0.7286  0.1358 -1.7342
14049TIP3   OH263561   1.225   5.113   3.457 -0.0487  0.2131  0.2898
14049TIP3    H163562   1.184   5.199   3.460  0.9805  0.7578 -0.8077
14049TIP3    H263563   1.285   5.113   3.532 -2.0512 -0.6112  1.9362
14050TIP3   OH263564   5.612   3.025   5.269 -0.0107 -0.2080  0.2504
14050TIP3    H163565   5.649   3.037   5.356 -0.2745 -0.8126  0.4471
14050TIP3    H263566   5.627   2.933   5.248 -1.2266 -0.4277  0.2660
14051TIP3   OH263567   6.497   4.526   3.606 -0.6535 -0.4003 -0.1633
14051TIP3    H163568   6.448   4.592   3.655 -0.3320 -1.3072  1.4230
14051TIP3    H263569   6.431   4.478   3.557 -0.8636  1.2756 -1.5878
14052TIP3   OH263570   3.172   2.641  14.603  0.3359 -0.3888 -0.1702
14052TIP3    H163571   3.185   2.702  14.676  0.7663  0.0905 -0.6453
14052TIP3    H263572   3.083   2.659  14.573  0.2939 -0.3228 -0.0085
14053TIP3   OH263573   0.947   3.619  14.409 -0.8166 -0.0352  0.0055
14053TIP3    H163574   0.893   3.615  14.487 -2.1611 -1.6144 -0.9663
14053TIP3    H263575   0.967   3.712  14.398 -2.6012  0.4683  0.8728
14054TIP3   OH263576   5.423   2.782  15.043  0.3491  0.4366  0.4534
14054TIP3    H163577   5.358   2.746  14.982 -0.3774  1.8351  0.3978
14054TIP3    H263578   5.484   2.831  14.988  1.1232 -0.3502  0.5820
14055TIP3   OH263579   4.747   3.875  10.763  0.0043  0.5589  0.0608
14055TIP3    H163580   4.766   3.797  10.815  0.1464  2.3168  2.7235
14055TIP3    H263581   4.652   3.879  10.758 -0.0561  1.3008  1.6488
14056TIP3   OH263582   4.169   0.097   5.898  0.3413 -0.2684  0.3665
14056TIP3    H163583   4.086   0.107   5.945  0.2271  3.2166 -0.3867
14056TIP3    H263584   4.166   0.009   5.862 -2.3010 -0.7976  1.7287
14057TIP3   OH263585   4.295   1.492  15.347 -0.3256 -0.6179  0.2269
14057TIP3    H163586   4.221   1.518  15.402  0.6577 -0.7175  1.6423
14057TIP3    H263587   4.371   1.498  15.405  0.7195 -0.9333 -1.0786
14058TIP3   OH263588   1.347   0.682   2.441 -0.4858 -0.0845  0.1381
14058TIP3    H163589   1.336   0.628   2.363  2.5949 -1.2446  0.4370
14058TIP3    H263590   1.431   0.727   2.428 -0.9815  1.3989  1.7971
14059TIP3   OH263591   1.229   2.521  13.335 -0.0380 -0.2564  0.4797
14059TIP3    H163592   1.223   2.485  13.247  1.1609  0.6990 -0.0044
14059TIP3    H263593   1.151   2.488  13.380 -0.2620 -1.3660 -0.7067
14060TIP3   OH263594   4.009   5.802   1.110  0.2981 -0.0635 -0.7031
14060TIP3    H163595   3.935   5.775   1.165  1.9344 -1.3824  0.9045
14060TIP3    H263596   3.968   5.843   1.034 -2.1245 -1.5501 -0.2654
14061TIP3   OH263597   0.746   0.038  16.613  0.5502 -0.2214  0.6056
14061TIP3    H163598   0.769   0.130  16.625  1.2543 -0.2122 -0.6561
14061TIP3    H263599   0.823  -0.010  16.645  1.7462 -0.2400 -2.1607
14062TIP3   OH263600   4.205   1.937  12.932  0.2182  0.0843  0.1257
14062TIP3    H163601   4.154   1.872  12.980 -0.9235 -0.2559 -1.4892
14062TIP3    H263602   4.244   1.993  13.000 -4.3099  1.8863  1.4144
14063TIP3   OH263603   5.844   0.934  16.594  0.0412  0.5630  0.0416
14063TIP3    H163604   5.794   0.907  16.671 -1.9895  1.0250 -1.0940
14063TIP3    H263605   5.923   0.880  16.597 -1.2860 -1.3652  0.9628
14064TIP3   OH263606   4.564   4.839  15.870 -0.0547 -0.8831 -0.0387
14064TIP3    H163607   4.563   4.916  15.813  0.7768 -1.5227 -0.9344
14064TIP3    H263608   4.563   4.874  15.959 -0.5218  0.1397 -0.4457
14065TIP3   OH263609   6.100   4.130  11.695 -0.3450 -0.2572  0.3678
14065TIP3    H163610   6.164   4.060  11.710 -0.6194 -0.7507 -0.7297
14065TIP3    H263611   6.146   4.210  11.721  0.7341 -0.6038 -0.4279
14066TIP3   OH263612   5.585   3.967  11.531  0.5527  0.2684  0.4526
14066TIP3    H163613   5.618   4.006  11.450 -1.5808  1.0066 -0.0992
14066TIP3    H263614   5.638   4.006  11.600  2.7760 -0.7845 -0.6034
14067TIP3   OH263615   1.741   2.015   5.721  0.8598  0.2044 -0.0907
14067TIP3    H163616   1.667   2.012   5.660 -1.4303 -1.2183  2.6616
14067TIP3    H263617   1.773   1.925   5.725  1.3734  0.4021  0.3786
14068TIP3   OH263618   2.126   2.900  12.327  0.4816  0.1461 -0.1070
14068TIP3    H163619   2.113   2.940  12.241  0.2784  0.0581 -0.1169
14068TIP3    H263620   2.205   2.942  12.362  0.2636  0.5576 -0.1116
14069TIP3   OH263621   0.695   5.602   2.005 -0.1412 -0.5251 -0.4636
14069TIP3    H163622   0.603   5.579   2.016 -0.8908  1.5914 -2.0118
14069TIP3    H263623   0.707   5.680   2.059  1.3297 -2.0537  1.4915
14070TIP3   OH263624   4.276   1.203   6.779 -0.2552 -0.4090 -0.5247
14070TIP3    H163625   4.263   1.150   6.700 -1.4128  1.6258 -1.7462
14070TIP3    H263626   4.370   1.225   6.777 -0.8073  2.0991 -3.0291
14071TIP3   OH263627   5.634   6.212  14.752 -0.3013  0.8624  0.0142
14071TIP3    H163628   5.706   6.155  14.776  0.3493  2.2917  1.5159
14071TIP3    H263629   5.613   6.260  14.832 -2.6481  0.7789 -0.5006
14072TIP3   OH263630   4.209   1.333   0.968 -0.1675 -0.2507  0.2059
14072TIP3    H163631   4.235   1.325   0.876  0.2224  0.5763  0.2389
14072TIP3    H263632   4.291   1.322   1.017 -0.3101 -0.2985  0.4375
14073TIP3   OH263633   1.477   0.935   4.336 -0.3322 -0.1007  0.3803
14073TIP3    H163634   1.565   0.899   4.326 -0.4949 -0.2274 -0.6983
14073TIP3    H263635   1.471   1.002   4.268 -0.8669  0.3143  0.8302
14074TIP3   OH263636   4.620   4.662   0.160  0.4927 -0.1488 -0.1877
14074TIP3    H163637   4.707   4.626   0.141 -0.0594 -1.1625 -0.8790
14074TIP3    H263638   4.586   4.607   0.230 -0.4943 -1.2375 -1.4761
14075TIP3   OH263639   0.918   1.569  14.496 -0.7235  0.4977  0.2328
14075TIP3    H163640   0.897   1.662  14.509 -2.3320  0.6516 -2.9885
14075TIP3    H263641   1.012   1.564  14.507 -0.3377  2.9112 -1.4862
14076TIP3   OH263642   4.826   1.764   4.466  0.0469 -0.4015  0.0404
14076TIP3    H163643   4.797   1.701   4.401 -3.0029 -1.8052  2.6557
14076TIP3    H263644   4.884   1.714   4.524 -0.5124 -0.2319  0.7579
14077TIP3   OH263645   0.368   0.399   6.539 -0.0812 -0.2253 -0.3350
14077TIP3    H163646   0.460   0.373   6.528  0.1409 -0.2423  1.4329
14077TIP3    H263647   0.318   0.324   6.508  0.5109 -0.3385 -1.0251
14078TIP3   OH263648   0.561   1.964   3.024 -0.5573  0.0242 -0.0880
14078TIP3    H163649   0.575   1.919   3.107 -0.2712 -2.2282 -1.3158
14078TIP3    H263650   0.467   1.981   3.021 -0.7744 -1.1096  0.1151
14079TIP3   OH263651   6.207   2.836   3.882 -0.2963 -0.6618  0.1370
14079TIP3    H163652   6.255   2.822   3.963  1.3246  0.8943 -0.5298
14079TIP3    H263653   6.243   2.917   3.846 -2.2926 -0.3183 -1.1977
14080TIP3   OH263654   0.984   4.758   0.876 -0.7496  0.3114  0.0368
14080TIP3    H163655   0.996   4.699   0.951 -1.8984 -1.4484 -1.1010
14080TIP3    H263656   1.051   4.731   0.813 -0.8460  0.6798 -0.2241
14081TIP3   OH263657   1.534   2.099   3.588  0.0893  0.7303 -0.1601
14081TIP3    H163658   1.562   2.019   3.633  0.3353  0.8330 -0.1288
14081TIP3    H263659   1.472   2.140   3.648  1.6185  1.6818  0.7950
14082TIP3   OH263660   1.914   1.305   5.850  0.5274  0.2643  0.6044
14082TIP3    H163661   2.002   1.329   5.881  1.7154 -0.1087 -2.3947
14082TIP3    H263662   1.907   1.344   5.763 -2.4834  0.6735  0.9666
14083TIP3   OH263663   1.968   0.637   2.207  0.4753  0.1642 -0.3966
14083TIP3    H163664   1.884   0.658   2.168  0.4182 -1.0385 -0.9553
14083TIP3    H263665   2.002   0.565   2.153  1.0712 -0.5069  0.8512
14084TIP3   OH263666   3.607   1.738   5.707  0.3429  0.0035  0.1393
14084TIP3    H163667   3.567   1.665   5.755  2.5829 -0.4473  1.4013
14084TIP3    H263668   3.656   1.697   5.636 -1.5115  0.5638 -1.5101
14085TIP3   OH263669   6.346   5.820   1.043 -0.5675 -0.1551  0.0729
14085TIP3    H163670   6.384   5.906   1.027 -0.3153 -0.1068  0.8843
14085TIP3    H263671   6.283   5.835   1.114 -1.7557 -0.3254 -0.9330
14086TIP3   OH263672   5.178   1.600  11.913  0.6053  0.4240  0.6928
14086TIP3    H163673   5.090   1.611  11.948  0.6804 -1.3425  1.4933
14086TIP3    H263674   5.194   1.679  11.862 -1.2803  0.9477  0.8882
14087TIP3   OH263675   6.534   0.367  14.082  0.2396  0.3201  0.1106
14087TIP3    H163676   6.534   0.350  13.988 -0.5375  1.1440 -0.0481
14087TIP3    H263677   6.567   0.456  14.091  2.4592 -0.5222  0.7904
14088TIP3   OH263678   5.032   4.445   2.016  0.1935 -0.1657  0.1966
14088TIP3    H163679   4.986   4.487   2.090  0.5106 -1.6407  1.2613
14088TIP3    H263680   5.119   4.484   2.016 -0.5455  1.4880 -0.8246
14089TIP3   OH263681   6.247   0.985   0.879  0.1508 -0.0935  0.7050
14089TIP3    H163682   6.241   0.966   0.972 -0.4919  0.5212  0.8010
14089TIP3    H263683   6.333   1.026   0.867 -0.5275  1.5647  1.3605
14090TIP3   OH263684   2.554   0.968  12.840  0.3818  0.3414 -0.7286
14090TIP3    H163685   2.495   0.934  12.773  0.1593  0.9503 -0.8437
14090TIP3    H263686   2.635   0.917  12.828  0.6518  1.0387 -2.0471
14091TIP3   OH263687   4.043   3.276  16.864 -0.0780 -0.5747 -0.0106
14091TIP3    H163688   3.963   3.224  16.869 -0.3682  0.0945  3.2991
14091TIP3    H263689   4.014   3.363  16.835 -0.4953 -0.4444  0.7981
14092TIP3   OH263690   0.280   0.236   5.920  0.2355 -0.6350  0.4715
14092TIP3    H163691   0.313   0.312   5.872  0.3779 -0.2625  1.1590
14092TIP3    H263692   0.313   0.248   6.009  0.9010 -1.8844  0.4075
14093TIP3   OH263693   6.539   1.552  10.962 -0.2659  0.1261 -0.4038
14093TIP3    H163694   6.632   1.528  10.968 -0.1755  0.5603 -0.0002
14093TIP3    H263695   6.493   1.479  11.004  0.1139  1.3535  2.2937
14094TIP3   OH263696   3.342   2.424  16.325 -0.3888  0.5418 -0.1435
14094TIP3    H163697   3.415   2.428  16.263 -0.7569 -0.6717 -0.6609
14094TIP3    H263698   3.382   2.395  16.408 -0.1225  0.8498 -0.1633
14095TIP3   OH263699   0.204   0.968   0.387  0.1799  0.1804 -0.0160
14095TIP3    H163700   0.194   0.988   0.294 -0.2088 -3.7580 -0.9169
14095TIP3    H263701   0.298   0.967   0.401  0.2949 -0.6146 -0.7499
14096TIP3   OH263702   2.540   0.755   4.128 -0.7167 -0.2160  0.3421
14096TIP3    H163703   2.580   0.668   4.129 -1.7889 -0.7379 -0.8078
14096TIP3    H263704   2.468   0.749   4.191 -0.7773 -0.1555  0.2771
14097TIP3   OH263705   5.210   5.651   2.038  1.0863  0.1385 -0.5465
14097TIP3    H163706   5.280   5.588   2.057 -0.5254 -1.7611 -0.8176
14097TIP3    H263707   5.149   5.603   1.982 -2.3294  0.5747  2.6449
14098TIP3   OH263708   1.668   1.112  10.706 -0.1406 -0.3845 -0.3857
14098TIP3    H163709   1.631   1.186  10.657 -0.8466 -0.3524  0.1977
14098TIP3    H263710   1.717   1.153  10.777  0.0363 -0.4619 -0.4619
14099TIP3   OH263711   2.038   5.133  11.833  0.1736  0.2464 -0.3575
14099TIP3    H163712   2.018   5.222  11.861  0.9952  0.6722 -1.0878
14099TIP3    H263713   2.016   5.078  11.908  0.9645  1.2140  0.6031
14100TIP3   OH263714   0.277   0.793  13.347 -0.3288  0.1473  0.1544
14100TIP3    H163715   0.362   0.837  13.342 -0.6407  0.6632 -0.5246
14100TIP3    H263716   0.297   0.708  13.385  0.2486  0.9487  1.7019
14101TIP3   OH263717   3.399   5.971   0.414  0.6864  0.4814 -0.4835
14101TIP3    H163718   3.436   6.019   0.489  1.0351 -0.5810  0.0261
14101TIP3    H263719   3.470   5.968   0.350 -0.1240  2.8438 -1.5624
14102TIP3   OH263720   1.056   1.390  11.696 -0.3786 -0.1951  0.3630
14102TIP3    H163721   1.130   1.448  11.713 -1.1330  0.6940  0.6386
14102TIP3    H263722   0.980   1.448  11.695 -1.1906 -1.2313  1.0923
14103TIP3   OH263723   1.960   2.174   2.673  0.3623 -0.1130  0.0428
14103TIP3    H163724   1.923   2.261   2.656  1.7548  0.1072 -2.0622
14103TIP3    H263725   1.931   2.120   2.599  1.8223 -0.6824 -0.1443
14104TIP3   OH263726   6.351   0.642  15.635 -0.3370 -0.0182  0.6046
14104TIP3    H163727   6.386   0.641  15.545  0.0769 -1.5021  0.7645
14104TIP3    H263728   6.429   0.650  15.690 -0.6181  1.2055  0.8256
14105TIP3   OH263729   5.846   2.241  15.820 -0.2525 -0.1898 -0.2500
14105TIP3    H163730   5.825   2.315  15.877  1.1223 -0.1624  0.2633
14105TIP3    H263731   5.888   2.280  15.744  1.2371 -0.4783  0.3998
14106TIP3   OH263732   5.510   0.759   2.021 -0.2435 -0.7070  0.5565
14106TIP3    H163733   5.463   0.796   1.947  3.1058 -1.7298 -2.1712
14106TIP3    H263734   5.477   0.669   2.028 -0.2072 -0.7591  0.0162
14107TIP3   OH263735   1.467   3.587  11.347 -0.3292 -0.3583 -0.5580
14107TIP3    H163736   1.517   3.643  11.407 -1.3569  0.1398 -0.1436
14107TIP3    H263737   1.470   3.500  11.388  1.2340 -0.6195 -1.1780
14108TIP3   OH263738   6.754   0.556  13.444 -0.0281 -0.0733 -0.2874
14108TIP3    H163739   6.758   0.651  13.431  1.9025 -0.2631 -1.2476
14108TIP3    H263740   6.799   0.542  13.527 -0.8252 -0.1162  0.1486
14109TIP3   OH263741   6.314   4.556  16.504  0.0236 -0.2625  0.2206
14109TIP3    H163742   6.296   4.557  16.598 -1.9863 -0.5982 -0.1316
14109TIP3    H263743   6.283   4.641  16.473  0.5566 -0.2041 -0.1507
14110TIP3   OH263744   1.809   2.651  14.600  0.1856 -0.3251 -0.4245
14110TIP3    H163745   1.808   2.717  14.530 -0.1557 -0.9947 -1.0535
14110TIP3    H263746   1.854   2.695  14.673 -1.0705  1.0140 -0.4232
14111TIP3   OH263747   3.158   0.519   5.115  0.2253  0.0909 -0.2515
14111TIP3    H163748   3.209   0.524   5.196 -0.1171 -1.9968  0.1147
14111TIP3    H263749   3.165   0.607   5.077  1.3945  0.7489  1.4201
14112TIP3   OH263750   1.182   5.699   3.013 -0.1161 -0.1457  0.2550
14112TIP3    H163751   1.172   5.752   2.934 -2.3384 -1.2274 -0.2456
14112TIP3    H263752   1.190   5.609   2.980  2.1795 -0.3016  1.1518
14113TIP3   OH263753   2.636   0.070  17.159  0.2583  0.4090 -0.4578
14113TIP3    H163754   2.685   0.001  17.114 -1.7445 -0.5127 -1.2542
14113TIP3    H263755   2.628   0.140  17.094 -1.2815 -0.2869 -1.0209
14114TIP3   OH263756   0.180   2.720   4.844  0.2198  0.1404 -0.2664
14114TIP3    H163757   0.135   2.756   4.920  1.0214  0.4038  0.0810
14114TIP3    H263758   0.156   2.779   4.772  0.5524  0.6802  0.0585
14115TIP3   OH263759   1.838   2.990  11.520 -0.0502  0.3552 -0.0284
14115TIP3    H163760   1.910   2.929  11.503 -1.6879 -1.8720  0.8659
14115TIP3    H263761   1.759   2.942  11.498 -1.3476  2.6130 -0.5353
14116TIP3   OH263762   1.053   6.465   2.270  0.2520 -0.1494 -0.3144
14116TIP3    H163763   1.054   6.522   2.193 -0.9566 -0.0642 -0.2730
14116TIP3    H263764   1.015   6.519   2.339  1.2545 -0.2563  0.3231
14117TIP3   OH263765   4.426   5.267  14.499 -0.0643  0.0375 -0.1822
14117TIP3    H163766   4.513   5.268  14.539 -0.1584 -0.2190  0.0294
14117TIP3    H263767   4.420   5.351  14.452 -0.0718  0.4726  0.5902
14118TIP3   OH263768   4.067   2.049  14.871 -0.1874  0.3737  0.0306
14118TIP3    H163769   4.135   1.984  14.857 -0.6743  0.3182 -2.4531
14118TIP3    H263770   4.111   2.133  14.858 -0.5879  0.3331 -1.7091
14119TIP3   OH263771   5.304   1.368   2.541 -0.3905 -0.0388 -0.2121
14119TIP3    H163772   5.249   1.311   2.595  0.1015 -0.2287  0.0932
14119TIP3    H263773   5.393   1.355   2.575 -0.2479  0.7840 -0.2527
14120TIP3   OH263774   3.766   2.489   4.496  0.0707  0.3438 -0.1865
14120TIP3    H163775   3.834   2.433   4.457 -1.4582 -0.5201 -1.6510
14120TIP3    H263776   3.699   2.428   4.527 -0.8108  1.2731 -0.2166
14121TIP3   OH263777   6.123   2.320  13.981  0.2579  0.1285  0.0269
14121TIP3    H163778   6.156   2.296  13.894 -0.0192 -0.3097  0.0378
14121TIP3    H263779   6.065   2.248  14.005  0.2249  0.3177  0.5173
14122TIP3   OH263780   6.739   4.918  15.188  0.7320  0.1263  0.3428
14122TIP3    H163781   6.820   4.953  15.153  1.4815 -0.4119  1.4849
14122TIP3    H263782   6.684   4.994  15.202  1.6256  0.6625  1.0011
14123TIP3   OH263783   4.084   0.817  15.212  0.1791 -0.1619  0.5230
14123TIP3    H163784   4.010   0.760  15.191  1.3018 -2.1012  1.6987
14123TIP3    H263785   4.151   0.795  15.147  0.3034  0.4383  0.4474
14124TIP3   OH263786   0.370   4.063   2.610 -0.0830 -0.5255 -0.1773
14124TIP3    H163787   0.401   3.993   2.552  1.6516  1.3744 -1.5865
14124TIP3    H263788   0.314   4.117   2.554  1.6331  1.3357 -0.1496
14125TIP3   OH263789   2.857   3.562  12.563 -0.1389  0.4299 -0.5354
14125TIP3    H163790   2.877   3.555  12.657 -0.1519  0.3368 -0.5406
14125TIP3    H263791   2.941   3.551  12.520  0.0964  1.8890 -0.4708
14126TIP3   OH263792   3.498   1.875   4.710  0.3148 -0.2699  0.3817
14126TIP3    H163793   3.475   1.791   4.671  3.0759 -1.0987  0.4578
14126TIP3    H263794   3.423   1.897   4.765 -0.7168 -2.3553 -0.1399
14127TIP3   OH263795   2.914   6.039   4.496 -0.3305 -0.7199 -0.3772
14127TIP3    H163796   2.963   6.059   4.576 -0.2726 -1.3185 -0.2629
14127TIP3    H263797   2.909   5.944   4.494  0.2632 -0.7298 -1.4542
14128TIP3   OH263798   0.145   4.724   2.646 -0.4473  0.5544 -0.3475
14128TIP3    H163799   0.137   4.646   2.700  1.3932  0.2440 -0.5006
14128TIP3    H263800   0.239   4.737   2.636 -0.7367  2.5789 -0.6435
14129TIP3   OH263801   5.294   5.051   4.730  0.1366 -0.1477 -0.1165
14129TIP3    H163802   5.347   5.127   4.707 -0.8054  0.1492 -1.3758
14129TIP3    H263803   5.211   5.089   4.760  0.0002 -0.6513  0.1380
14130TIP3   OH263804   2.203   4.658  11.837  0.1712 -0.5602  0.1112
14130TIP3    H163805   2.173   4.741  11.800 -0.2243 -0.5994  0.3356
14130TIP3    H263806   2.299   4.665  11.837  0.1291  0.2749  0.9545
14131TIP3   OH263807   4.730   3.108  16.389  0.1198  0.3313 -0.5446
14131TIP3    H163808   4.731   3.136  16.298  2.4479  2.9680  0.2273
14131TIP3    H263809   4.701   3.185  16.438  0.9008 -0.4201  1.1409
14132TIP3   OH263810   5.160   1.089  12.365 -0.3418  0.5148 -0.0151
14132TIP3    H163811   5.255   1.081  12.354 -0.3275 -0.9875  1.0195
14132TIP3    H263812   5.137   1.018  12.426 -2.2870  0.1651 -1.1307
14133TIP3   OH263813   1.630   4.057   2.519 -0.2376  0.2903 -0.1707
14133TIP3    H163814   1.622   4.085   2.428 -0.6863  1.5071  0.2292
14133TIP3    H263815   1.629   3.961   2.515  0.1938  0.3294 -1.4777
14134TIP3   OH263816   4.069   0.449   4.060  0.0923 -0.0841 -0.5024
14134TIP3    H163817   4.016   0.463   3.982 -0.8809  0.7359  0.2832
14134TIP3    H263818   4.040   0.364   4.094  0.5095 -0.4357 -1.0299
14135TIP3   OH263819   4.507   6.709  13.539 -0.2725 -0.0967  0.0643
14135TIP3    H163820   4.458   6.633  13.572  0.7283 -0.2903  1.1218
14135TIP3    H263821   4.465   6.784  13.582 -1.1705 -0.0546 -0.8712
14136TIP3   OH263822   5.428   0.136   3.303 -0.3716  0.1455  0.0862
14136TIP3    H163823   5.405   0.227   3.325  0.9475  0.9060 -1.6427
14136TIP3    H263824   5.377   0.117   3.225  0.3231 -0.1846 -0.2828
14137TIP3   OH263825   0.785   2.686   0.881  0.2746 -0.3334  0.6037
14137TIP3    H163826   0.878   2.668   0.871 -0.0021 -1.7921  0.5211
14137TIP3    H263827   0.761   2.645   0.964 -0.2443  0.2194  0.7303
14138TIP3   OH263828   0.962   1.303  11.951 -0.1625  0.2329  0.3279
14138TIP3    H163829   1.002   1.368  11.895  0.1478 -1.6566 -1.7085
14138TIP3    H263830   0.874   1.336  11.969 -0.9779 -0.0480 -2.9223
14139TIP3   OH263831   3.430   0.748  16.761 -0.2407  0.1105  0.9744
14139TIP3    H163832   3.469   0.677  16.710  0.7924  1.2127  0.2210
14139TIP3    H263833   3.407   0.814  16.696  0.4788  1.2458  1.8626
14140TIP3   OH263834   4.523   1.925   2.082  0.4769 -0.7828  0.2380
14140TIP3    H163835   4.606   1.940   2.127  0.5395  1.5135 -0.5883
14140TIP3    H263836   4.529   1.976   2.002 -1.2962 -1.4991 -0.3917
14141TIP3   OH263837   1.485   6.504   5.698  0.0511  0.4893 -0.6544
14141TIP3    H163838   1.480   6.409   5.689  1.5954  0.4288 -1.0255
14141TIP3    H263839   1.441   6.538   5.620 -0.0658  0.0854 -0.7681
14142TIP3   OH263840   0.554   2.534  11.736 -0.2491  0.6855 -0.6187
14142TIP3    H163841   0.638   2.577  11.752  0.5765 -0.7984 -0.8652
14142TIP3    H263842   0.550   2.464  11.801 -0.1842 -0.7561 -2.1323
14143TIP3   OH263843   2.961   5.604  11.334 -0.2667  0.3750  0.0618
14143TIP3    H163844   2.989   5.609  11.425  0.9440  0.0645 -0.2728
14143TIP3    H263845   2.898   5.531  11.332  1.8068 -1.4801  0.1694
14144TIP3   OH263846   4.749   5.283  16.208 -0.4744  0.2419 -0.2301
14144TIP3    H163847   4.783   5.212  16.153  0.3531 -0.2710  0.9422
14144TIP3    H263848   4.802   5.281  16.287 -0.0842  2.5173 -0.4013
14145TIP3   OH263849   6.032   1.543   5.314 -0.0782  0.4956  0.4026
14145TIP3    H163850   5.949   1.507   5.284 -0.6749 -0.4000  3.0015
14145TIP3    H263851   6.030   1.634   5.284  0.1277 -0.6962 -3.6090
14146TIP3   OH263852   2.337   0.255  14.394  1.2281 -0.1659  0.3672
14146TIP3    H163853   2.284   0.272  14.472 -0.5990  1.0067 -1.0673
14146TIP3    H263854   2.401   0.326  14.392  1.9951 -0.8221  1.3851
14147TIP3   OH263855   0.530   5.048  13.093 -0.0695  0.4573  0.3983
14147TIP3    H163856   0.451   5.009  13.132 -0.9507  1.1107 -0.7153
14147TIP3    H263857   0.602   5.007  13.141 -1.0693 -0.3420  1.2622
14148TIP3   OH263858   3.204   6.159   5.495 -0.3173  0.0375 -0.5062
14148TIP3    H163859   3.234   6.172   5.405  1.7680  0.2532  0.2127
14148TIP3    H263860   3.130   6.219   5.504  0.6417  1.3895 -1.5030
14149TIP3   OH263861   1.126   1.077  12.002 -0.0581 -0.2825  0.3786
14149TIP3    H163862   1.041   1.120  11.992  0.3226  0.3345 -0.3115
14149TIP3    H263863   1.105   0.986  12.023 -0.8759  0.1723  1.5603
14150TIP3   OH263864   6.775   4.935   4.181  0.5972  0.3214 -0.1837
14150TIP3    H163865   6.833   4.896   4.247  0.0868  0.7462  0.5351
14150TIP3    H263866   6.725   5.001   4.230  0.6151  1.0410 -1.1297
14151TIP3   OH263867   4.968   6.605  14.207 -0.1384  0.0976 -0.2152
14151TIP3    H163868   5.010   6.683  14.170  0.1487 -0.5173 -1.2026
14151TIP3    H263869   4.934   6.557  14.131 -3.4647  1.0260  0.6128
14152TIP3   OH263870   2.821   5.995  13.248 -0.2871  0.3066 -0.0239
14152TIP3    H163871   2.818   6.090  13.238  0.0115  0.0722 -2.5017
14152TIP3    H263872   2.745   5.963  13.198 -0.9929 -0.7076  1.6445
14153TIP3   OH263873   3.000   5.352   3.245  0.1258 -0.0637 -0.2764
14153TIP3    H163874   2.937   5.400   3.191 -0.3445 -0.0940  0.2351
14153TIP3    H263875   2.962   5.355   3.333  0.6195 -0.4694 -0.0513
14154TIP3   OH263876   0.021   0.428   5.723 -0.2338  0.0731 -0.1931
14154TIP3    H163877   0.081   0.387   5.661  0.7360  0.4082  0.5009
14154TIP3    H263878   0.068   0.426   5.806 -0.6895  1.4490  0.1126
14155TIP3   OH263879   3.904   3.274   1.326  0.0249  0.2930 -0.0466
14155TIP3    H163880   3.816   3.304   1.349 -0.3510 -1.6238  1.0544
14155TIP3    H263881   3.907   3.183   1.354  3.2917  1.0891  2.5669
14156TIP3   OH263882   3.547   1.231  13.169  0.6414  0.5794 -0.4514
14156TIP3    H163883   3.561   1.186  13.086  0.0837 -1.2904  0.4491
14156TIP3    H263884   3.470   1.286  13.155  0.7104  0.4724 -1.2311
14157TIP3   OH263885   5.242   1.476  16.120  0.5353 -0.0473 -0.3265
14157TIP3    H163886   5.208   1.566  16.120  0.6631  0.0157 -1.7506
14157TIP3    H263887   5.247   1.453  16.027 -1.0949 -2.1322  0.0605
14158TIP3   OH263888   6.616   4.994  12.802 -0.2061  0.1666 -0.3498
14158TIP3    H163889   6.646   4.908  12.831  0.5324 -0.1525 -2.0011
14158TIP3    H263890   6.534   4.978  12.756 -0.0723  0.3407 -0.6544
14159TIP3   OH263891   2.136   1.501  11.679 -0.1423 -0.3239 -0.0854
14159TIP3    H163892   2.199   1.429  11.679  1.5119  1.0891 -0.6941
14159TIP3    H263893   2.079   1.483  11.604  0.4462 -0.8441 -0.4103
14160TIP3   OH263894   3.152   1.089  14.842 -0.0447 -0.5286  0.1728
14160TIP3    H163895   3.074   1.074  14.895 -1.1414  0.4228 -1.1292
14160TIP3    H263896   3.137   1.174  14.800  1.0813 -0.9476 -1.1296
14161TIP3   OH263897   0.969   1.149   4.880 -0.5425  0.4087  0.3273
14161TIP3    H163898   0.988   1.071   4.829  0.9929  1.2846 -0.4911
14161TIP3    H263899   0.875   1.163   4.868 -0.1319  1.0025 -2.9532
14162TIP3   OH263900   4.416   2.910   4.973  0.2182  0.4022 -0.7785
14162TIP3    H163901   4.342   2.961   4.940  0.7444  0.6125 -1.6281
14162TIP3    H263902   4.461   2.878   4.895  1.5058  0.9604 -0.2819
14163TIP3   OH263903   5.119   1.647  16.936 -0.0254 -0.2666  0.1213
14163TIP3    H163904   5.129   1.678  17.026  0.9374 -1.5438  0.4791
14163TIP3    H263905   5.106   1.552  16.945 -0.3343 -0.3430 -1.0640
14164TIP3   OH263906   5.347   3.048   2.296  0.2688  0.8748  0.7227
14164TIP3    H163907   5.263   3.090   2.316 -1.1410 -1.4876  0.0302
14164TIP3    H263908   5.323   2.970   2.246  2.9146  0.2664  0.3228
14165TIP3   OH263909   3.190   1.686   1.798 -0.4630 -0.1412 -0.7395
14165TIP3    H163910   3.223   1.674   1.887  0.4154  3.0175 -0.5825
14165TIP3    H263911   3.260   1.653   1.742 -1.3320 -2.8577 -0.3169
14166TIP3   OH263912   1.935   5.478  17.003  0.3064  0.3778 -0.6542
14166TIP3    H163913   1.868   5.494  17.069 -0.2421 -1.7466 -0.6355
14166TIP3    H263914   1.998   5.548  17.014 -0.6701  1.0102  0.9818
14167TIP3   OH263915   4.555   3.610  13.887 -0.2508  0.6639  0.0117
14167TIP3    H163916   4.577   3.695  13.925 -1.0377  0.4036  1.0790
14167TIP3    H263917   4.569   3.548  13.958  1.4485 -0.2556 -1.1115
14168TIP3   OH263918   5.825   0.382  11.689  0.2516  0.0381 -0.5396
14168TIP3    H163919   5.893   0.342  11.742  0.1751 -0.4477 -0.8021
14168TIP3    H263920   5.841   0.476  11.695  0.1756 -0.0110  0.4240
14169TIP3   OH263921   2.307   1.574  12.145 -0.7260  0.2517  0.4408
14169TIP3    H163922   2.217   1.592  12.173 -0.5732  0.7129  0.6389
14169TIP3    H263923   2.336   1.655  12.103  0.1798  0.7182  1.9068
14170TIP3   OH263924   5.054   5.684  10.574 -0.0138  0.3039 -0.1733
14170TIP3    H163925   5.143   5.656  10.552  0.2326 -0.4745  1.7160
14170TIP3    H263926   5.015   5.710  10.490  1.4624 -0.8336 -1.2291
14171TIP3   OH263927   5.078   0.558  13.782  0.4597 -0.1386  0.4091
14171TIP3    H163928   5.154   0.505  13.756  1.4235  1.0761  0.7147
14171TIP3    H263929   5.003   0.512  13.744  1.2236 -2.0154  1.0952
14172TIP3   OH263930   5.898   1.772  15.894 -0.5573 -0.4369  0.4885
14172TIP3    H163931   5.843   1.848  15.874 -0.7423 -0.5973  0.3887
14172TIP3    H263932   5.918   1.780  15.987  1.3622  1.0180 -0.0029
14173TIP3   OH263933   3.687   6.083   0.023  0.0560 -0.4586 -0.0149
14173TIP3    H163934   3.642   6.113  -0.056  1.5465  1.1623 -0.2716
14173TIP3    H263935   3.621   6.092   0.093 -0.4659  0.5772 -0.6205
14174TIP3   OH263936   4.701   1.104   4.267  0.2068  0.6941 -0.3144
14174TIP3    H163937   4.692   1.013   4.294  0.9708  0.7842  0.2463
14174TIP3    H263938   4.689   1.102   4.172 -0.3572  0.0923 -0.2346
14175TIP3   OH263939   0.134   3.682   3.908  0.2563  0.1036 -0.7248
14175TIP3    H163940   0.177   3.752   3.859 -1.3957  1.0574 -0.8767
14175TIP3    H263941   0.103   3.621   3.842  1.2514 -0.5224 -0.6228
14176TIP3   OH263942   0.028   2.305  13.452  0.2563  0.4971  0.4188
14176TIP3    H163943   0.116   2.296  13.415 -0.2864  0.5742 -0.9424
14176TIP3    H263944  -0.022   2.232  13.413 -0.7929  1.6509 -0.4405
14177TIP3   OH263945   5.033   3.989  12.641 -0.3081 -0.2207 -0.2708
14177TIP3    H163946   5.024   4.013  12.549 -1.1045 -0.8140 -0.3561
14177TIP3    H263947   4.943   3.986  12.674 -0.0028  0.5091  0.6667
14178TIP3   OH263948   3.714   6.091   5.618 -0.5485  0.1093 -0.4069
14178TIP3    H163949   3.659   6.132   5.684  1.7638 -0.5370  2.0310
14178TIP3    H263950   3.694   5.998   5.624 -1.8390  0.2704 -2.0939
14179TIP3   OH263951   0.108   4.412   5.447  0.1158  0.6613  0.4250
14179TIP3    H163952   0.046   4.338   5.441  1.4658 -0.3219 -2.3456
14179TIP3    H263953   0.054   4.489   5.428 -0.9103  0.1714  1.2839
14180TIP3   OH263954   5.861   4.617   4.829  0.1101  0.4504 -0.2246
14180TIP3    H163955   5.814   4.665   4.761 -1.0919 -1.3132 -0.6525
14180TIP3    H263956   5.924   4.681   4.863 -1.0592  2.1570 -1.1690
14181TIP3   OH263957   4.138   0.611   4.878 -0.0456 -0.0984  0.0777
14181TIP3    H163958   4.134   0.524   4.839 -2.2773  0.2894 -0.6868
14181TIP3    H263959   4.200   0.659   4.823  1.7099 -1.3613  0.9106
14182TIP3   OH263960   4.125   3.213   6.697  0.9798  0.3458 -0.3563
14182TIP3    H163961   4.032   3.194   6.709  1.3753 -1.1360  0.4690
14182TIP3    H263962   4.162   3.210   6.785  2.4833 -2.7572 -1.0136
14183TIP3   OH263963   1.247   6.173  11.345  0.2634 -0.3379 -0.1803
14183TIP3    H163964   1.307   6.136  11.409 -1.0686  0.9999  1.9393
14183TIP3    H263965   1.246   6.110  11.273  3.6245 -0.7033  0.0383
14184TIP3   OH263966   2.249   1.081   1.473  0.1427 -0.0485 -0.3296
14184TIP3    H163967   2.217   1.118   1.390 -1.8773 -1.3243 -0.1478
14184TIP3    H263968   2.184   1.108   1.538  0.1087 -1.5501  0.2831
14185TIP3   OH263969   4.865   2.419   3.892 -0.3704  0.4705  0.2755
14185TIP3    H163970   4.790   2.477   3.876  0.1552  0.7517 -1.3138
14185TIP3    H263971   4.879   2.375   3.808  0.6816 -0.2510  0.8162
14186TIP3   OH263972   0.736   2.553   6.364 -0.1468 -0.4231 -0.1644
14186TIP3    H163973   0.643   2.560   6.387  0.0480  1.9912  0.0746
14186TIP3    H263974   0.770   2.485   6.421 -1.1724  0.7205  1.8627
14187TIP3   OH263975   6.637   5.450   2.410 -0.0823 -0.3590 -0.4066
14187TIP3    H163976   6.666   5.360   2.396  0.4726 -0.0366 -1.3377
14187TIP3    H263977   6.543   5.448   2.392  0.1914 -0.4452 -1.8542
14188TIP3   OH263978   3.026   1.486   4.986  0.1093  0.3060  0.2103
14188TIP3    H163979   3.091   1.426   4.951 -0.6550 -0.4943  0.1421
14188TIP3    H263980   3.058   1.507   5.074  0.3647 -0.2149  0.2408
14189TIP3   OH263981   1.803   5.522  16.044  0.4336 -0.4437 -0.2306
14189TIP3    H163982   1.892   5.551  16.027 -0.0647  0.8491 -0.6533
14189TIP3    H263983   1.780   5.562  16.128 -0.0111 -0.1742 -0.4793
14190TIP3   OH263984   1.264   6.503  15.784 -0.6399 -0.2545 -0.3838
14190TIP3    H163985   1.174   6.515  15.755 -1.5568  0.8541  2.7591
14190TIP3    H263986   1.271   6.410  15.803 -1.4161 -0.1610  0.3439
14191TIP3   OH263987   6.703   6.670  12.030 -0.2325 -0.1975 -0.0437
14191TIP3    H163988   6.727   6.578  12.016  3.0845  0.8140 -1.3949
14191TIP3    H263989   6.680   6.702  11.942 -0.2899  0.5770  0.2484
14192TIP3   OH263990   2.116   1.383  13.175 -0.1489  0.4798  0.5203
14192TIP3    H163991   2.185   1.447  13.162  0.7703  0.0963  3.1708
14192TIP3    H263992   2.056   1.425  13.237 -2.3322  0.8129 -1.7471
14193TIP3   OH263993   5.392   0.734   5.412  0.0829 -0.2068 -0.4319
14193TIP3    H163994   5.407   0.828   5.405  1.1123 -0.3302  0.0775
14193TIP3    H263995   5.298   0.724   5.399 -0.2839  1.0516  1.0710
14194TIP3   OH263996   4.622   3.112   5.844 -0.2416 -0.0522  0.1812
14194TIP3    H163997   4.705   3.155   5.863 -1.1594  1.9341 -0.1185
14194TIP3    H263998   4.640   3.058   5.767  1.4012 -1.7009  1.6767
14195TIP3   OH263999   3.369   0.028  15.437  0.4976 -0.4450  0.0442
14195TIP3    H164000   3.397  -0.005  15.522 -0.0833  1.5182  1.0358
14195TIP3    H264001   3.451   0.054  15.393  0.7531 -0.9270  0.2404
14196TIP3   OH264002   1.534   5.041   0.694  0.2602 -0.2711  0.5300
14196TIP3    H164003   1.616   5.002   0.725  0.1526 -0.3196  0.7593
14196TIP3    H264004   1.520   5.002   0.608 -0.6052 -1.8717  1.3563
14197TIP3   OH264005   6.686   3.175   1.455 -0.6229 -0.5993 -0.1350
14197TIP3    H164006   6.737   3.205   1.380 -1.8714 -1.2291 -1.2679
14197TIP3    H264007   6.654   3.256   1.496 -0.3741 -0.2691 -0.5879
14198TIP3   OH264008   2.436   1.723   0.580 -0.1875 -0.2848  0.2363
14198TIP3    H164009   2.385   1.791   0.536  0.5297  0.4731  0.5723
14198TIP3    H264010   2.371   1.670   0.627 -0.6206  0.9907  1.0889
14199TIP3   OH264011   0.914   3.375  12.477 -0.2723  0.6585  0.6568
14199TIP3    H164012   0.947   3.291  12.511 -2.4676 -1.5835 -2.4537
14199TIP3    H264013   0.966   3.390  12.398 -2.2284  0.4055 -0.6970
14200TIP3   OH264014   2.235   0.333   1.546 -0.2245 -0.5703  0.4452
14200TIP3    H164015   2.249   0.383   1.466  1.0917 -1.1795  0.2720
14200TIP3    H264016   2.255   0.396   1.616  1.4863 -0.8281  0.2266
14201TIP3   OH264017   6.186   5.926   0.049 -0.0468 -0.4118  0.1023
14201TIP3    H164018   6.192   5.877   0.131 -2.2280 -0.3953  0.3017
14201TIP3    H264019   6.122   5.878  -0.003 -0.2392  0.7433 -0.7560
14202TIP3   OH264020   3.291   0.857   0.424  0.2084 -0.2280  0.0611
14202TIP3    H164021   3.359   0.806   0.380  1.1256  0.7028  0.3654
14202TIP3    H264022   3.328   0.945   0.431 -1.1189  0.3421  0.0482
14203TIP3   OH264023   4.337   3.900  11.455 -0.0967  0.4527  0.0725
14203TIP3    H164024   4.305   3.904  11.365  0.5582  1.7843 -0.1099
14203TIP3    H264025   4.296   3.822  11.492 -1.3802  0.6214 -0.9833
14204TIP3   OH264026   6.637   3.846   3.227 -0.3644 -0.2212 -0.0254
14204TIP3    H164027   6.545   3.824   3.213 -0.6207  0.8210 -0.0320
14204TIP3    H264028   6.635   3.911   3.297  0.3746 -0.1833 -0.0384
14205TIP3   OH264029   0.188   3.094  13.247  0.4144  0.1134  0.0321
14205TIP3    H164030   0.269   3.080  13.296  0.5609  1.3552  0.1626
14205TIP3    H264031   0.209   3.163  13.185 -0.7769  1.0355  0.6383
14206TIP3   OH264032   6.624   3.608   0.619  0.4225  0.2648 -0.2148
14206TIP3    H164033   6.692   3.674   0.603  0.7493 -0.0165  0.0222
14206TIP3    H264034   6.548   3.641   0.570  1.2468 -0.2942 -1.9173
14207TIP3   OH264035   5.185   0.270   4.518 -0.3951 -0.4445  0.0902
14207TIP3    H164036   5.139   0.293   4.437 -0.2277 -2.2713 -0.5569
14207TIP3    H264037   5.171   0.176   4.527 -0.6086 -0.2348  2.3366
14208TIP3   OH264038   0.547   6.431   1.169  0.8129  0.4477 -0.6036
14208TIP3    H164039   0.640   6.408   1.162  0.2779 -1.9897 -0.0332
14208TIP3    H264040   0.513   6.420   1.080  0.3682 -1.9616 -0.1692
14209TIP3   OH264041   6.583   6.325   0.237 -0.7520 -0.4291  0.1307
14209TIP3    H164042   6.598   6.306   0.330 -0.5944 -1.7791 -0.1690
14209TIP3    H264043   6.666   6.306   0.194 -1.4719 -2.0216 -0.6176
14210TIP3   OH264044   2.921   2.199  15.315 -0.0610  0.3415  0.7212
14210TIP3    H164045   3.015   2.218  15.316 -0.4215  2.1085  1.2921
14210TIP3    H264046   2.915   2.108  15.344  1.5412 -0.1114 -0.2831
14211TIP3   OH264047   6.580   4.310   5.505  0.2155  0.2406  1.0154
14211TIP3    H164048   6.501   4.270   5.542 -1.1158  1.4562 -0.3770
14211TIP3    H264049   6.571   4.403   5.525  1.1802  0.4157  0.6483
14212TIP3   OH264050   5.071   4.112   0.272  0.9797 -0.5322  0.0271
14212TIP3    H164051   5.078   4.192   0.219  1.0860 -0.7133 -0.2314
14212TIP3    H264052   5.115   4.134   0.355  2.2677 -0.7817 -0.5790
14213TIP3   OH264053   4.730   0.040  15.234  0.0052  0.2449  0.8464
14213TIP3    H164054   4.657  -0.010  15.198 -0.5741  0.4190  1.7896
14213TIP3    H264055   4.783  -0.025  15.280  0.3522  0.1498  0.3154
14214TIP3   OH264056   6.446   0.588  16.873  0.2425 -0.2976 -0.5600
14214TIP3    H164057   6.406   0.580  16.787  0.1736 -0.1919 -0.5388
14214TIP3    H264058   6.503   0.511  16.880  0.4035 -0.1964 -0.7799
14215TIP3   OH264059   1.019   1.629   5.210  0.3820  1.1543 -0.3748
14215TIP3    H164060   1.053   1.560   5.267 -0.4824  0.5624 -0.5579
14215TIP3    H264061   1.090   1.693   5.204  1.2740  0.1703 -0.3854
14216TIP3   OH264062   0.940   5.841  17.020  0.4441 -0.0715 -0.2752
14216TIP3    H164063   0.954   5.900  16.946  0.3279 -0.5489 -0.6715
14216TIP3    H264064   0.848   5.854  17.043  0.2354 -0.6140 -0.8042
14217TIP3   OH264065   4.383   0.787  13.534 -0.0797  0.1399  0.4262
14217TIP3    H164066   4.375   0.787  13.630  0.3987  0.4826  0.4662
14217TIP3    H264067   4.302   0.746  13.504  0.4318 -1.3617  1.0257
14218TIP3   OH264068   4.294   4.168  15.038  0.0944  0.1741  0.4323
14218TIP3    H164069   4.215   4.162  14.984 -1.8049 -0.8667  3.2515
14218TIP3    H264070   4.291   4.255  15.076  1.1071  0.6742 -0.6069
14219TIP3   OH264071   2.624   4.969   0.739 -0.2750  0.3103  0.6487
14219TIP3    H164072   2.710   5.009   0.725 -0.1783 -0.6644 -1.9831
14219TIP3    H264073   2.644   4.885   0.781  0.1062 -0.0809 -0.2977
14220TIP3   OH264074   5.205   3.890   1.180 -0.5079  0.0435 -0.6043
14220TIP3    H164075   5.292   3.901   1.141 -0.2844 -1.3444 -0.5378
14220TIP3    H264076   5.155   3.965   1.149  0.3589  0.2094 -1.6383
14221TIP3   OH264077   3.197   0.540  14.014  0.1312  0.0390 -0.1192
14221TIP3    H164078   3.107   0.530  14.045  0.6947 -2.5332  0.8059
14221TIP3    H264079   3.190   0.531  13.919 -0.5078 -0.9103  0.0114
14222TIP3   OH264080   4.710   3.791  15.723  0.0214 -0.2990  0.5193
14222TIP3    H164081   4.694   3.761  15.812  0.5749 -1.1665  0.3395
14222TIP3    H264082   4.805   3.779  15.710 -0.2954 -1.7454 -0.7225
14223TIP3   OH264083   1.616   1.254   0.494  0.9596  0.0015 -0.8445
14223TIP3    H164084   1.600   1.242   0.401  1.0156  0.4517 -0.9107
14223TIP3    H264085   1.688   1.317   0.499  2.8045 -2.0673 -0.5562
14224TIP3   OH264086   4.234   0.708   1.168 -0.2797 -0.6839 -0.3987
14224TIP3    H164087   4.150   0.728   1.209  0.5326  0.8870  0.5883
14224TIP3    H264088   4.266   0.631   1.215  0.9290  1.4731  2.4618
14225TIP3   OH264089   6.661   0.685   5.158 -0.0037 -0.0149  0.0347
14225TIP3    H164090   6.726   0.645   5.216  0.6839  0.4947 -0.3763
14225TIP3    H264091   6.652   0.622   5.086  0.1997  0.0143 -0.0177
14226TIP3   OH264092   0.227   4.066   4.740 -0.0002  0.2164 -0.1033
14226TIP3    H164093   0.192   4.149   4.772 -0.5501  0.7303 -1.9559
14226TIP3    H264094   0.322   4.079   4.737 -0.0231  0.4963  0.3429
14227TIP3   OH264095   1.242   3.324   2.115 -0.5348  0.5235 -0.0132
14227TIP3    H164096   1.306   3.267   2.158 -0.6634  0.8447  0.6046
14227TIP3    H264097   1.177   3.343   2.183 -0.4264  1.5129 -0.1828
14228TIP3   OH264098   1.324   2.334  13.052  0.1606  0.6035 -0.2048
14228TIP3    H164099   1.252   2.385  13.089 -1.4512 -1.1634 -0.7991
14228TIP3    H264100   1.345   2.378  12.970  0.7076  1.9170  0.6221
14229TIP3   OH264101   3.120   1.511  13.810  0.2589  0.3351  0.5162
14229TIP3    H164102   3.106   1.467  13.726  1.7848 -0.6043  0.7369
14229TIP3    H264103   3.059   1.469  13.870  0.0645  0.1285  0.1732
14230TIP3   OH264104   3.766   3.211   5.007  0.0215 -0.1763  0.1272
14230TIP3    H164105   3.803   3.298   4.994 -0.6958  0.1839  0.4374
14230TIP3    H264106   3.797   3.183   5.093 -1.7191  0.8122  1.1129
14231TIP3   OH264107   0.631   3.610   1.998 -0.0733  0.1062 -0.1835
14231TIP3    H164108   0.701   3.622   1.934 -1.0732  0.0963 -1.2992
14231TIP3    H264109   0.637   3.688   2.054  0.8276  0.1004 -0.2646
14232TIP3   OH264110   0.653   0.905  14.494  0.8245  0.3409 -0.3260
14232TIP3    H164111   0.640   0.819  14.452  1.6025  0.6347 -1.1828
14232TIP3    H264112   0.745   0.925  14.480  0.3729  1.8760 -1.2049
14233TIP3   OH264113   0.847   2.930   0.723 -0.6000  0.0336 -0.1598
14233TIP3    H164114   0.880   2.931   0.633  1.9286  0.1851  0.7366
14233TIP3    H264115   0.838   2.838   0.745  0.9816 -0.0479  0.1902
14234TIP3   OH264116   4.541   5.972  13.513  0.1346 -0.4347  0.4137
14234TIP3    H164117   4.613   5.943  13.455  0.1408  0.1739  0.1166
14234TIP3    H264118   4.463   5.930  13.476 -0.0370  0.8371 -0.7086
14235TIP3   OH264119   6.669   5.225   2.700  0.4069  0.3248  0.1040
14235TIP3    H164120   6.667   5.178   2.783 -0.2637  2.1165  1.1460
14235TIP3    H264121   6.726   5.173   2.644  2.4844  0.1037  2.3332
14236TIP3   OH264122   3.584   4.457  14.931  0.0165 -0.2569  0.3736
14236TIP3    H164123   3.653   4.398  14.902 -0.9807 -0.8507 -0.8069
14236TIP3    H264124   3.580   4.525  14.863 -1.2852 -0.8222 -0.1401
14237TIP3   OH264125   4.546   6.163   0.007  0.1011  0.4460 -0.1371
14237TIP3    H164126   4.529   6.255  -0.010 -3.6921 -0.5553 -2.2588
14237TIP3    H264127   4.498   6.144   0.088 -0.7716 -0.0926 -0.7691
14238TIP3   OH264128   5.185   1.854  14.274  0.1033  0.0251  0.0774
14238TIP3    H164129   5.224   1.794  14.210  0.2403  0.1366  0.0580
14238TIP3    H264130   5.092   1.831  14.275  0.3161 -0.8498  0.7752
14239TIP3   OH264131   6.670   2.737   4.809  0.0616  0.1201  0.2827
14239TIP3    H164132   6.601   2.729   4.743  1.1424  0.8783 -0.9343
14239TIP3    H264133   6.639   2.806   4.867 -1.5025 -1.4177  1.3660
14240TIP3   OH264134   0.495   2.212  11.087  0.2486  0.0738  0.3010
14240TIP3    H164135   0.583   2.245  11.100 -1.0336  2.7146  2.7307
14240TIP3    H264136   0.446   2.285  11.050 -0.9438 -1.3611 -1.0581
14241TIP3   OH264137   6.260   6.191  12.421 -0.1095  0.0836  0.2122
14241TIP3    H164138   6.349   6.157  12.419 -0.7878 -1.7956  0.6303
14241TIP3    H264139   6.215   6.147  12.349 -1.3702 -0.9900  1.6103
14242TIP3   OH264140   3.432   4.593   2.268  0.2645  0.0165  0.3806
14242TIP3    H164141   3.425   4.596   2.172  2.8695 -3.1183 -0.0129
14242TIP3    H264142   3.345   4.616   2.299  0.0321  3.7206 -2.6377
14243TIP3   OH264143   2.405   6.053  14.087  0.0044 -0.3984 -0.1725
14243TIP3    H164144   2.392   5.970  14.042 -0.8860 -0.7619  0.7547
14243TIP3    H264145   2.500   6.066  14.085 -0.0208 -0.3560 -2.2259
14244TIP3   OH264146   3.678   1.003   3.173  1.1262  0.5779 -0.5497
14244TIP3    H164147   3.766   0.974   3.152  2.1758  2.7754  0.6271
14244TIP3    H264148   3.689   1.060   3.250 -1.2527  1.2279 -0.6444
14245TIP3   OH264149   1.461   1.001   3.531  0.6858  0.0340  0.7063
14245TIP3    H164150   1.554   1.004   3.554  0.6173  0.5049  0.9391
14245TIP3    H264151   1.439   1.092   3.510  0.6695 -0.3465 -0.9348
14246TIP3   OH264152   4.627   1.377  11.918  0.9359  0.3005  0.3091
14246TIP3    H164153   4.547   1.427  11.935  2.1299  2.3755  0.0321
14246TIP3    H264154   4.681   1.391  11.995  0.7993 -1.5902  0.7585
14247TIP3   OH264155   6.239   3.703  15.820 -0.1148 -0.0771  0.4158
14247TIP3    H164156   6.221   3.639  15.889 -0.2711  2.6503  3.0147
14247TIP3    H264157   6.334   3.714  15.822 -0.1570  0.2849  0.4567
14248TIP3   OH264158   0.987   3.654  16.062 -0.3860  0.5310 -0.0987
14248TIP3    H164159   1.073   3.687  16.090  0.4399 -1.6287  0.0280
14248TIP3    H264160   0.950   3.614  16.141  0.3588 -2.3043 -1.1129
14249TIP3   OH264161   1.178   3.165  16.679 -0.0022 -0.1081 -0.6075
14249TIP3    H164162   1.264   3.153  16.720 -0.2082  2.6023  0.7680
14249TIP3    H264163   1.181   3.254  16.643 -1.9364 -0.2992 -1.2850
14250TIP3   OH264164   4.148   0.810   6.615 -0.4727 -0.1935  0.1986
14250TIP3    H164165   4.101   0.868   6.675 -0.0183 -1.1030  1.4507
14250TIP3    H264166   4.093   0.807   6.536 -1.0313  1.0702  0.5245
14251TIP3   OH264167   4.141   0.188   0.373  0.1772 -0.0766  0.1052
14251TIP3    H164168   4.164   0.173   0.465 -0.7993  0.9733  0.5392
14251TIP3    H264169   4.211   0.243   0.339  0.4930 -0.3903  0.2439
14252TIP3   OH264170   1.302   5.983   2.870 -0.2377 -0.0396  0.1657
14252TIP3    H164171   1.314   6.067   2.825  1.8804  0.4342  1.4885
14252TIP3    H264172   1.248   5.931   2.811  1.8299  0.8149 -2.5811
14253TIP3   OH264173   4.892   1.299   1.594 -0.7557 -0.0387 -0.2459
14253TIP3    H164174   4.869   1.253   1.514 -1.6020 -0.8707  0.4597
14253TIP3    H264175   4.876   1.235   1.664 -1.6951  1.2428  0.7357
14254TIP3   OH264176   3.981   0.588  14.106 -0.2677 -0.4356 -0.6007
14254TIP3    H164177   3.938   0.625  14.029  0.5699  2.6380  0.3302
14254TIP3    H264178   3.943   0.636  14.180  1.7516 -0.6010  0.5924
14255TIP3   OH264179   2.850   3.838  12.963  0.5291 -0.1436 -0.6289
14255TIP3    H164180   2.759   3.830  12.990  0.4439  0.7621 -0.6500
14255TIP3    H264181   2.901   3.809  13.039  0.2820  1.7601  0.2793
14256TIP3   OH264182   5.868   4.218  11.533 -0.2596  0.2826  0.3069
14256TIP3    H164183   5.802   4.167  11.485 -0.9275  0.2984  1.1978
14256TIP3    H264184   5.917   4.153  11.584  0.6131  0.2369 -0.5775
14257TIP3   OH264185   6.323   4.550   1.525  0.8468 -0.2072 -0.3855
14257TIP3    H164186   6.356   4.483   1.585 -0.7230  0.9076  1.7956
14257TIP3    H264187   6.236   4.519   1.500  1.0281 -0.0892 -1.1666
14258TIP3   OH264188   5.260   0.082   2.762 -0.0444 -0.2791  0.0531
14258TIP3    H164189   5.300   0.157   2.806 -1.2015  0.9510 -0.9567
14258TIP3    H264190   5.174   0.073   2.801  0.0739 -1.0735  0.1487
14259TIP3   OH264191   3.639   5.589   1.847 -0.1138  0.0344  0.2621
14259TIP3    H164192   3.551   5.627   1.852  0.0344  0.4363 -0.0945
14259TIP3    H264193   3.647   5.560   1.756 -0.2821 -1.0008  0.5744
14260TIP3   OH264194   3.295   2.778   0.036 -0.2426 -0.2791  0.0546
14260TIP3    H164195   3.384   2.757   0.007 -0.3585 -0.5473 -0.1202
14260TIP3    H264196   3.295   2.872   0.049 -0.3163 -0.0777 -1.2898
14261TIP3   OH264197   6.002   4.537   3.510 -0.8269  0.5545 -0.8577
14261TIP3    H164198   5.925   4.508   3.559 -1.5588 -0.3282 -2.4910
14261TIP3    H264199   5.998   4.487   3.429  0.8632  1.3380 -1.4283
14262TIP3   OH264200   0.459   0.337   3.042  0.1456  0.3031  0.8633
14262TIP3    H164201   0.395   0.342   3.113 -2.6497  1.5550 -1.6202
14262TIP3    H264202   0.447   0.418   2.993  3.6642  0.5300  0.2994
14263TIP3   OH264203   3.305   4.827  11.564 -0.7809  0.1208 -0.2909
14263TIP3    H164204   3.288   4.759  11.628  1.8822  0.4964  0.8710
14263TIP3    H264205   3.260   4.905  11.598 -1.6942 -0.3889 -0.3271
14264TIP3   OH264206   3.700   4.003   5.090 -0.5128  0.0955  0.2215
14264TIP3    H164207   3.620   3.951   5.101 -0.9436  1.0483  1.6014
14264TIP3    H264208   3.715   4.043   5.176  2.4681 -1.5233  0.5092
14265TIP3   OH264209   2.592   0.487   4.124 -0.0498  0.0131  0.3936
14265TIP3    H164210   2.537   0.455   4.196  1.2315  1.6292  2.1248
14265TIP3    H264211   2.675   0.510   4.166  0.9014  0.4687 -1.7039
14266TIP3   OH264212   4.974   6.505  16.243  0.3160 -0.4190  0.2411
14266TIP3    H164213   5.040   6.482  16.309  0.9072 -2.6274 -1.0874
14266TIP3    H264214   5.005   6.588  16.206  2.2894 -1.3372 -0.2344
14267TIP3   OH264215   5.596   0.105  14.657  0.0213  0.3495 -0.3426
14267TIP3    H164216   5.612   0.056  14.576  0.4464  0.9685 -0.6430
14267TIP3    H264217   5.587   0.038  14.724  0.1002 -0.1592 -0.8314
14268TIP3   OH264218   1.328   2.840   4.377  0.6471 -0.8597  0.2570
14268TIP3    H164219   1.353   2.902   4.309 -0.6525  1.7917  2.0740
14268TIP3    H264220   1.402   2.840   4.438  0.4560 -0.7013  0.4930
14269TIP3   OH264221   0.820   4.955   2.204 -0.2536  0.4240  0.1129
14269TIP3    H164222   0.825   4.942   2.299  0.7742 -1.8245 -0.2230
14269TIP3    H264223   0.742   5.010   2.191 -1.5243 -0.8773  2.0895
14270TIP3   OH264224   6.232   4.382   6.546  0.1715 -0.3368 -0.4689
14270TIP3    H164225   6.202   4.393   6.456 -0.4213 -0.3177 -0.2737
14270TIP3    H264226   6.324   4.358   6.538  0.7140  1.7748 -1.0122
14271TIP3   OH264227   2.300   1.488   0.662  0.4739 -0.0825  0.2150
14271TIP3    H164228   2.276   1.451   0.577 -0.0058  0.7298 -0.0121
14271TIP3    H264229   2.232   1.457   0.722  1.0055 -0.9407  0.3775
14272TIP3   OH264230   1.766   0.574   5.146  0.3407 -0.3460  0.3720
14272TIP3    H164231   1.734   0.501   5.093 -1.5879  1.0725 -0.4951
14272TIP3    H264232   1.850   0.597   5.107  0.1588 -1.0138 -0.4310
14273TIP3   OH264233   1.505   4.921  11.546 -0.1448  0.3578  0.0657
14273TIP3    H164234   1.565   4.920  11.620  0.1736 -0.4405 -0.1941
14273TIP3    H264235   1.430   4.972  11.576  0.6019  1.2425  0.4419
14274TIP3   OH264236   4.464   4.853   5.331 -0.0770  0.0528 -0.3165
14274TIP3    H164237   4.391   4.846   5.392  0.3793 -2.5601 -0.0116
14274TIP3    H264238   4.537   4.811   5.377  0.8754  0.1356 -1.7465
14275TIP3   OH264239   6.435   5.712  11.294  0.2578 -0.4905  0.0132
14275TIP3    H164240   6.371   5.657  11.339 -0.6323 -0.1904 -0.8674
14275TIP3    H264241   6.457   5.780  11.358 -0.5156 -0.4321  0.2286
14276TIP3   OH264242   0.565   4.926  16.857 -0.5051 -0.1284 -0.3617
14276TIP3    H164243   0.595   5.017  16.859 -0.2947 -0.1702 -1.4861
14276TIP3    H264244   0.516   4.915  16.939 -1.0375  1.1710 -0.5019
14277TIP3   OH264245   6.095   5.962  14.417 -0.2373 -0.0071  0.0082
14277TIP3    H164246   6.040   5.889  14.390  1.6224 -1.4931  0.0741
14277TIP3    H264247   6.161   5.922  14.475  1.8798  1.3895 -1.3506
14278TIP3   OH264248   3.843   2.858   6.250  0.3216 -0.0813  0.6166
14278TIP3    H164249   3.850   2.763   6.253 -1.8602 -0.2258  2.6082
14278TIP3    H264250   3.917   2.889   6.303  0.3249 -0.7252  0.9920
14279TIP3   OH264251   2.215   3.726   4.872 -0.2339 -0.0271 -0.0449
14279TIP3    H164252   2.235   3.792   4.805 -0.6661 -1.6421 -1.8121
14279TIP3    H264253   2.138   3.761   4.917  0.8441  1.7086  0.5101
14280TIP3   OH264254   6.327   4.330   3.094  0.1639 -0.0089 -0.1107
14280TIP3    H164255   6.386   4.389   3.047  0.4120  0.5517  0.8721
14280TIP3    H264256   6.298   4.266   3.029  1.1611  0.2449 -0.8037
14281TIP3   OH264257   4.641   5.290   2.148 -0.5997 -0.0751 -0.4178
14281TIP3    H164258   4.586   5.319   2.075 -0.5072 -0.4308 -0.6271
14281TIP3    H264259   4.646   5.367   2.206 -2.0525 -0.3222  0.0519
14282TIP3   OH264260   3.078   1.835   2.390  0.2551  0.1643 -0.1419
14282TIP3    H164261   2.984   1.849   2.379  0.3038  0.3204 -0.3740
14282TIP3    H264262   3.086   1.746   2.424 -0.0462  0.5653  1.0017
14283TIP3   OH264263   0.752   6.109  14.971 -0.4829  0.2068  0.4331
14283TIP3    H164264   0.694   6.041  14.935 -0.6958 -0.8002  2.6206
14283TIP3    H264265   0.816   6.061  15.023 -0.1557  1.6282  1.3709
14284TIP3   OH264266   4.627   0.501  16.969  0.1842  0.1089 -0.7513
14284TIP3    H164267   4.687   0.499  17.044  0.9425  0.3287 -1.3357
14284TIP3    H264268   4.646   0.584  16.926 -0.8414  0.3676 -0.7145
14285TIP3   OH264269   3.106   5.770   5.901  0.0318  1.0869 -0.3939
14285TIP3    H164270   3.020   5.752   5.863 -0.5190  1.6869  0.5705
14285TIP3    H264271   3.091   5.774   5.995  0.7484  3.2184 -0.3482
14286TIP3   OH264272   6.287   3.891  13.612  0.0150 -0.1198  0.1351
14286TIP3    H164273   6.247   3.834  13.678  0.0915  0.2488  0.5013
14286TIP3    H264274   6.215   3.912  13.552 -0.8909  2.3116  2.0036
14287TIP3   OH264275   4.595   2.158  15.087  0.1926 -0.2769  0.1154
14287TIP3    H164276   4.531   2.154  15.016  0.6355 -0.5277 -0.2682
14287TIP3    H264277   4.638   2.243  15.076  0.9865 -0.7619 -0.5431
14288TIP3   OH264278   3.393   2.582  10.881 -0.1664 -0.7775  0.3847
14288TIP3    H164279   3.463   2.535  10.835 -0.2222  0.4713 -1.0093
14288TIP3    H264280   3.345   2.628  10.812 -2.2773 -1.4655  1.3338
14289TIP3   OH264281   2.059   3.714  12.977 -0.5837 -0.0637  0.1488
14289TIP3    H164282   2.069   3.763  12.895 -1.3111 -1.0399 -0.5414
14289TIP3    H264283   2.049   3.782  13.044  0.5223  0.7547 -0.4895
14290TIP3   OH264284   1.046   1.233   0.658  0.4337 -0.3488  0.0558
14290TIP3    H164285   1.085   1.161   0.608  0.0825 -1.6131  1.5839
14290TIP3    H264286   1.018   1.193   0.740  0.8317  1.6655  1.2025
14291TIP3   OH264287   1.837   1.988  15.502  0.5210 -0.0582  0.0959
14291TIP3    H164288   1.748   2.023  15.502  1.8000  3.3487 -0.8758
14291TIP3    H264289   1.862   1.989  15.594 -0.6043 -1.5997  0.4521
14292TIP3   OH264290   2.958   2.386  11.874  0.2138 -0.2238  0.0095
14292TIP3    H164291   2.890   2.383  11.941 -0.3596 -2.2584 -0.6177
14292TIP3    H264292   2.980   2.478  11.865 -2.2265  0.4128  0.4615
14293TIP3   OH264293   1.661   2.694   5.273  0.2240 -0.1659 -0.0569
14293TIP3    H164294   1.597   2.737   5.329 -0.4305  0.6147 -1.3831
14293TIP3    H264295   1.609   2.648   5.207  1.0156  0.0850 -0.8620
14294TIP3   OH264296   1.120   2.686  12.578  0.4175  0.6908 -0.0479
14294TIP3    H164297   1.028   2.692  12.603 -0.1806 -1.6530 -1.4841
14294TIP3    H264298   1.146   2.776  12.558 -1.5629  1.3598  0.3014
14295TIP3   OH264299   3.144   0.344   1.800 -0.0752 -0.2233 -0.5479
14295TIP3    H164300   3.229   0.304   1.783 -0.3186 -1.3069  0.6562
14295TIP3    H264301   3.080   0.278   1.771 -0.5038  0.4819 -1.2137
14296TIP3   OH264302   1.304   5.622   0.106  0.4601 -0.0265  0.2183
14296TIP3    H164303   1.245   5.601   0.178  0.8185 -2.3713 -0.1445
14296TIP3    H264304   1.391   5.602   0.140  0.6892 -0.4605 -0.6222
14297TIP3   OH264305   0.172   6.073  11.734 -0.3812 -0.2594 -0.1241
14297TIP3    H164306   0.206   6.159  11.757  0.0718 -0.3108 -0.5940
14297TIP3    H264307   0.200   6.059  11.643  1.3446 -1.7890  0.6148
14298TIP3   OH264308   3.776   4.172  12.774  0.3085  0.6733  0.4441
14298TIP3    H164309   3.803   4.191  12.864  0.3279 -1.3950  0.9024
14298TIP3    H264310   3.856   4.139  12.732  0.0477  0.6467 -0.0351
14299TIP3   OH264311   3.015   2.027  11.688  0.3099 -0.2642  0.3782
14299TIP3    H164312   2.999   1.991  11.601  2.1842  1.6800 -0.8453
14299TIP3    H264313   2.962   1.974  11.747 -0.0429 -2.4115 -1.8046
14300TIP3   OH264314   3.076   0.288  13.442  0.1424 -0.1572 -0.2811
14300TIP3    H164315   3.162   0.247  13.426 -0.0233 -0.9910  0.9526
14300TIP3    H264316   3.037   0.294  13.355  1.8503  1.1441 -1.0017
14301TIP3   OH264317   0.469   5.191  12.030 -0.3301 -0.2327 -0.8508
14301TIP3    H164318   0.519   5.166  11.952  0.0270 -0.1734 -0.6429
14301TIP3    H264319   0.378   5.192  12.001 -0.2502 -0.7533 -1.1246
14302TIP3   OH264320   4.166   0.017  15.708  0.6938  0.1005  0.2608
14302TIP3    H164321   4.235   0.039  15.771 -0.2310 -0.4789  1.5055
14302TIP3    H264322   4.186   0.070  15.631  1.9194  0.7382  1.0023
14303TIP3   OH264323   4.962   2.462   4.137  0.1270  0.3562  0.7209
14303TIP3    H164324   5.044   2.511   4.129  1.0144 -1.3260 -0.9629
14303TIP3    H264325   4.937   2.444   4.046 -2.0016  0.6580  1.2385
14304TIP3   OH264326   2.564   1.856  12.275 -0.6424  0.1131  0.0418
14304TIP3    H164327   2.491   1.804  12.242 -0.1458 -1.7429  1.7820
14304TIP3    H264328   2.527   1.907  12.346 -0.3743 -0.4182  0.5658
14305TIP3   OH264329   2.654   2.440  15.191 -0.4530  0.4176  0.4376
14305TIP3    H164330   2.684   2.446  15.101 -1.0337 -2.1924  0.0375
14305TIP3    H264331   2.574   2.494  15.193 -0.3061  0.6749 -0.5500
14306TIP3   OH264332   3.294   5.318   4.118  0.1276  0.5153 -0.4036
14306TIP3    H164333   3.235   5.314   4.043 -0.6585 -0.3648  0.2336
14306TIP3    H264334   3.291   5.229   4.154 -1.1952  1.4534  1.9313
14307TIP3   OH264335   2.117   6.087   1.927 -0.1642  0.7240 -1.0266
14307TIP3    H164336   2.180   6.021   1.899  0.3499  1.9652 -2.8235
14307TIP3    H264337   2.146   6.112   2.015  1.2815  0.5635 -1.4414
14308TIP3   OH264338   4.425   1.640  12.658  0.3336 -0.3778  0.1105
14308TIP3    H164339   4.511   1.656  12.697 -0.2901 -0.4999  1.6092
14308TIP3    H264340   4.426   1.688  12.576  2.2753 -1.4024 -0.4978
14309TIP3   OH264341   1.735   1.459  13.130 -0.4079  0.1228  0.3816
14309TIP3    H164342   1.764   1.393  13.067 -0.0930 -0.8933  1.5656
14309TIP3    H264343   1.772   1.541  13.098  0.4677 -0.5194 -0.2811
14310TIP3   OH264344   2.090   2.815   5.382  0.1962 -0.8609 -0.4075
14310TIP3    H164345   2.139   2.863   5.315  1.2373  0.9295  1.5638
14310TIP3    H264346   1.999   2.842   5.369  0.5846  0.5789 -0.2070
14311TIP3   OH264347   5.750   4.610  11.060  0.2184  0.6432 -0.3086
14311TIP3    H164348   5.685   4.569  11.003 -0.3012 -1.0011  1.4117
14311TIP3    H264349   5.810   4.655  11.000 -2.4070  2.1066 -1.9276
14312TIP3   OH264350   2.846   2.622  15.295  0.2405 -0.0994 -0.0458
14312TIP3    H164351   2.819   2.549  15.238 -1.5165  0.2760  0.2653
14312TIP3    H264352   2.903   2.582  15.360 -0.0684 -1.0627 -0.3535
14313TIP3   OH264353   3.396   0.871   3.502  0.0605  0.2723  0.1511
14313TIP3    H164354   3.303   0.875   3.522 -0.4124  0.1848 -1.9538
14313TIP3    H264355   3.439   0.909   3.580 -1.8691  2.8144  0.0240
14314TIP3   OH264356   2.408   3.967  15.033 -0.3975  0.2219  0.0890
14314TIP3    H164357   2.430   4.014  15.113 -0.4217 -2.2377  1.6112
14314TIP3    H264358   2.346   4.023  14.987 -0.3909  1.6547  1.8128
14315TIP3   OH264359   6.694   0.425   6.111 -0.3523  0.3470  0.9938
14315TIP3    H164360   6.672   0.332   6.123 -0.5797 -0.1426 -2.6401
14315TIP3    H264361   6.787   0.425   6.089 -0.6280  0.8391 -0.2183
14316TIP3   OH264362   2.059   3.803   3.258  0.1836 -0.8025  0.4770
14316TIP3    H164363   2.017   3.855   3.327 -0.5587  0.1671 -0.6997
14316TIP3    H264364   2.097   3.729   3.305 -0.0443  0.0068  1.9785
14317TIP3   OH264365   3.751   2.230  12.037 -0.1709 -0.1789  1.2280
14317TIP3    H164366   3.662   2.195  12.036 -0.2732  0.0681 -1.3073
14317TIP3    H264367   3.807   2.153  12.033 -0.2957 -0.3086  2.0716
14318TIP3   OH264368   4.127   2.338   2.477 -0.4146  0.4771 -0.4448
14318TIP3    H164369   4.183   2.269   2.514 -1.2475  0.5379  0.9534
14318TIP3    H264370   4.055   2.347   2.540 -0.0698  2.9582 -0.3746
14319TIP3   OH264371   3.562   1.574   3.881  0.2206 -0.2239 -0.2221
14319TIP3    H164372   3.595   1.618   3.959  0.1461  0.2569 -0.4535
14319TIP3    H264373   3.596   1.626   3.808 -1.1666  0.3862 -0.4609
14320TIP3   OH264374   2.952   2.634   5.303  0.1352 -0.7248  0.2137
14320TIP3    H164375   2.926   2.543   5.320  1.4369 -1.3056 -0.7113
14320TIP3    H264376   3.031   2.646   5.356 -0.5959  0.2099  1.1104
14321TIP3   OH264377   4.389   0.773  14.686  0.3825 -0.3086  0.1659
14321TIP3    H164378   4.321   0.707  14.675  0.5406 -0.7333  1.6242
14321TIP3    H264379   4.439   0.744  14.762  1.1077  0.9285  0.1831
14322TIP3   OH264380   6.185   2.147  13.212  0.2038  0.0952  0.2245
14322TIP3    H164381   6.214   2.138  13.303  0.7381  0.0023  0.0388
14322TIP3    H264382   6.223   2.073  13.166  0.6854  0.6498 -0.2730
14323TIP3   OH264383   5.425   2.954   1.298  0.2411 -0.2509 -0.5022
14323TIP3    H164384   5.367   2.994   1.362  1.7793  1.1230  0.0583
14323TIP3    H264385   5.377   2.960   1.215 -0.7373  0.1532  0.0880
14324TIP3   OH264386   4.894   0.266   2.878  0.0460 -0.5788 -0.3305
14324TIP3    H164387   4.828   0.326   2.913 -0.9759 -1.0423 -1.4076
14324TIP3    H264388   4.959   0.324   2.837 -0.7488 -0.1726 -1.0493
14325TIP3   OH264389   2.521   5.413   0.155  0.4772 -0.1676 -0.0225
14325TIP3    H164390   2.610   5.444   0.171 -0.4979  2.1008  1.3181
14325TIP3    H264391   2.521   5.323   0.186  2.2137 -0.0833  0.2873
14326TIP3   OH264392   1.695   6.465  13.460  0.3909 -0.2308  0.0741
14326TIP3    H164393   1.640   6.402  13.507 -0.9298  0.0957 -0.9755
14326TIP3    H264394   1.747   6.412  13.400 -1.4359 -0.2952 -1.5172
14327TIP3   OH264395   6.015   4.334   2.594  0.2971 -0.2544  0.0252
14327TIP3    H164396   6.055   4.395   2.532 -0.2600 -0.6182 -0.7115
14327TIP3    H264397   5.997   4.255   2.542 -0.3237 -0.5083  0.6072
14328TIP3   OH264398   0.390   3.251   3.530  0.2619  0.0544  0.2833
14328TIP3    H164399   0.461   3.277   3.588  0.0503  1.3990 -0.0419
14328TIP3    H264400   0.359   3.168   3.566  1.9797 -0.5277  0.4245
14329TIP3   OH264401   0.047   1.702   2.609 -0.0737 -0.3382 -0.5223
14329TIP3    H164402   0.048   1.700   2.513  2.4278  2.4563 -0.6247
14329TIP3    H264403  -0.017   1.771   2.630  1.9432  1.5111 -0.3154
14330TIP3   OH264404   6.696   3.372  13.624  0.4914 -0.3156 -0.5517
14330TIP3    H164405   6.783   3.394  13.590  0.0388  0.9291 -0.9466
14330TIP3    H264406   6.658   3.457  13.649  0.0516 -1.0052  1.2287
14331TIP3   OH264407   5.220   4.292  14.437 -0.1139  0.4237  0.0614
14331TIP3    H164408   5.302   4.278  14.486  0.8365  1.5945 -1.1492
14331TIP3    H264409   5.228   4.234  14.361 -1.4246 -1.1157  1.0606
14332TIP3   OH264410   1.476   3.591   0.533  0.1964  0.3192 -0.0474
14332TIP3    H164411   1.431   3.535   0.595  1.5087 -1.4778 -0.6727
14332TIP3    H264412   1.431   3.576   0.450  1.0789 -0.4903 -0.3943
14333TIP3   OH264413   5.016   0.345   3.992 -0.5604 -0.1747 -0.0744
14333TIP3    H164414   5.097   0.392   4.012 -0.8317  0.3434 -0.1781
14333TIP3    H264415   4.972   0.336   4.077 -0.9038  0.5046 -0.1785
14334TIP3   OH264416   3.564   5.803   3.748  0.5835  0.1935 -0.2809
14334TIP3    H164417   3.604   5.762   3.825  0.2563  0.4893  0.0473
14334TIP3    H264418   3.512   5.875   3.783  1.2348  0.9544 -0.8666
14335TIP3   OH264419   2.168   3.383   1.165  0.0566 -0.3657  0.3537
14335TIP3    H164420   2.105   3.379   1.236  1.2368  1.7864  1.5629
14335TIP3    H264421   2.159   3.472   1.130  0.4605 -0.9523 -1.3022
14336TIP3   OH264422   1.382   0.428  13.455 -0.3638 -0.4388  0.2667
14336TIP3    H164423   1.451   0.485  13.489  0.4544 -0.3747 -1.4448
14336TIP3    H264424   1.344   0.477  13.382  0.0331 -1.8643 -0.9244
14337TIP3   OH264425   1.675   1.587  16.638 -0.0105  0.0407  0.0895
14337TIP3    H164426   1.637   1.507  16.602  0.4073  0.0543 -0.3814
14337TIP3    H264427   1.712   1.632  16.563  0.3117  0.3719  0.4437
14338TIP3   OH264428   4.819   6.036   1.691 -0.2809  0.0680  0.0429
14338TIP3    H164429   4.837   6.102   1.625  0.4927 -0.7039 -0.5213
14338TIP3    H264430   4.725   6.041   1.705 -0.3096  0.8804 -0.4311
14339TIP3   OH264431   3.863   5.121  13.001  0.7083 -0.1736  0.1605
14339TIP3    H164432   3.858   5.215  12.983  0.1017 -0.3781 -0.7775
14339TIP3    H264433   3.889   5.082  12.918  1.9787 -0.7487  0.8076
14340TIP3   OH264434   0.863   6.705   0.459 -0.3003  0.4129 -0.1411
14340TIP3    H164435   0.802   6.719   0.532  0.3432 -1.7312  0.8258
14340TIP3    H264436   0.851   6.783   0.404 -0.7375  2.1119  2.2626
14341TIP3   OH264437   5.681   1.861   4.239  0.1094  0.0059  0.3275
14341TIP3    H164438   5.665   1.782   4.188 -3.6923  1.6201 -1.1864
14341TIP3    H264439   5.656   1.837   4.328  0.6731 -0.9828  0.2301
14342TIP3   OH264440   3.729   2.120  13.600  0.0250  0.4877  0.5546
14342TIP3    H164441   3.770   2.134  13.685 -0.4118  0.6681  0.7399
14342TIP3    H264442   3.657   2.060  13.618  0.3349  0.0070  0.1964
14343TIP3   OH264443   0.587   1.482  13.633  0.3942 -0.4768  0.1159
14343TIP3    H164444   0.494   1.471  13.656  0.1383 -0.4541 -0.8842
14343TIP3    H264445   0.604   1.411  13.571  0.7413  0.2135 -0.5765
14344TIP3   OH264446   2.703   6.701   5.515  0.1313  0.0334 -0.8384
14344TIP3    H164447   2.765   6.743   5.576 -0.3512 -1.3463  0.6469
14344TIP3    H264448   2.662   6.774   5.468 -0.6726  1.2470  1.6531
14345TIP3   OH264449   0.607   3.773   1.471 -0.4741 -0.3400  0.0974
14345TIP3    H164450   0.515   3.765   1.497 -0.6877 -2.5579 -1.2402
14345TIP3    H264451   0.656   3.755   1.551 -1.1719  2.2218  1.1581
14346TIP3   OH264452   1.147   6.108  16.331 -0.0027  0.0154 -0.2583
14346TIP3    H164453   1.108   6.195  16.326  2.1730  1.0233 -0.4089
14346TIP3    H264454   1.169   6.095  16.423 -1.6400 -1.0009  0.0134
14347TIP3   OH264455   4.676   5.058   4.925 -0.1874  0.5793 -0.0020
14347TIP3    H164456   4.751   5.003   4.901 -0.2664  1.2506 -1.8802
14347TIP3    H264457   4.654   5.031   5.014  1.9805  0.0274  0.3926
14348TIP3   OH264458   5.929   1.663  11.061  0.7792 -0.2775 -0.3974
14348TIP3    H164459   5.925   1.746  11.013 -1.4928 -0.4922 -0.6300
14348TIP3    H264460   6.006   1.618  11.025  1.0922  1.0346 -1.4094
14349TIP3   OH264461   0.307   5.677  16.989 -0.4495 -0.1116  0.5662
14349TIP3    H164462   0.266   5.761  17.009  0.2661  0.4177 -0.1714
14349TIP3    H264463   0.246   5.633  16.930 -1.2363 -0.4917  1.6395
14350TIP3   OH264464   3.077   1.184   5.340 -0.2449  0.4673 -0.3505
14350TIP3    H164465   3.109   1.249   5.403  1.0245 -0.3312 -0.1594
14350TIP3    H264466   3.147   1.176   5.276 -0.2854 -0.9108 -0.2341
14351TIP3   OH264467   0.763   6.607  10.545  0.2123  0.4994 -0.4915
14351TIP3    H164468   0.718   6.665  10.484 -1.0733  0.0475  0.0156
14351TIP3    H264469   0.856   6.627  10.533 -0.2292  3.3352  0.3011
14352TIP3   OH264470   1.577   3.075  15.376 -0.0909  0.2876  0.1614
14352TIP3    H164471   1.584   3.118  15.291  1.9724  1.9440  1.1163
14352TIP3    H264472   1.518   3.002  15.361  0.0568  0.6860 -2.6473
14353TIP3   OH264473   5.924   5.533   1.604  0.1326 -0.1290  0.2764
14353TIP3    H164474   5.908   5.614   1.653  0.1424  0.2192 -0.2841
14353TIP3    H264475   5.848   5.478   1.623  1.2556 -0.9466  2.5691
14354TIP3   OH264476   0.754   2.526  14.778 -0.3556 -0.3938 -0.0735
14354TIP3    H164477   0.764   2.433  14.799  2.2868 -0.3318 -0.8995
14354TIP3    H264478   0.832   2.567  14.816 -0.5084  1.1820 -1.4320
14355TIP3   OH264479   5.671   1.577   0.848  0.3387 -0.0797  0.4410
14355TIP3    H164480   5.619   1.655   0.830  0.2981 -0.6729 -2.3251
14355TIP3    H264481   5.612   1.519   0.897 -0.8019  0.2275 -0.5508
14356TIP3   OH264482   3.046   3.647   1.997  0.7143 -0.0833  0.0258
14356TIP3    H164483   3.089   3.561   1.991 -2.2739 -1.6050 -0.4570
14356TIP3    H264484   3.090   3.700   1.930  2.7495 -1.1523  0.4689
14357TIP3   OH264485   3.791   4.194   3.404  0.2475 -0.2872 -0.0647
14357TIP3    H164486   3.852   4.163   3.471  2.9528  0.2902 -2.1596
14357TIP3    H264487   3.751   4.272   3.442 -0.2224 -1.4411  1.8807
14358TIP3   OH264488   2.391   5.299   3.274  0.4723 -0.1277  0.4114
14358TIP3    H164489   2.343   5.235   3.326 -0.0470 -1.0116 -1.1288
14358TIP3    H264490   2.471   5.316   3.325  0.3948 -1.6227  1.0675
14359TIP3   OH264491   1.977   6.572   2.087  0.7355  0.2078  0.0312
14359TIP3    H164492   2.056   6.548   2.135 -0.8024  0.6940  2.8748
14359TIP3    H264493   2.000   6.655   2.044  1.8519  0.2041  0.5997
14360TIP3   OH264494   6.350   1.848  14.747 -0.0361 -0.8699 -0.1200
14360TIP3    H164495   6.409   1.875  14.677 -0.9572  0.8599 -0.2835
14360TIP3    H264496   6.264   1.882  14.719 -0.4521 -0.3645  1.7322
14361TIP3   OH264497   0.713   2.428  13.527  0.4653 -0.4348  0.5376
14361TIP3    H164498   0.736   2.338  13.504  0.1096 -0.2849 -0.4282
14361TIP3    H264499   0.751   2.481  13.457  1.7659  0.2973  1.7577
14362TIP3   OH264500   3.782   1.791  12.939 -0.2613  0.5053 -0.5829
14362TIP3    H164501   3.818   1.840  13.013  1.5099  0.0096 -1.1093
14362TIP3    H264502   3.847   1.798  12.870 -0.7865 -1.0791 -1.2774
14363TIP3   OH264503   0.607   4.782  10.790 -0.2251 -0.2491  0.3216
14363TIP3    H164504   0.696   4.752  10.807  0.4812  2.0062  0.7593
14363TIP3    H264505   0.559   4.762  10.871  0.3152  0.0947  0.7299
14364TIP3   OH264506   4.799   5.713   2.554  0.5412 -0.6040  0.2275
14364TIP3    H164507   4.741   5.667   2.493  1.2070 -1.5008  0.2558
14364TIP3    H264508   4.812   5.799   2.515 -2.2729  0.2694  1.1414
14365TIP3   OH264509   6.632   2.680  11.195  0.8256  0.0321 -0.0128
14365TIP3    H164510   6.636   2.585  11.178 -0.0133  0.2826 -1.7531
14365TIP3    H264511   6.545   2.705  11.164 -0.0938  0.8978  3.0978
14366TIP3   OH264512   5.702   0.281  13.794  0.1377  0.4560  0.2002
14366TIP3    H164513   5.685   0.203  13.847  2.3862  0.6062  1.1950
14366TIP3    H264514   5.672   0.354  13.848 -2.0744  0.2900 -0.7800
14367TIP3   OH264515   5.648   3.255  16.234 -0.3178  0.3484 -0.6270
14367TIP3    H164516   5.581   3.209  16.284 -0.7949 -0.2847 -1.8341
14367TIP3    H264517   5.706   3.293  16.300 -0.6102 -0.9573  0.3873
14368TIP3   OH264518   1.627   6.503  11.568 -0.0129 -0.0767 -0.5957
14368TIP3    H164519   1.690   6.532  11.502 -0.4581 -0.1880 -1.0812
14368TIP3    H264520   1.623   6.408  11.557  2.5252 -0.5146  1.9740
14369TIP3   OH264521   6.181   0.654   3.644 -0.0669  0.8091 -0.4777
14369TIP3    H164522   6.161   0.695   3.729 -0.4657 -1.5418  0.6003
14369TIP3    H264523   6.258   0.702   3.613 -1.9128  3.9281 -0.3966
14370TIP3   OH264524   5.376   5.330   0.838  0.3782  0.3394 -0.7299
14370TIP3    H164525   5.368   5.235   0.826 -1.7344  0.2245  1.1896
14370TIP3    H264526   5.294   5.365   0.804  0.0916  1.2273  0.8099
14371TIP3   OH264527   3.043   1.218   4.087 -0.1878 -0.8551  0.2101
14371TIP3    H164528   3.012   1.287   4.029 -1.9006 -1.6627  0.1411
14371TIP3    H264529   3.096   1.162   4.030 -0.4072 -0.6744 -0.1731
14372TIP3   OH264530   3.783   6.386   5.235 -0.2621 -0.0818 -0.0147
14372TIP3    H164531   3.827   6.302   5.224 -0.8583 -0.5708  1.2447
14372TIP3    H264532   3.853   6.451   5.231  0.3371 -0.7216  0.1417
14373TIP3   OH264533   1.055   5.217  11.840 -0.1575  0.2076  0.0966
14373TIP3    H164534   1.059   5.279  11.768  1.2957  0.6870  0.5840
14373TIP3    H264535   1.058   5.131  11.798  0.3912  0.4818 -0.4375
14374TIP3   OH264536   5.675   2.985  14.390  0.3482 -0.6662  0.6141
14374TIP3    H164537   5.646   2.922  14.324  2.8108  0.6053 -1.7940
14374TIP3    H264538   5.633   3.067  14.366  3.1575  0.4006 -0.9773
14375TIP3   OH264539   5.681   1.102  15.134 -0.1185  0.2327  0.2493
14375TIP3    H164540   5.723   1.021  15.163 -1.0638 -0.3891 -0.0679
14375TIP3    H264541   5.704   1.167  15.200  1.6192  0.0055 -0.1048
14376TIP3   OH264542   4.440   6.198  16.699  0.1830  0.4554 -0.2161
14376TIP3    H164543   4.396   6.140  16.762  0.8008  0.2349  0.0157
14376TIP3    H264544   4.371   6.223  16.637 -0.4864  0.8572  0.6787
14377TIP3   OH264545   0.386   1.708  10.827 -0.4560 -0.0064 -0.4712
14377TIP3    H164546   0.291   1.712  10.823 -0.4816 -1.2652 -1.4743
14377TIP3    H264547   0.406   1.660  10.907 -0.6631  0.2392 -0.2744
14378TIP3   OH264548   4.536   2.272  14.196  0.1313 -0.3256  0.6139
14378TIP3    H164549   4.481   2.196  14.215  0.1335  0.2017  2.8620
14378TIP3    H264550   4.607   2.267  14.260  1.9629 -0.2548 -1.3818
14379TIP3   OH264551   2.009   2.582  16.010 -0.1625  0.0725 -0.1687
14379TIP3    H164552   1.958   2.652  16.051  0.8210  0.4906  0.3748
14379TIP3    H264553   2.098   2.594  16.045  0.3818 -0.4267 -1.3547
14380TIP3   OH264554   1.260   5.884  16.947  0.1273 -0.1173  0.0080
14380TIP3    H164555   1.172   5.915  16.925  0.0799  0.0085  0.3663
14380TIP3    H264556   1.315   5.919  16.877 -0.4335 -2.0855 -1.4878
14381TIP3   OH264557   3.681   1.947   3.907 -0.3013  0.0041 -0.1695
14381TIP3    H164558   3.586   1.942   3.918 -0.2375  0.8725  0.8249
14381TIP3    H264559   3.697   1.914   3.818 -1.7606  2.3309 -1.3329
14382TIP3   OH264560   0.160   5.002   4.935  0.2638  0.4005 -0.1220
14382TIP3    H164561   0.107   4.958   5.001  0.9335  0.1193  0.2262
14382TIP3    H264562   0.250   4.995   4.967  0.6095  0.1355 -1.1232
14383TIP3   OH264563   3.106   6.715  14.647 -0.7541 -0.7608  0.0819
14383TIP3    H164564   3.040   6.664  14.694  0.0669  0.3870  2.5455
14383TIP3    H264565   3.186   6.663  14.655 -0.6728 -0.6829 -0.2387
14384TIP3   OH264566   1.525   1.603   1.486 -0.0740  0.8193 -0.0537
14384TIP3    H164567   1.571   1.592   1.569 -1.4918  2.0752  0.9119
14384TIP3    H264568   1.447   1.548   1.494 -0.6512  1.6057 -0.2112
14385TIP3   OH264569   1.315   0.794   5.584 -0.1314  0.0727  0.1761
14385TIP3    H164570   1.294   0.704   5.558  0.3305  0.2204 -0.7150
14385TIP3    H264571   1.303   0.846   5.505 -0.2215  0.7762  0.6440
14386TIP3   OH264572   4.974   0.622  17.023  0.3743  0.0552 -0.3531
14386TIP3    H164573   5.054   0.676  17.025  0.1647  0.3904 -1.0490
14386TIP3    H264574   4.906   0.682  16.993 -0.2982 -0.0395  0.9491
14387TIP3   OH264575   1.105   5.976  11.882 -0.1301  0.1193 -0.3347
14387TIP3    H164576   1.038   5.985  11.813 -0.6640  2.7307  0.4811
14387TIP3    H264577   1.182   5.944  11.835 -1.0654 -0.0953 -1.7982
14388TIP3   OH264578   3.966   0.050   4.894 -0.0485 -0.1542 -0.9667
14388TIP3    H164579   4.060   0.054   4.881 -0.0055 -0.9973 -0.9430
14388TIP3    H264580   3.945  -0.043   4.891 -0.7148 -0.0488  0.2010
14389TIP3   OH264581   3.276   1.368   2.484 -0.3804  0.3062 -0.4081
14389TIP3    H164582   3.360   1.412   2.471 -0.3272  0.3010 -0.0957
14389TIP3    H264583   3.299   1.282   2.521 -0.4588 -0.1599 -1.4367
14390TIP3   OH264584   3.782   6.393   2.864 -0.6163 -0.1918 -0.0305
14390TIP3    H164585   3.834   6.315   2.880 -0.5763 -0.7394 -2.5470
14390TIP3    H264586   3.841   6.452   2.817 -1.6489 -0.0649 -1.2134
14391TIP3   OH264587   0.606   4.020   3.383  0.7239  0.6174 -0.2704
14391TIP3    H164588   0.660   3.991   3.310  1.5253  1.4797 -0.0231
14391TIP3    H264589   0.581   4.110   3.361  0.4923  0.6804  0.2416
14392TIP3   OH264590   3.227   1.057   1.344  0.2124  0.3982  0.7996
14392TIP3    H164591   3.218   1.099   1.429  1.2940 -0.4918  1.3698
14392TIP3    H264592   3.245   0.965   1.365  0.6457  0.2079 -0.3913
14393TIP3   OH264593   0.653   1.329  14.559 -0.1633 -0.1990  0.0013
14393TIP3    H164594   0.611   1.393  14.616  3.0326  0.5671  1.6337
14393TIP3    H264595   0.634   1.245  14.599 -0.6391  0.0808  0.3647
14394TIP3   OH264596   4.126   5.031   0.552 -0.7263 -0.4629 -0.5183
14394TIP3    H164597   4.184   4.956   0.564 -0.1647 -0.1830 -1.4461
14394TIP3    H264598   4.094   5.023   0.462 -0.2984  0.6564 -0.7804
14395TIP3   OH264599   1.755   5.248   0.848  0.2812  0.9740 -1.0062
14395TIP3    H164600   1.742   5.158   0.818  1.4509  0.3186  0.4048
14395TIP3    H264601   1.848   5.252   0.872 -0.2928  1.8441  1.1845
14396TIP3   OH264602   3.701   3.664  13.857  0.6707  0.3565 -0.2785
14396TIP3    H164603   3.676   3.610  13.932  0.6105  0.0740 -0.5017
14396TIP3    H264604   3.696   3.754  13.889 -0.6659  0.3097 -0.3225
14397TIP3   OH264605   0.385   3.160  10.846 -0.2515  0.5426 -0.3379
14397TIP3    H164606   0.475   3.189  10.835 -0.8828  2.4280 -0.6484
14397TIP3    H264607   0.352   3.152  10.757 -0.6728  0.7755 -0.2045
14398TIP3   OH264608   2.150   1.245  12.952  0.3358  0.1196 -0.0699
14398TIP3    H164609   2.121   1.298  13.026 -2.4790 -1.5289  0.0517
14398TIP3    H264610   2.221   1.191  12.987 -0.4305 -0.0639  1.2366
14399TIP3   OH264611   2.133   1.779  15.170 -0.1176  0.0066 -0.3167
14399TIP3    H164612   2.064   1.841  15.194 -0.0260  0.4088 -1.0596
14399TIP3    H264613   2.116   1.702  15.224 -2.2623 -0.6130 -1.7682
14400TIP3   OH264614   0.939   5.868  10.649  0.1684 -0.0756  0.1802
14400TIP3    H164615   0.971   5.958  10.659 -0.2321  0.1106 -0.1971
14400TIP3    H264616   0.907   5.864  10.559  0.3726 -0.6574  0.1318
14401TIP3   OH264617   3.174   6.195   1.030  0.2716  0.6480 -0.1216
14401TIP3    H164618   3.262   6.176   1.061  0.3042  0.8946 -0.0624
14401TIP3    H264619   3.144   6.113   0.992  0.3802  0.4537  0.2060
14402TIP3   OH264620   4.112   6.002  14.422  0.8233 -0.6047  0.0005
14402TIP3    H164621   4.191   5.949  14.434 -0.7667 -3.0342  0.1559
14402TIP3    H264622   4.053   5.973  14.492 -1.1362 -0.6601 -1.6133
14403TIP3   OH264623   6.112   3.743  15.371  0.2733 -0.3184  0.2525
14403TIP3    H164624   6.052   3.788  15.311 -1.1962 -2.3582  0.1648
14403TIP3    H264625   6.095   3.784  15.456 -0.6835 -0.3367  0.0786
14404TIP3   OH264626   6.257   6.282   2.221 -0.0120  0.8569  0.3743
14404TIP3    H164627   6.271   6.257   2.312 -4.2121 -0.6403  0.7200
14404TIP3    H264628   6.197   6.356   2.226 -2.3448 -0.8444 -1.1390
14405TIP3   OH264629   4.267   5.757   1.337  0.0329 -0.1055  0.4772
14405TIP3    H164630   4.195   5.697   1.354  0.3934 -0.1318  2.0225
14405TIP3    H264631   4.258   5.781   1.245 -1.4670 -0.7330  0.4523
14406TIP3   OH264632   3.320   3.128  17.014 -0.0109 -0.3384 -0.2069
14406TIP3    H164633   3.275   3.109  16.931  0.2224 -1.3173 -0.1168
14406TIP3    H264634   3.253   3.112  17.081  0.6173 -2.3765 -0.0360
14407TIP3   OH264635   4.186   1.073  15.316  0.4614  0.2842  0.4073
14407TIP3    H164636   4.125   1.004  15.293  1.7270 -1.2203  1.4551
14407TIP3    H264637   4.138   1.128  15.378 -0.9611  1.0674 -1.3392
14408TIP3   OH264638   3.325   3.454  11.707  0.7157  1.3295 -0.4527
14408TIP3    H164639   3.320   3.546  11.733  0.1227  0.8217  1.3562
14408TIP3    H264640   3.418   3.434  11.706  0.9387  2.3691 -2.4876
14409TIP3   OH264641   5.583   1.334   0.506  0.1763 -0.4191  0.3487
14409TIP3    H164642   5.661   1.281   0.490  1.7098  1.0893  2.5076
14409TIP3    H264643   5.597   1.414   0.455  0.1674 -0.0343  0.9418
14410TIP3   OH264644   5.728   2.037   3.864  0.3219  0.1066 -0.7202
14410TIP3    H164645   5.754   2.110   3.808  1.7989  0.1881  0.0410
14410TIP3    H264646   5.746   2.068   3.953 -3.5182  0.6239 -0.0181
14411TIP3   OH264647   3.612   5.656  15.886 -0.9848 -0.0416 -0.1846
14411TIP3    H164648   3.651   5.683  15.803 -0.7103 -0.7781 -0.3063
14411TIP3    H264649   3.637   5.725  15.948  2.2096 -1.4043  0.1905
14412TIP3   OH264650   1.540   2.597  12.349 -0.0777  0.1215 -0.7245
14412TIP3    H164651   1.516   2.683  12.383  0.9479  0.3380 -0.5250
14412TIP3    H264652   1.474   2.537  12.384 -0.8053  0.8290 -0.8807
14413TIP3   OH264653   3.869   4.897  16.058 -0.2437 -0.3833  0.7023
14413TIP3    H164654   3.962   4.882  16.043 -0.0871 -0.1109  1.3961
14413TIP3    H264655   3.864   4.984  16.096 -0.9314  0.2682 -0.8499
14414TIP3   OH264656   1.082   3.234   2.648 -0.5957 -0.2945  0.4807
14414TIP3    H164657   1.072   3.182   2.728 -1.3818  0.8518  1.1326
14414TIP3    H264658   1.153   3.296   2.668 -1.6386  0.8258  0.7385
14415TIP3   OH264659   6.678   4.379  12.222 -0.1720 -0.3634 -0.0094
14415TIP3    H164660   6.760   4.348  12.184  0.6420  2.6500 -0.9019
14415TIP3    H264661   6.696   4.389  12.315 -0.3407 -2.1928  0.2206
14416TIP3   OH264662   4.878   2.407  12.658  0.1305  0.2269 -0.1449
14416TIP3    H164663   4.876   2.466  12.734 -0.6048 -0.1983  0.1678
14416TIP3    H264664   4.955   2.435  12.609  0.0411  1.1679  0.2306
14417TIP3   OH264665   0.477   0.321  15.842  0.0809 -0.5424 -0.0509
14417TIP3    H164666   0.515   0.237  15.816  1.4334  0.0045  0.0915
14417TIP3    H264667   0.434   0.353  15.763  2.1380  0.0041 -1.0035
14418TIP3   OH264668   6.135   6.495   4.089 -0.1594 -0.5675  0.2116
14418TIP3    H164669   6.052   6.454   4.066 -0.4042  0.6708 -1.1494
14418TIP3    H264670   6.114   6.554   4.161 -0.3548 -0.6509  0.2230
14419TIP3   OH264671   4.504   3.634   4.329  0.3631  0.3618  0.3229
14419TIP3    H164672   4.513   3.580   4.251 -0.6993 -0.0874  0.5100
14419TIP3    H264673   4.502   3.724   4.297  0.4801  0.2040 -0.1202
14420TIP3   OH264674   0.117   3.167   3.921 -0.3918 -0.4211 -0.1799
14420TIP3    H164675   0.131   3.159   3.826  0.0729 -1.6492 -0.0147
14420TIP3    H264676   0.022   3.178   3.929 -0.2471  1.5282 -0.8939
14421TIP3   OH264677   4.801   0.594   1.735 -0.0712 -0.2412 -0.5404
14421TIP3    H164678   4.787   0.503   1.760  1.0531 -0.3151 -0.1520
14421TIP3    H264679   4.748   0.645   1.797 -0.6522 -0.6203 -0.7227
14422TIP3   OH264680   4.182   3.473  10.774  0.1010  0.1288  0.3906
14422TIP3    H164681   4.181   3.568  10.781  1.3276  0.2167 -0.6085
14422TIP3    H264682   4.090   3.449  10.767 -0.1376  1.3721 -1.0304
14423TIP3   OH264683   5.474   0.854  17.097 -0.5741  0.0860  0.0828
14423TIP3    H164684   5.506   0.830  17.011 -0.3973  0.0962  0.1452
14423TIP3    H264685   5.496   0.947  17.107  0.3369 -0.1792  0.5581
14424TIP3   OH264686   2.295   4.383   1.161  0.7192 -0.5884  0.1389
14424TIP3    H164687   2.319   4.418   1.076 -0.1979  0.1990  0.1920
14424TIP3    H264688   2.199   4.382   1.160  0.7128 -1.2711  0.8805
14425TIP3   OH264689   5.809   5.084  13.106  0.1442  0.9004 -0.0760
14425TIP3    H164690   5.730   5.138  13.104 -1.2536 -1.0732 -1.1615
14425TIP3    H264691   5.790   5.017  13.171  0.9957  0.5140 -0.2190
14426TIP3   OH264692   4.108   6.053  14.080 -0.1171  0.2465 -0.3155
14426TIP3    H164693   4.035   6.066  14.141  0.4242  2.2035 -0.0403
14426TIP3    H264694   4.066   6.045  13.994 -0.7889 -0.9297  0.1164
14427TIP3   OH264695   4.019   0.035   5.282  0.1233  0.2982  0.1892
14427TIP3    H164696   3.951   0.046   5.216  0.0032  1.3086  0.4690
14427TIP3    H264697   3.974   0.050   5.365  0.5255  0.2265  0.4195
14428TIP3   OH264698   6.552   1.938  11.319 -0.6029  0.1045 -0.2004
14428TIP3    H164699   6.466   1.953  11.280 -0.9653 -2.3307 -0.3794
14428TIP3    H264700   6.569   2.018  11.369 -1.9050  1.5895 -2.0769
14429TIP3   OH264701   1.339   1.047  17.114 -0.2132  0.2060 -0.0065
14429TIP3    H164702   1.434   1.057  17.114 -0.0149 -1.4112  1.5161
14429TIP3    H264703   1.306   1.131  17.145  0.7745  0.3820  0.6012
14430TIP3   OH264704   3.895   6.289  11.457  0.4414  0.5922  0.5647
14430TIP3    H164705   3.971   6.234  11.475 -0.2731 -1.2762 -1.7468
14430TIP3    H264706   3.932   6.375  11.437  2.1605 -0.7447 -2.3471
14431TIP3   OH264707   1.416   3.618  11.679 -0.0011 -0.3132  0.5320
14431TIP3    H164708   1.473   3.660  11.615  0.7618  1.1372  2.1187
14431TIP3    H264709   1.329   3.652  11.660  0.0459 -0.7302 -0.4233
14432TIP3   OH264710   3.424   2.836  14.356 -0.1410 -0.6043  0.2329
14432TIP3    H164711   3.492   2.874  14.301  0.5771 -0.5389  1.1393
14432TIP3    H264712   3.415   2.898  14.429 -0.9682 -0.7557  0.2683
14433TIP3   OH264713   3.495   5.718  13.652 -0.1779  0.0452 -0.3825
14433TIP3    H164714   3.448   5.800  13.642 -1.0394 -0.5967 -1.7492
14433TIP3    H264715   3.549   5.730  13.731  0.9634  2.5000 -1.4948
14434TIP3   OH264716   5.157   3.182   4.899 -0.3674  0.6351 -0.2448
14434TIP3    H164717   5.167   3.232   4.980  3.4827  1.8205 -1.2964
14434TIP3    H264718   5.126   3.246   4.835 -1.8591  0.0836 -0.0765
14435TIP3   OH264719   3.639   5.924  13.127 -0.4393 -0.0518  0.2038
14435TIP3    H164720   3.588   5.990  13.174 -0.6779  0.6389 -1.0119
14435TIP3    H264721   3.592   5.910  13.045  1.2727  0.5417 -0.9029
14436TIP3   OH264722   3.278   5.609  16.153  0.4788  0.5295  0.4953
14436TIP3    H164723   3.195   5.641  16.189 -0.4391  0.3670 -1.3941
14436TIP3    H264724   3.281   5.645  16.065  1.3636 -1.2592 -0.2362
14437TIP3   OH264725   6.031   1.175   5.028 -0.8295 -0.2945  0.3782
14437TIP3    H164726   6.085   1.251   5.005  0.2504 -0.8064  1.1491
14437TIP3    H264727   6.019   1.128   4.945 -2.7710  1.4945 -0.3755
14438TIP3   OH264728   3.162   0.361   1.474  0.7761 -0.4812 -0.3722
14438TIP3    H164729   3.087   0.302   1.474  1.5762 -1.5144 -0.5676
14438TIP3    H264730   3.214   0.335   1.551 -0.1593  1.6651  1.0426
14439TIP3   OH264731   5.152   1.261   5.928 -0.2383 -0.1861 -0.1524
14439TIP3    H164732   5.244   1.261   5.903  0.0497 -1.2183  0.8677
14439TIP3    H264733   5.113   1.190   5.878 -0.3561 -0.1439 -0.1225
14440TIP3   OH264734   1.651   0.623   5.729  0.1813 -0.2582 -0.0091
14440TIP3    H164735   1.669   0.610   5.636 -1.3236  1.1146 -0.5021
14440TIP3    H264736   1.592   0.552   5.752  0.4117 -0.4934 -0.1366
14441TIP3   OH264737   4.969   5.979  16.487 -0.3100  0.1930 -0.1099
14441TIP3    H164738   4.885   6.018  16.509 -0.8191 -0.0391 -1.6253
14441TIP3    H264739   5.001   5.941  16.570 -2.4007 -1.0917  0.1295
14442TIP3   OH264740   6.231   3.871  11.271  0.3812  0.0161 -0.0647
14442TIP3    H164741   6.241   3.808  11.342 -1.3892  0.3068  0.4721
14442TIP3    H264742   6.154   3.922  11.295 -0.8743 -0.5405 -2.6787
14443TIP3   OH264743   4.243   1.385  15.970  0.0541  0.1446 -0.6731
14443TIP3    H164744   4.331   1.378  15.933  0.3760  0.2680  0.0550
14443TIP3    H264745   4.251   1.349  16.059 -0.4170  1.0256 -0.2674
14444TIP3   OH264746   2.864   0.239  13.997 -0.6135 -0.0249  0.1739
14444TIP3    H164747   2.952   0.233  14.033 -0.8012 -2.1776  0.2870
14444TIP3    H264748   2.873   0.295  13.920  1.1041 -1.3845 -0.6155
14445TIP3   OH264749   6.578   2.094   6.194  0.5409 -0.3745  0.3226
14445TIP3    H164750   6.584   2.127   6.104 -1.6567  2.2668  1.0760
14445TIP3    H264751   6.601   2.002   6.187  2.7997  0.3223 -2.5667
14446TIP3   OH264752   1.660   1.225  12.116 -0.2180 -0.2359  0.0728
14446TIP3    H164753   1.590   1.290  12.114 -1.5391 -1.6375 -1.2629
14446TIP3    H264754   1.659   1.191  12.206 -1.0112  0.0340  0.1712
14447TIP3   OH264755   0.502   4.553  12.355 -0.1242 -0.1307  0.6671
14447TIP3    H164756   0.495   4.511  12.269 -0.2237  0.4389  0.3978
14447TIP3    H264757   0.479   4.644  12.339 -1.0689 -0.2138  1.4672
14448TIP3   OH264758   5.844   5.167   3.963 -0.1364 -0.0869 -0.2173
14448TIP3    H164759   5.812   5.089   4.007 -0.2850 -0.8844 -1.6998
14448TIP3    H264760   5.919   5.137   3.912  1.4220  1.2534  1.2026
14449TIP3   OH264761   0.354   3.571   2.214  0.4352 -0.4025 -0.4964
14449TIP3    H164762   0.439   3.615   2.224  0.2876 -0.6777  2.4626
14449TIP3    H264763   0.362   3.493   2.269 -1.1875 -1.2753 -1.4797
14450TIP3   OH264764   2.424   3.658  14.935  0.1139 -0.1127  0.0737
14450TIP3    H164765   2.407   3.736  14.988 -1.3711 -0.7469  0.5530
14450TIP3    H264766   2.519   3.656  14.924  0.1600  1.7420  0.0881
14451TIP3   OH264767   0.678   2.317   2.065 -0.0144  0.0849  0.1636
14451TIP3    H164768   0.749   2.253   2.062  0.3483  0.4649  0.6787
14451TIP3    H264769   0.717   2.398   2.033 -0.6108 -0.0745 -0.9861
14452TIP3   OH264770   1.985   4.993   4.030  0.2398  0.3223  0.5860
14452TIP3    H164771   1.891   5.001   4.046  0.4277  0.6071  1.5907
14452TIP3    H264772   1.998   4.900   4.011 -0.7897  0.9116 -3.3708
14453TIP3   OH264773   3.444   2.230  16.777  0.6466 -0.2073  0.2516
14453TIP3    H164774   3.460   2.143  16.814  0.8912 -0.7358 -1.0701
14453TIP3    H264775   3.518   2.283  16.808  0.4202 -0.4268  1.1815
14454TIP3   OH264776   6.648   3.768  15.341 -0.3541 -0.0997  0.2918
14454TIP3    H164777   6.605   3.793  15.259  0.9275  1.2668  0.0299
14454TIP3    H264778   6.587   3.706  15.382 -0.7146 -1.3236 -1.9945
14455TIP3   OH264779   6.509   4.104  11.557  0.3119 -0.1462 -0.2265
14455TIP3    H164780   6.602   4.105  11.581  0.8633  1.1741 -2.2961
14455TIP3    H264781   6.502   4.165  11.483 -2.0610 -0.8580 -0.6496
14456TIP3   OH264782   2.758   5.991  11.115 -0.4407  0.4086  0.0898
14456TIP3    H164783   2.684   5.967  11.059  0.2023 -0.8041 -0.2618
14456TIP3    H264784   2.758   5.926  11.185  0.1893  0.4974  0.1801
14457TIP3   OH264785   1.652   0.205  15.778  0.1211 -0.1729 -0.1170
14457TIP3    H164786   1.737   0.186  15.740 -0.2756 -1.6521 -0.2665
14457TIP3    H264787   1.672   0.248  15.862  1.0232 -1.3629  0.2826
14458TIP3   OH264788   6.323   0.422   0.646 -0.0617 -0.0485  0.0685
14458TIP3    H164789   6.306   0.398   0.555  1.1797 -1.1877  0.1181
14458TIP3    H264790   6.240   0.455   0.679 -0.8781 -0.9452 -1.0808
14459TIP3   OH264791   0.243   2.518   1.013 -0.0924 -0.3080  0.5055
14459TIP3    H164792   0.195   2.436   1.011  2.1153 -1.6327  0.3535
14459TIP3    H264793   0.175   2.586   1.012 -1.9472 -2.1129  1.0779
14460TIP3   OH264794   3.409   1.269   4.113 -0.1035 -0.3260  0.5954
14460TIP3    H164795   3.326   1.267   4.162  0.9097  0.7305  2.4016
14460TIP3    H264796   3.409   1.188   4.063 -2.9286  0.3431 -0.5928
14461TIP3   OH264797   4.063   1.917  15.861 -0.8562  0.1371 -0.9894
14461TIP3    H164798   3.989   1.958  15.817 -0.3024  0.1908 -1.8676
14461TIP3    H264799   4.121   1.889  15.791 -0.0571  0.0603 -0.3093
14462TIP3   OH264800   3.704   4.858  15.004  0.2553  0.1685 -0.0685
14462TIP3    H164801   3.699   4.819  15.092  0.2377  0.0501 -0.1207
14462TIP3    H264802   3.778   4.919  15.009  1.6431 -1.4120 -0.5834
14463TIP3   OH264803   2.091   0.081  13.892 -0.0344 -0.3856 -0.0582
14463TIP3    H164804   2.041   0.109  13.968  0.3841 -0.1438  0.1296
14463TIP3    H264805   2.076  -0.013  13.887  1.0976 -0.6449  1.1844
14464TIP3   OH264806   6.684   5.977  12.587 -0.2433  0.0645  0.5098
14464TIP3    H164807   6.750   5.908  12.582 -0.9487 -0.5322 -0.8212
14464TIP3    H264808   6.678   5.998  12.680  0.0738 -1.5726  0.9111
14465TIP3   OH264809   6.168   2.411   4.112  0.3565  0.2789 -0.2770
14465TIP3    H164810   6.189   2.448   4.026 -0.4100 -0.0655 -0.6144
14465TIP3    H264811   6.073   2.402   4.112  0.5362 -1.9902 -0.3243
14466TIP3   OH264812   5.177   6.477  16.652  0.1969 -0.0972  0.1619
14466TIP3    H164813   5.101   6.528  16.679 -0.9157 -2.5612  1.8153
14466TIP3    H264814   5.163   6.461  16.559 -1.9635 -1.5645  0.7068
14467TIP3   OH264815   5.732   1.239   1.013 -0.0909  0.0863  0.3066
14467TIP3    H164816   5.768   1.207   0.930 -1.0284  0.4690 -0.2487
14467TIP3    H264817   5.809   1.264   1.064  0.5735 -1.5535  0.1371
14468TIP3   OH264818   2.033   1.643  14.123 -0.2513  0.3986  0.0929
14468TIP3    H164819   2.053   1.659  14.216 -1.5486 -1.1093  0.6587
14468TIP3    H264820   2.036   1.729  14.083  1.9921  0.8757  1.2031
14469TIP3   OH264821   4.947   5.751   0.740 -1.0234 -1.0046 -0.3174
14469TIP3    H164822   4.895   5.720   0.814 -1.7220 -2.1327 -1.2569
14469TIP3    H264823   4.918   5.842   0.727  0.7575 -0.0296  2.2036
14470TIP3   OH264824   6.111   5.840  12.646 -0.6406 -0.2058 -0.1982
14470TIP3    H164825   6.069   5.873  12.726  0.5524 -1.7248  1.0863
14470TIP3    H264826   6.194   5.888  12.642 -0.7864  0.0095 -0.6288
14471TIP3   OH264827   0.994   0.477   1.105 -0.0402  0.6099 -0.1432
14471TIP3    H164828   0.957   0.438   1.026  1.4134  0.7443 -0.9153
14471TIP3    H264829   0.980   0.411   1.173  0.2619 -0.2507 -0.9088
14472TIP3   OH264830   5.766   2.507  15.934 -0.2748  0.0223  0.7327
14472TIP3    H164831   5.687   2.482  15.886 -1.2453  1.0145  1.7919
14472TIP3    H264832   5.787   2.595  15.902 -0.2547  0.2184  1.2837
14473TIP3   OH264833   3.472   3.129   3.314  1.0432  0.2243 -0.7510
14473TIP3    H164834   3.448   3.130   3.407  0.3636 -0.8521 -0.9037
14473TIP3    H264835   3.429   3.206   3.277  0.9822  0.4305 -0.2577
14474TIP3   OH264836   2.593   4.398   4.398 -0.0831 -0.0839  0.5702
14474TIP3    H164837   2.576   4.377   4.306  0.1026  0.0270  0.5100
14474TIP3    H264838   2.681   4.363   4.415  1.0178  2.2240 -0.0498
14475TIP3   OH264839   5.474   0.952  11.840  0.4462  0.0754 -0.4723
14475TIP3    H164840   5.438   0.874  11.798 -1.9003  0.5729  0.5626
14475TIP3    H264841   5.423   0.961  11.921  2.1751  1.4388  0.4942
14476TIP3   OH264842   4.070   2.619  11.732 -0.3950 -0.2376 -0.1123
14476TIP3    H164843   4.003   2.556  11.707 -1.4433  1.1933 -1.0076
14476TIP3    H264844   4.112   2.644  11.650 -0.1688  0.4353  0.2039
14477TIP3   OH264845   1.854   3.607  14.884  0.0219 -0.1122  0.1850
14477TIP3    H164846   1.854   3.512  14.893  0.7112 -0.0009  1.4645
14477TIP3    H264847   1.880   3.623  14.793 -0.5149 -1.1467 -0.1575
14478TIP3   OH264848   2.068   1.840  11.134 -0.4198  0.5280  0.2980
14478TIP3    H164849   1.979   1.837  11.097 -0.5806  2.3690  0.4955
14478TIP3    H264850   2.124   1.866  11.061  0.0733 -1.2819  0.0101
14479TIP3   OH264851   3.815   2.355  13.456 -0.0105 -0.0663  0.0243
14479TIP3    H164852   3.811   2.279  13.515 -1.0590  0.4484  0.6260
14479TIP3    H264853   3.822   2.317  13.369 -0.0730 -0.8613  0.3601
14480TIP3   OH264854   1.854   0.172  14.283  0.3707  1.1533  0.5443
14480TIP3    H164855   1.948   0.155  14.289  0.1274 -0.2913  0.2602
14480TIP3    H264856   1.844   0.225  14.204  0.7232 -0.2609 -0.4509
14481TIP3   OH264857   0.339   2.022  12.638 -0.7325 -0.5304  0.2015
14481TIP3    H164858   0.359   2.032  12.545  0.9961  0.2320  0.6285
14481TIP3    H264859   0.269   2.085  12.655 -0.2947  0.1118 -0.3535
14482TIP3   OH264860   5.091   2.068   2.353 -0.3637  0.1356  0.3505
14482TIP3    H164861   4.999   2.081   2.373  0.1629  2.0128  1.6621
14482TIP3    H264862   5.104   1.973   2.357 -1.9848 -0.0540  1.2122
14483TIP3   OH264863   4.794   2.334  15.872 -0.1100 -0.0578  0.6420
14483TIP3    H164864   4.826   2.243  15.873  0.8516  0.2958  1.9731
14483TIP3    H264865   4.855   2.380  15.815 -0.2774 -0.1297  0.4052
14484TIP3   OH264866   2.446   3.193   2.545 -0.6862  0.1767 -0.0898
14484TIP3    H164867   2.500   3.241   2.483 -1.0826  0.3566 -0.2993
14484TIP3    H264868   2.464   3.233   2.630  2.2213 -2.0714  0.4469
14485TIP3   OH264869   4.043   5.021  14.456  0.3977  0.0246  0.1633
14485TIP3    H164870   4.027   5.107  14.417  0.2614 -0.3008 -0.5139
14485TIP3    H264871   4.128   4.995  14.420  0.1292 -0.4131 -0.1662
14486TIP3   OH264872   2.770   1.972   1.276 -0.0956 -0.0771 -0.4421
14486TIP3    H164873   2.848   1.953   1.327  0.7325  1.0224 -1.2774
14486TIP3    H264874   2.770   2.068   1.267 -0.6725 -0.1864 -1.7783
14487TIP3   OH264875   4.713   6.355   5.655 -0.2237  0.3020 -0.6980
14487TIP3    H164876   4.758   6.342   5.738  0.1046 -0.2133 -0.9520
14487TIP3    H264877   4.622   6.332   5.673 -0.0274 -0.4474 -0.6439
14488TIP3   OH264878   0.231   2.727  15.296  0.5180 -0.1780 -0.2965
14488TIP3    H164879   0.161   2.671  15.330  1.3584 -0.4670  0.9878
14488TIP3    H264880   0.286   2.668  15.244  0.5807 -0.2442 -0.1567
14489TIP3   OH264881   6.604   2.888  13.049  0.3266  0.1163 -0.1118
14489TIP3    H164882   6.647   2.876  12.964  2.4433  1.1669  0.7654
14489TIP3    H264883   6.602   2.800  13.087 -0.2387 -0.2882 -1.0663
14490TIP3   OH264884   4.309   0.637   6.477 -0.5348  0.2329  0.3542
14490TIP3    H164885   4.256   0.686   6.540  0.4860  0.1182  1.3256
14490TIP3    H264886   4.359   0.576   6.531  1.8196  1.4585 -0.3760
14491TIP3   OH264887   3.584   1.244  12.121  0.5148 -0.1610 -0.1369
14491TIP3    H164888   3.517   1.311  12.131  0.2917 -0.2847 -0.7564
14491TIP3    H264889   3.584   1.223  12.027 -0.0111 -1.6350  0.1679
14492TIP3   OH264890   2.674   4.336  11.948  0.1041 -0.0382  0.2264
14492TIP3    H164891   2.622   4.296  12.017 -1.2241  2.0270  0.4745
14492TIP3    H264892   2.763   4.303  11.963 -0.2530  0.0059  2.6382
14493TIP3   OH264893   6.382   1.311   4.592  0.4524  0.5791  0.0523
14493TIP3    H164894   6.436   1.266   4.657 -1.1885  0.0354  1.0881
14493TIP3    H264895   6.389   1.257   4.513  0.1779 -0.3406  0.6495
14494TIP3   OH264896   2.164   5.051  16.787  0.2582 -0.1726  0.3630
14494TIP3    H164897   2.107   5.030  16.861 -0.0241 -0.9412 -0.0620
14494TIP3    H264898   2.104   5.066  16.714  0.5042  1.1375  0.4066
14495TIP3   OH264899   6.540   2.896   6.106  0.3684  0.0222  0.0688
14495TIP3    H164900   6.597   2.973   6.099 -2.5083  2.1624 -1.0014
14495TIP3    H264901   6.471   2.924   6.166 -1.6466 -1.0800 -1.6669
14496TIP3   OH264902   1.808   3.319   2.185  0.1606  0.6831 -0.0688
14496TIP3    H164903   1.831   3.332   2.093  0.0817  0.9704 -0.0485
14496TIP3    H264904   1.720   3.282   2.183  0.9530 -1.2667 -0.1781
14497TIP3   OH264905   2.047   4.313   6.302 -0.2120 -0.6308 -0.3218
14497TIP3    H164906   2.089   4.243   6.353  0.5579  0.4473  0.5421
14497TIP3    H264907   1.973   4.269   6.259  0.1184 -1.9327  0.3860
14498TIP3   OH264908   6.302   1.315   2.390 -0.6317  0.7607  0.1477
14498TIP3    H164909   6.342   1.257   2.455 -0.8210 -0.1078 -0.5026
14498TIP3    H264910   6.262   1.385   2.441 -2.0709 -0.6972  1.0603
14499TIP3   OH264911   6.755   4.751  16.140 -0.0369 -0.0913  0.3411
14499TIP3    H164912   6.741   4.685  16.208 -1.1176  1.0001  1.1977
14499TIP3    H264913   6.711   4.715  16.062 -0.4774 -0.4605  0.7554
14500TIP3   OH264914   1.226   1.601   0.491 -0.6351 -0.6023  0.1518
14500TIP3    H164915   1.284   1.583   0.417 -0.2741 -0.7971  0.4815
14500TIP3    H264916   1.211   1.516   0.531 -1.3530 -0.5916 -0.0776
14501TIP3   OH264917   1.107   4.754  13.635  0.0981 -0.2624  0.1012
14501TIP3    H164918   1.110   4.679  13.575  0.4630 -0.6678  0.6166
14501TIP3    H264919   1.031   4.736  13.691 -0.1708  0.0555 -0.1588
14502TIP3   OH264920   5.210   0.140  10.808  0.2387 -0.8684  0.1079
14502TIP3    H164921   5.296   0.159  10.771  0.1554 -0.2831  0.2216
14502TIP3    H264922   5.166   0.225  10.814  0.2112 -0.9589  1.4628
14503TIP3   OH264923   3.610   4.192   0.925  0.1485 -0.2704  0.1290
14503TIP3    H164924   3.671   4.220   0.993  0.4762 -0.2493 -0.1752
14503TIP3    H264925   3.598   4.268   0.869  2.3603 -1.2109 -1.6850
14504TIP3   OH264926   1.979   2.755  12.508  0.1844 -0.0943 -0.0838
14504TIP3    H164927   1.947   2.681  12.456 -1.6024  1.5431 -1.3591
14504TIP3    H264928   1.993   2.825  12.445  0.2772  1.1797  1.3161
14505TIP3   OH264929   3.788   4.876   4.688 -0.0633 -0.1962  0.0068
14505TIP3    H164930   3.729   4.827   4.630  0.2688 -1.4433  0.6954
14505TIP3    H264931   3.872   4.876   4.643 -0.9199  2.9319 -1.7141
14506TIP3   OH264932   3.056   2.709   2.219  0.8231 -0.0395 -0.3079
14506TIP3    H164933   3.007   2.788   2.242  0.6544 -0.2404  0.0248
14506TIP3    H264934   3.141   2.742   2.191  0.5257  0.3045 -0.8139
14507TIP3   OH264935   1.793   6.116   4.452  0.3911  0.0485  0.3540
14507TIP3    H164936   1.848   6.142   4.379  0.8649 -1.6431  0.0874
14507TIP3    H264937   1.785   6.195   4.505  0.7928  1.0437 -1.0388
14508TIP3   OH264938   3.141   1.093  11.125 -0.2845 -0.0420 -0.7020
14508TIP3    H164939   3.104   1.137  11.201  0.5356  0.9894 -0.8847
14508TIP3    H264940   3.066   1.058  11.078 -0.9539  1.1784 -0.5528
14509TIP3   OH264941   1.415   2.486   3.799 -0.0532 -0.0519  0.0431
14509TIP3    H164942   1.419   2.445   3.886 -1.3766 -0.4456 -0.0640
14509TIP3    H264943   1.502   2.524   3.786  0.7541 -1.6195  0.7404
14510TIP3   OH264944   1.365   5.575  11.839 -0.6444 -0.1946  0.5375
14510TIP3    H164945   1.350   5.530  11.756  0.2903 -3.3673  1.9798
14510TIP3    H264946   1.458   5.563  11.857 -1.6115 -3.7922  4.2132
14511TIP3   OH264947   6.069   0.429   1.378 -0.0018 -0.4522  0.0002
14511TIP3    H164948   6.108   0.438   1.465 -1.0218 -0.5196  0.4694
14511TIP3    H264949   6.085   0.514   1.336  1.0828 -0.6481 -0.0017
14512TIP3   OH264950   4.191   3.935   0.107  0.2888  0.2710 -0.0210
14512TIP3    H164951   4.254   3.969   0.043 -0.2987 -0.7638 -1.1633
14512TIP3    H264952   4.108   3.978   0.084 -0.0939 -0.6849 -0.4635
14513TIP3   OH264953   3.827   0.685   0.692 -0.6353 -0.0247  0.5775
14513TIP3    H164954   3.881   0.726   0.625  0.8139 -1.7069  0.6829
14513TIP3    H264955   3.838   0.591   0.678 -1.9009 -0.3965  1.9182
14514TIP3   OH264956   1.692   2.909  11.086 -0.2601  0.3294  0.6803
14514TIP3    H164957   1.782   2.892  11.113  0.1725  1.7012  0.1227
14514TIP3    H264958   1.699   2.961  11.006 -1.5472 -0.9600 -0.3034
14515TIP3   OH264959   4.747   6.480  12.305  0.0382  0.5197 -0.2905
14515TIP3    H164960   4.697   6.550  12.347  1.6041  2.0371 -0.8426
14515TIP3    H264961   4.774   6.517  12.221 -0.0282 -1.1610 -1.0737
14516TIP3   OH264962   5.059   1.189  16.701 -0.2112 -0.0118  0.0831
14516TIP3    H164963   5.002   1.248  16.750  0.6926 -0.1880  1.3909
14516TIP3    H264964   5.147   1.213  16.729  0.2469 -0.9638 -0.5228
14517TIP3   OH264965   1.802   1.781   3.735 -0.0184 -0.0091 -0.1582
14517TIP3    H164966   1.872   1.791   3.670  0.3751  0.0927  0.2733
14517TIP3    H264967   1.845   1.802   3.818 -0.3117 -0.9359  0.2325
14518TIP3   OH264968   0.478   1.833  15.752 -0.4725 -0.3122 -0.2138
14518TIP3    H164969   0.542   1.895  15.789 -1.0662  0.5292 -0.5766
14518TIP3    H264970   0.395   1.858  15.792 -0.3676 -2.3154  1.3635
14519TIP3   OH264971   5.258   3.474   3.418 -0.1040  0.2108 -0.5380
14519TIP3    H164972   5.332   3.529   3.441  0.2799 -1.0858  1.4854
14519TIP3    H264973   5.292   3.413   3.352  0.6239 -0.3278  0.3268
14520TIP3   OH264974   4.654   2.459  17.128 -0.0165 -0.3924 -0.1446
14520TIP3    H164975   4.732   2.515  17.126 -0.5855  0.4048 -0.0773
14520TIP3    H264976   4.654   2.415  17.043  1.9787 -2.4315  0.8536
14521TIP3   OH264977   0.204   1.131  13.407 -0.3224 -0.6268  0.2689
14521TIP3    H164978   0.141   1.059  13.401  0.5327 -1.2002 -2.3075
14521TIP3    H264979   0.156   1.201  13.453 -2.6725 -1.2208 -1.2172
14522TIP3   OH264980   1.956   5.422   1.589  0.0244  0.7963  0.5591
14522TIP3    H164981   2.017   5.496   1.588  1.9922 -0.7850  0.3962
14522TIP3    H264982   1.958   5.390   1.679 -0.9622  1.0285  0.6739
14523TIP3   OH264983   2.893   2.832  15.915 -0.4498  0.1559  0.6118
14523TIP3    H164984   2.854   2.758  15.867  2.2213 -0.4479 -0.7241
14523TIP3    H264985   2.940   2.791  15.987  0.6792  0.5506  0.1168
14524TIP3   OH264986   3.917   4.791   5.838 -0.2250  0.4231 -0.3042
14524TIP3    H164987   3.844   4.734   5.860 -0.4142  0.9124  0.3602
14524TIP3    H264988   3.965   4.803   5.920  0.2103  0.6562 -0.5853
14525TIP3   OH264989   3.117   0.185  14.787 -0.8308 -0.2641 -0.5659
14525TIP3    H164990   3.035   0.227  14.812 -0.9961 -1.6965  1.3843
14525TIP3    H264991   3.091   0.101  14.749 -0.3026 -0.3045 -0.8493
14526TIP3   OH264992   4.774   4.507  10.629  0.0296 -0.7971  0.1459
14526TIP3    H164993   4.695   4.560  10.630  0.4084 -0.2026  3.0929
14526TIP3    H264994   4.832   4.550  10.567 -1.4685 -0.5444 -1.1062
14527TIP3   OH264995   5.434   6.540  15.784  0.1035 -0.0074  0.0193
14527TIP3    H164996   5.370   6.605  15.757  0.3275  0.3443  0.3350
14527TIP3    H264997   5.513   6.590  15.803  1.6772 -0.7630 -3.9970
14528TIP3   OH264998   2.286   5.037  13.665  0.4070  0.6287  0.0670
14528TIP3    H164999   2.244   4.994  13.591  2.4482 -1.1856 -0.0727
14528TIP3    H265000   2.217   5.045  13.731 -0.6887 -0.3810 -0.9423
14529TIP3   OH265001   2.776   3.908   3.793  0.1398 -0.1404  0.0173
14529TIP3    H165002   2.843   3.840   3.796 -1.4706 -1.7558  0.3223
14529TIP3    H265003   2.781   3.943   3.704 -0.3540 -2.0841 -0.8152
14530TIP3   OH265004   6.559   3.252   4.787 -0.2998  0.1502 -0.1552
14530TIP3    H165005   6.636   3.267   4.841 -1.7133 -0.8748  2.1960
14530TIP3    H265006   6.594   3.214   4.706  2.0306  3.5402 -0.8628
14531TIP3   OH265007   1.829   3.582   2.052 -0.4136 -0.5866  0.3573
14531TIP3    H165008   1.915   3.567   2.012 -0.1248  1.7558  0.0480
14531TIP3    H265009   1.769   3.594   1.978 -0.1480  2.2754  0.5454
14532TIP3   OH265010   1.744   0.989   3.530 -0.1349 -0.2378 -0.0749
14532TIP3    H165011   1.824   1.012   3.577  0.5610 -0.3529 -1.1768
14532TIP3    H265012   1.721   0.902   3.562  1.3624 -1.0940 -1.2856
14533TIP3   OH265013   5.850   6.560  11.555 -0.2064  0.4309 -0.0803
14533TIP3    H165014   5.817   6.580  11.467 -0.6453  0.7411  0.1564
14533TIP3    H265015   5.911   6.630  11.574 -0.2981  0.4976 -0.0351
14534TIP3   OH265016   0.903   5.606  13.842  0.1405 -0.1595  0.5067
14534TIP3    H165017   0.845   5.564  13.779  0.5808 -0.1254  0.0777
14534TIP3    H265018   0.990   5.599  13.803  0.2437  0.9962  0.5150
14535TIP3   OH265019   0.668   2.030   1.913 -0.2839  0.5609  0.0731
14535TIP3    H165020   0.587   2.078   1.930  0.0084  1.9423 -2.1816
14535TIP3    H265021   0.643   1.938   1.915 -1.4159  0.8851  1.7202
14536TIP3   OH265022   2.762   5.554   3.284  0.2471 -0.1484  0.5662
14536TIP3    H165023   2.747   5.535   3.377  0.6553 -0.3018  0.5998
14536TIP3    H265024   2.831   5.620   3.284 -0.8599  1.0344  0.4291
14537TIP3   OH265025   2.918   1.620  13.106 -0.1025 -0.6661  0.5964
14537TIP3    H165026   2.973   1.698  13.113  3.1346 -2.9820  1.9678
14537TIP3    H265027   2.878   1.627  13.019 -0.0793  2.5844  0.7895
14538TIP3   OH265028   5.532   0.084   4.419  0.2892 -0.1030  0.4585
14538TIP3    H165029   5.573   0.113   4.501 -0.2197  0.9389  0.3480
14538TIP3    H265030   5.535   0.160   4.362 -2.2190  0.1459  0.5951
14539TIP3   OH265031   2.661   4.190  13.453  0.1322 -0.2719 -0.1598
14539TIP3    H165032   2.680   4.162  13.542 -0.8724 -1.1978 -0.2286
14539TIP3    H265033   2.570   4.167  13.439  0.6837 -1.4846 -1.9371
14540TIP3   OH265034   1.570   6.095  12.685 -0.3367  0.1849 -0.1297
14540TIP3    H165035   1.630   6.169  12.678 -1.6425  1.3439  0.5860
14540TIP3    H265036   1.617   6.021  12.646  1.8292  0.8976  1.0703
14541TIP3   OH265037   4.769   0.729   2.075 -0.0382  0.0712  0.3019
14541TIP3    H165038   4.694   0.683   2.036 -1.2813  1.0122  1.4945
14541TIP3    H265039   4.827   0.660   2.106 -0.0249 -0.6768 -1.3396
14542TIP3   OH265040   1.448   4.406  11.449  0.1576  0.2261  0.0479
14542TIP3    H165041   1.365   4.445  11.475 -0.7563 -0.4670 -1.7146
14542TIP3    H265042   1.439   4.392  11.354  1.4407 -1.8388  0.1939
14543TIP3   OH265043   4.277   6.290  14.736 -0.1415  0.0033 -0.6978
14543TIP3    H165044   4.211   6.222  14.749 -0.6922  0.7997  0.7805
14543TIP3    H265045   4.356   6.242  14.712 -0.6944 -1.1200 -0.3160
14544TIP3   OH265046   2.859   3.503   2.545  0.5584  0.5753  0.6862
14544TIP3    H165047   2.832   3.468   2.630 -1.3607  0.0047 -0.1127
14544TIP3    H265048   2.933   3.449   2.519  0.7915  0.3781  1.7266
14545TIP3   OH265049   3.945   3.974   1.409  0.5215  0.3923 -0.7457
14545TIP3    H165050   3.967   4.019   1.490 -0.0621 -0.8015  0.0962
14545TIP3    H265051   3.951   3.881   1.431 -1.8295  0.0472 -1.4776
14546TIP3   OH265052   5.464   1.406  15.363 -0.3017  0.5863 -0.0788
14546TIP3    H165053   5.498   1.482  15.409 -0.5569  0.7722 -0.1979
14546TIP3    H265054   5.460   1.432  15.271  0.7704  0.0171 -0.3016
14547TIP3   OH265055   1.109   5.634  12.943 -0.5190  0.3285  0.2659
14547TIP3    H165056   1.087   5.676  13.027 -0.3442  1.0169 -0.0313
14547TIP3    H265057   1.024   5.616  12.902 -0.5599  1.8824 -0.3371
14548TIP3   OH265058   1.268   3.119   6.305  0.3739  0.0969 -0.2031
14548TIP3    H165059   1.287   3.026   6.315  0.4203  0.0139 -0.9798
14548TIP3    H265060   1.211   3.141   6.379  1.3757 -0.2579  0.6847
14549TIP3   OH265061   3.375   4.713   3.312  0.0845 -0.6603 -0.2146
14549TIP3    H165062   3.283   4.721   3.337  0.0297  1.5325 -1.0062
14549TIP3    H265063   3.422   4.707   3.396 -0.3814  3.2125  0.3956
14550TIP3   OH265064   3.474   1.018   3.734  0.2066 -0.1299 -0.0177
14550TIP3    H165065   3.418   1.080   3.780  0.1862 -0.9467  1.0797
14550TIP3    H265066   3.563   1.044   3.759  0.2184 -0.2437  0.0599
14551TIP3   OH265067   1.850   2.989   2.030  0.1654  1.1645  0.1357
14551TIP3    H165068   1.796   3.019   2.103  0.1532  3.8106 -0.9046
14551TIP3    H265069   1.869   3.068   1.979 -0.8253 -0.7374 -3.4126
14552TIP3   OH265070   1.679   5.207   3.414 -0.1502  0.0929 -0.1523
14552TIP3    H165071   1.758   5.224   3.465  0.9993 -1.0716 -1.5277
14552TIP3    H265072   1.618   5.275   3.442  0.8799  0.2249  1.8613
14553TIP3   OH265073   2.680   0.711   0.883 -0.1255  0.1528  0.3114
14553TIP3    H165074   2.737   0.744   0.815 -1.3243 -0.7506 -1.1584
14553TIP3    H265075   2.731   0.642   0.926  0.6575  0.7880  0.4097
14554TIP3   OH265076   4.196   1.733   1.479  0.5307  0.5967  0.6111
14554TIP3    H165077   4.178   1.707   1.570  0.8819  2.3107  1.1911
14554TIP3    H265078   4.287   1.761   1.480  0.2183  1.6473 -0.0244
14555TIP3   OH265079   6.486   5.405  15.564  0.1311 -0.2149  0.0558
14555TIP3    H165080   6.493   5.461  15.641  0.4671 -1.3021  0.8177
14555TIP3    H265081   6.536   5.327  15.586  1.6153  0.1372 -1.8876
14556TIP3   OH265082   1.931   6.667  14.271 -0.1880 -0.0011 -0.1951
14556TIP3    H165083   1.910   6.575  14.251 -0.4824  0.4944 -2.1930
14556TIP3    H265084   1.846   6.707  14.290 -0.1838  0.1461 -0.4937
14557TIP3   OH265085   5.938   2.030  12.912 -0.3037  0.0625 -0.2072
14557TIP3    H165086   5.970   2.112  12.874 -0.4353  0.0231 -0.3996
14557TIP3    H265087   5.845   2.029  12.891 -0.0113 -0.8615 -1.5117
14558TIP3   OH265088   3.183   4.449   6.459  0.8057 -0.3306 -0.2805
14558TIP3    H165089   3.167   4.355   6.449  0.7560 -0.2878 -0.6084
14558TIP3    H265090   3.146   4.470   6.545  2.9761 -1.0879  0.9056
14559TIP3   OH265091   2.208   6.728  12.544  0.6834 -0.2131 -1.1350
14559TIP3    H165092   2.284   6.763  12.591 -0.8093 -1.2173  2.2449
14559TIP3    H265093   2.155   6.804  12.524  0.6898  0.1431  0.1195
14560TIP3   OH265094   4.427   2.358   3.619  0.3465 -0.0885  0.2231
14560TIP3    H165095   4.366   2.285   3.610  0.4347 -0.1958  0.4852
14560TIP3    H265096   4.485   2.332   3.691  3.2861 -1.8027 -2.6217
14561TIP3   OH265097   4.549   3.149   0.398 -0.6845 -0.0463 -0.2244
14561TIP3    H165098   4.635   3.126   0.363 -1.1665 -0.2756 -1.2733
14561TIP3    H265099   4.567   3.217   0.463  0.1085  1.3446 -1.8557
14562TIP3   OH265100   2.593   2.611  12.167  0.8324 -0.4642 -0.2156
14562TIP3    H165101   2.594   2.641  12.076  1.4606 -0.5069 -0.2233
14562TIP3    H265102   2.542   2.530  12.165 -1.8592  1.1865 -0.0024
14563TIP3   OH265103   0.947   1.908   2.254  0.0264  0.4113 -0.1663
14563TIP3    H165104   0.874   1.846   2.263  0.5908 -0.2834 -0.4153
14563TIP3    H265105   1.019   1.867   2.302  1.0221 -0.0967 -2.0602
14564TIP3   OH265106   3.694   4.973  13.622  0.3607  0.9097 -0.6601
14564TIP3    H165107   3.693   5.041  13.555  0.9477  1.9104  0.3305
14564TIP3    H265108   3.654   5.014  13.698  0.7260  0.1459 -0.0464
14565TIP3   OH265109   0.112   0.536   4.339  0.2159 -0.1450  0.7458
14565TIP3    H165110   0.120   0.526   4.244 -0.3908 -0.5849  0.7404
14565TIP3    H265111   0.113   0.630   4.354  0.4810 -0.0818  0.3162
14566TIP3   OH265112   4.953   2.919  15.611  0.1407  0.3459  0.3690
14566TIP3    H165113   5.028   2.866  15.635  0.3818  0.7687  0.5536
14566TIP3    H265114   4.945   2.909  15.517  1.3752  1.5303  0.1236
14567TIP3   OH265115   0.205   4.635  12.108  0.1263 -0.1053 -0.0689
14567TIP3    H165116   0.175   4.648  12.198 -0.4516  2.8165 -0.6449
14567TIP3    H265117   0.294   4.670  12.107 -0.5398  1.6032 -1.0598
14568TIP3   OH265118   1.027   3.411   2.252 -0.0003 -0.0792 -0.3334
14568TIP3    H165119   1.042   3.487   2.196  2.5521 -0.6428 -0.4985
14568TIP3    H265120   1.001   3.448   2.337 -0.0383  0.9170 -0.7786
14569TIP3   OH265121   2.457   4.093  13.178 -0.3360 -0.0856 -0.3770
14569TIP3    H165122   2.410   4.176  13.182 -0.7889 -0.2786 -1.4087
14569TIP3    H265123   2.413   4.037  13.242  0.8100  0.8775  1.2760
14570TIP3   OH265124   1.027   1.304   5.793  0.3584  0.2062 -0.7932
14570TIP3    H165125   0.951   1.361   5.804 -1.1009 -1.7869 -0.3476
14570TIP3    H265126   1.046   1.271   5.880  0.6072 -0.7383 -1.2020
14571TIP3   OH265127   2.719   3.749  13.746  0.7149 -0.2522 -0.3828
14571TIP3    H165128   2.708   3.783  13.835 -1.1422  0.9679 -1.0480
14571TIP3    H265129   2.647   3.687  13.735  0.3536  0.3444 -1.3770
14572TIP3   OH265130   4.671   2.746  15.450 -0.1762 -0.2079  0.0134
14572TIP3    H165131   4.724   2.669  15.428 -0.2224 -0.2268 -0.0316
14572TIP3    H265132   4.583   2.712  15.462 -0.3333 -0.0610 -0.6888
14573TIP3   OH265133   2.651   1.561  14.242  0.5993 -0.2548 -0.0651
14573TIP3    H165134   2.730   1.506  14.246  0.2033 -0.9001 -0.9984
14573TIP3    H265135   2.583   1.501  14.212  0.5490  1.1952 -2.9597
14574TIP3   OH265136   0.342   5.736  12.088 -0.3069 -0.4244 -0.4198
14574TIP3    H165137   0.332   5.641  12.098  1.0058 -0.5871 -0.5339
14574TIP3    H265138   0.265   5.763  12.039 -0.0678 -1.6258 -1.5052
14575TIP3   OH265139   4.103   4.885  13.525  0.2567  0.2427 -0.1976
14575TIP3    H165140   4.078   4.968  13.564  3.1251  0.5512  1.1233
14575TIP3    H265141   4.164   4.908  13.455 -2.2404 -0.5361 -2.7454
14576TIP3   OH265142   0.824   2.362  16.925  0.2849 -0.0557 -0.1725
14576TIP3    H165143   0.773   2.433  16.965  0.6875 -0.2757  0.7506
14576TIP3    H265144   0.905   2.405  16.897  0.1931  0.0095 -0.3398
14577TIP3   OH265145   5.798   2.965  12.762  0.5989  0.9224  0.3178
14577TIP3    H165146   5.783   2.994  12.672 -1.6676 -0.1936  0.2969
14577TIP3    H265147   5.860   3.028  12.798  1.0244  1.7662 -1.8056
14578TIP3   OH265148   2.066   4.212  14.553 -0.3960  0.0975  0.8086
14578TIP3    H165149   2.130   4.242  14.617  0.7633  2.7666 -1.4817
14578TIP3    H265150   2.117   4.161  14.490 -1.6150 -2.9936  2.2250
14579TIP3   OH265151   2.999   1.176   0.442 -0.1761 -0.2461 -0.5286
14579TIP3    H165152   3.045   1.095   0.465  1.8318  1.1218  0.4686
14579TIP3    H265153   2.912   1.166   0.479  0.5920 -1.2494  1.0821
14580TIP3   OH265154   5.637   5.236   1.835 -0.2408  0.0038  0.1032
14580TIP3    H165155   5.676   5.243   1.923  0.5469 -0.3887 -0.2121
14580TIP3    H265156   5.675   5.157   1.798 -1.2511 -0.3063 -0.2676
14581TIP3   OH265157   0.793   4.498  14.103 -0.7519 -0.0332  0.0417
14581TIP3    H165158   0.716   4.523  14.052 -1.5542 -2.1954  0.1449
14581TIP3    H265159   0.834   4.428  14.052 -0.2080 -0.5372  1.1544
14582TIP3   OH265160   5.276   6.166  14.001 -0.4072 -0.3659  0.2181
14582TIP3    H165161   5.312   6.089  14.046  1.5960  0.5479  0.2572
14582TIP3    H265162   5.351   6.203  13.954 -1.9017  0.1614 -1.8011
14583TIP3   OH265163   6.554   4.056  14.180 -0.0817  0.5007 -0.1610
14583TIP3    H165164   6.574   4.085  14.269  1.9278  0.3557 -0.5480
14583TIP3    H265165   6.522   3.967  14.191 -1.8834  1.2148  0.6008
14584TIP3   OH265166   4.370   0.923   2.585 -0.0068 -0.1954  0.2804
14584TIP3    H165167   4.320   0.865   2.528  0.9269  0.7744 -1.5817
14584TIP3    H265168   4.317   1.002   2.591  0.2533 -0.0076  0.1157
14585TIP3   OH265169   1.374   3.713  11.928 -0.6877  0.5836 -0.0330
14585TIP3    H165170   1.309   3.651  11.959 -0.6379  0.9398  0.7977
14585TIP3    H265171   1.390   3.688  11.837 -1.5515  0.1360 -0.0661
14586TIP3   OH265172   1.447   4.734   3.460 -0.2651  0.0512  0.1279
14586TIP3    H165173   1.527   4.749   3.510 -0.6512  0.5929  0.5866
14586TIP3    H265174   1.379   4.724   3.526 -0.6745  0.1555 -0.2736
14587TIP3   OH265175   0.384   3.213   5.895 -0.1941 -0.5064  0.2069
14587TIP3    H165176   0.475   3.201   5.869 -0.2859  0.8572 -0.7314
14587TIP3    H265177   0.382   3.187   5.987  0.5959 -3.0798 -0.4473
14588TIP3   OH265178   3.484   1.488  12.616 -0.3392 -0.1516 -0.4765
14588TIP3    H165179   3.464   1.434  12.540  0.2462  1.2566 -1.6652
14588TIP3    H265180   3.411   1.550  12.621 -0.0862  0.1319 -0.2601
14589TIP3   OH265181   3.345   1.182   2.162 -0.0403  0.4849 -0.0612
14589TIP3    H165182   3.420   1.203   2.107  0.2851  1.6445  0.8045
14589TIP3    H265183   3.381   1.127   2.232  0.1552  1.6810  0.7860
14590TIP3   OH265184   1.573   6.458   5.246  0.4033  1.1415  0.1221
14590TIP3    H165185   1.553   6.548   5.220  1.7686  1.3269 -0.2945
14590TIP3    H265186   1.589   6.412   5.164  0.4117  0.6825  0.3794
14591TIP3   OH265187   5.576   0.687   5.047 -0.1672 -0.2627 -0.0882
14591TIP3    H165188   5.572   0.602   5.003  0.5651 -0.0721 -0.5336
14591TIP3    H265189   5.669   0.701   5.064 -0.1015  1.2458 -1.5863
14592TIP3   OH265190   6.671   3.119   5.199 -0.3161 -0.0477 -0.9498
14592TIP3    H165191   6.670   3.054   5.269 -2.0332  0.0778 -0.8406
14592TIP3    H265192   6.731   3.084   5.134 -1.5762 -1.9560 -1.1070
14593TIP3   OH265193   1.375   3.011  12.715 -0.0851  0.7277 -0.1244
14593TIP3    H165194   1.289   3.006  12.757 -0.7495  1.5851 -1.3741
14593TIP3    H265195   1.403   3.102  12.728  0.4492  0.5625 -0.0940
14594TIP3   OH265196   2.249   5.348  11.365  0.6137 -0.5861 -0.0121
14594TIP3    H165197   2.166   5.394  11.350  2.0184  1.7305 -0.9864
14594TIP3    H265198   2.286   5.335  11.278  1.2222 -1.6922  0.4064
14595TIP3   OH265199   1.123   2.526  13.094 -0.1047  0.3913  0.0318
14595TIP3    H165200   1.027   2.522  13.095 -0.0718 -0.6617 -0.7663
14595TIP3    H265201   1.146   2.536  13.002  0.5251  1.7010  0.3228
14596TIP3   OH265202   5.533   5.686   5.246  0.1909  0.0442  0.4935
14596TIP3    H165203   5.570   5.646   5.324  0.4182  0.6663  0.7076
14596TIP3    H265204   5.603   5.681   5.180 -0.1064 -0.7592  0.2313
14597TIP3   OH265205   6.784   0.669   5.615 -0.3404 -0.3989 -0.6234
14597TIP3    H165206   6.790   0.583   5.658  0.1624  0.0192  0.1694
14597TIP3    H265207   6.748   0.726   5.682  0.3181  0.2358 -0.8050
14598TIP3   OH265208   1.131   1.236   5.124  0.1076 -0.4693  0.3878
14598TIP3    H165209   1.043   1.205   5.100  0.2412  0.7347 -1.6811
14598TIP3    H265210   1.188   1.160   5.109 -0.7224 -1.6493  2.9163
14599TIP3   OH265211   5.876   2.975   3.156  0.8535 -0.1884 -0.1797
14599TIP3    H165212   5.907   2.920   3.085  2.0464  0.2262  0.0133
14599TIP3    H265213   5.792   2.937   3.181  1.2432 -1.3716 -0.6414
14600TIP3   OH265214   5.724   4.234   3.582 -0.3004 -0.6868 -0.1928
14600TIP3    H165215   5.632   4.225   3.558 -0.7956  0.4496  1.1875
14600TIP3    H265216   5.725   4.221   3.677  0.7613  0.7436  0.0028
14601TIP3   OH265217   2.181   4.882   1.959 -0.4619  0.0122 -0.2630
14601TIP3    H165218   2.268   4.909   1.989  0.2497 -2.4368 -0.0343
14601TIP3    H265219   2.133   4.964   1.946  1.5025  1.3382  0.7464
14602TIP3   OH265220   1.784   1.260   6.715 -0.2763 -0.2669  0.0932
14602TIP3    H165221   1.755   1.279   6.626  2.9669 -2.2502 -1.4685
14602TIP3    H265222   1.853   1.325   6.732  0.1081 -0.7973  0.5964
14603TIP3   OH265223   5.706   4.344   3.022  0.0441 -0.3327  0.0346
14603TIP3    H165224   5.623   4.351   2.975 -0.9861 -0.7906  1.7097
14603TIP3    H265225   5.764   4.296   2.963 -0.2912  1.6010 -1.9039
14604TIP3   OH265226   2.432   6.111  16.296  0.1754  0.6519  0.3405
14604TIP3    H165227   2.346   6.151  16.306  0.4595  1.8205 -1.5681
14604TIP3    H265228   2.418   6.037  16.236 -0.5649 -3.0066  4.7563
14605TIP3   OH265229   3.429   5.852  16.249 -0.9243 -0.1707  0.3530
14605TIP3    H165230   3.404   5.929  16.198  1.0075 -0.7692 -1.5677
14605TIP3    H265231   3.471   5.794  16.185  0.1908 -1.6089  2.3523
14606TIP3   OH265232   0.854   6.264   3.778  0.0630 -0.1428 -0.2568
14606TIP3    H165233   0.776   6.210   3.769  0.3308 -0.6044  0.1539
14606TIP3    H265234   0.841   6.336   3.716 -0.6745 -0.2294 -0.2065
14607TIP3   OH265235   6.319   0.313  11.856 -0.7876  0.1161 -0.4949
14607TIP3    H165236   6.322   0.218  11.845  0.1679  0.2235 -1.1552
14607TIP3    H265237   6.339   0.348  11.770 -1.3916  0.9256 -0.3131
14608TIP3   OH265238   6.735   2.960   0.617 -0.3938  0.3918  0.1885
14608TIP3    H165239   6.723   2.914   0.534 -0.4163  1.5166 -0.4276
14608TIP3    H265240   6.673   2.918   0.677  1.0875 -1.8409  0.2314
14609TIP3   OH265241   0.759   3.989  11.878 -0.0131  0.2630 -0.4400
14609TIP3    H165242   0.831   4.005  11.940 -0.5046  2.0308 -0.3176
14609TIP3    H265243   0.751   4.070  11.829 -2.0673  0.1444 -0.3321
14610TIP3   OH265244   5.964   3.570   1.350 -0.4901  0.4763  0.2953
14610TIP3    H165245   5.886   3.598   1.302 -1.5693 -1.7217  0.7223
14610TIP3    H265246   5.977   3.479   1.323  2.7774  1.2124 -0.8622
14611TIP3   OH265247   4.835   0.432  13.698 -0.1715  1.0139 -1.1221
14611TIP3    H165248   4.758   0.464  13.650 -0.8167 -0.8825 -1.4005
14611TIP3    H265249   4.807   0.430  13.790 -1.8248 -3.1569 -1.5675
14612TIP3   OH265250   2.301   2.733   0.257 -0.4022 -0.1461  0.0707
14612TIP3    H165251   2.251   2.656   0.229 -1.2933  0.4258  0.0436
14612TIP3    H265252   2.387   2.699   0.280  0.1549 -0.7259 -2.7241
14613TIP3   OH265253   0.422   5.956   4.498 -0.2184  0.8758  0.3414
14613TIP3    H165254   0.468   6.025   4.544  1.5220  0.1715 -0.2789
14613TIP3    H265255   0.377   5.907   4.566  1.2261  0.6539  1.1608
14614TIP3   OH265256   5.506   3.640   2.075  0.7860  0.1785 -0.0268
14614TIP3    H165257   5.583   3.696   2.067  1.8546 -1.2805 -0.2160
14614TIP3    H265258   5.525   3.566   2.018 -0.7361 -0.2387 -0.0103
14615TIP3   OH265259   5.839   5.289   5.465  0.3932  0.1631 -0.0574
14615TIP3    H165260   5.769   5.262   5.524 -1.1522  0.8835 -1.5095
14615TIP3    H265261   5.920   5.275   5.514 -0.7280 -1.3693  1.3861
14616TIP3   OH265262   5.671   2.060  16.095 -0.1487  0.0723 -0.3749
14616TIP3    H165263   5.673   2.026  16.184 -2.0072 -1.3909 -0.8492
14616TIP3    H265264   5.763   2.071  16.071  0.5753 -4.5074 -0.0921
14617TIP3   OH265265   5.269   2.548   6.548 -0.3958  0.1511 -0.2470
14617TIP3    H165266   5.203   2.506   6.603 -0.1114  0.6074  0.4506
14617TIP3    H265267   5.254   2.642   6.560 -1.4450  0.2761 -2.3043
14618TIP3   OH265268   4.828   5.289   4.980  0.1104  0.0017  0.3527
14618TIP3    H165269   4.761   5.223   4.966  0.4776  0.1199 -2.1753
14618TIP3    H265270   4.805   5.329   5.064 -2.3349 -0.7099  0.0566
14619TIP3   OH265271   0.187   3.515  13.951 -0.8013 -0.2085  0.5105
14619TIP3    H165272   0.210   3.483  14.038  3.1380 -0.1591 -0.4377
14619TIP3    H265273   0.168   3.435  13.901 -0.0086 -0.4506  0.5918
14620TIP3   OH265274   0.590   5.404   4.634  0.2689 -0.6402 -0.3762
14620TIP3    H165275   0.587   5.339   4.563  0.4839  0.0332 -1.0031
14620TIP3    H265276   0.545   5.480   4.599  0.5508 -0.2355  0.1388
14621TIP3   OH265277   2.330   0.648  17.145  0.3466  0.5022  0.0750
14621TIP3    H165278   2.255   0.620  17.199 -0.5467  0.1401 -1.3245
14621TIP3    H265279   2.290   0.692  17.071  1.3942 -1.7196 -1.8655
14622TIP3   OH265280   4.717   3.480   4.456  0.3397 -0.0203 -0.0707
14622TIP3    H165281   4.694   3.552   4.397  1.7089  0.8539  0.4347
14622TIP3    H265282   4.674   3.403   4.418  0.2890  0.7386 -1.5919
14623TIP3   OH265283   5.665   3.572   3.917 -0.7365 -0.5550  0.1117
14623TIP3    H165284   5.611   3.651   3.916  0.2971  0.2728  2.8205
14623TIP3    H265285   5.720   3.579   3.839  0.7403  2.4703  1.3475
14624TIP3   OH265286   2.875   4.293   5.868  0.8408  0.0604 -0.1298
14624TIP3    H165287   2.783   4.288   5.841  0.4989  1.4490  0.7266
14624TIP3    H265288   2.891   4.208   5.910 -0.2925  0.0904  0.4035
14625TIP3   OH265289   0.403   0.818   6.466  0.0880 -0.1516  0.0811
14625TIP3    H165290   0.475   0.816   6.528  0.3497  0.3657 -0.2036
14625TIP3    H265291   0.326   0.842   6.518  0.8456  3.3545 -0.3101
14626TIP3   OH265292   3.693   4.180   6.442 -0.3144  0.4921  0.1954
14626TIP3    H165293   3.741   4.124   6.381  0.0083  0.1549  0.7540
14626TIP3    H265294   3.671   4.123   6.516  3.1496  1.9079  2.4533
14627TIP3   OH265295   1.466   4.638   2.308  0.4017  0.1889  0.4649
14627TIP3    H165296   1.436   4.694   2.379  1.4194  0.9200  0.3279
14627TIP3    H265297   1.436   4.681   2.228  0.1116 -0.1099  0.4134
14628TIP3   OH265298   6.188   1.571   3.044 -0.1994 -0.4029 -0.0930
14628TIP3    H165299   6.235   1.654   3.050 -0.3398 -0.3210 -0.1119
14628TIP3    H265300   6.107   1.593   2.998 -0.9833 -0.2294  1.3526
14629TIP3   OH265301   2.910   5.715   4.795 -0.0638 -0.1907 -0.5472
14629TIP3    H165302   2.858   5.664   4.857  1.0672 -1.3896 -0.5472
14629TIP3    H265303   2.971   5.765   4.849  1.9252 -2.3626 -0.7115
14630TIP3   OH265304   2.974   3.798  11.303 -0.5427  0.0153 -0.4197
14630TIP3    H165305   2.945   3.889  11.308 -0.3334  0.2950 -3.2372
14630TIP3    H265306   2.902   3.752  11.259  0.7088 -0.4952 -1.9970
14631TIP3   OH265307   2.745   0.654   5.426 -0.6088  0.4160 -0.3337
14631TIP3    H165308   2.746   0.645   5.330  0.3284 -0.8082 -0.2312
14631TIP3    H265309   2.654   0.640   5.451 -0.8225  0.5327 -1.0443
14632TIP3   OH265310   6.124   4.957  11.954 -0.0752  0.1354 -0.3963
14632TIP3    H165311   6.149   5.025  11.891  0.2505 -0.0326 -0.4506
14632TIP3    H265312   6.063   5.000  12.013 -0.5740  0.2343 -0.9726
14633TIP3   OH265313   1.225   3.692   3.831  0.4716 -0.0303 -0.1619
14633TIP3    H165314   1.246   3.625   3.897 -0.7123  0.0527  0.2999
14633TIP3    H265315   1.144   3.662   3.791  0.1771  0.9074 -0.2682
14634TIP3   OH265316   0.313   2.921  10.967 -0.5928  0.3383 -0.1295
14634TIP3    H165317   0.369   2.887  10.898  2.3883  2.4652  1.1575
14634TIP3    H265318   0.303   3.014  10.947  0.0352  0.9090  2.0949
14635TIP3   OH265319   2.427   2.665  11.554  0.7877 -0.0564 -0.5651
14635TIP3    H165320   2.453   2.640  11.465 -0.9782 -0.7815 -0.8984
14635TIP3    H265321   2.446   2.588  11.607  1.4416  0.2230 -0.3955
14636TIP3   OH265322   6.032   0.100  14.173 -0.9215 -0.2623  0.4630
14636TIP3    H165323   5.950   0.147  14.162 -0.6848  0.0305 -0.1038
14636TIP3    H265324   6.041   0.049  14.093  0.4000  1.2107 -0.3633
14637TIP3   OH265325   5.868   6.229   0.653 -0.2417  0.2730  0.6468
14637TIP3    H165326   5.960   6.245   0.677 -0.0691 -0.3852  0.4400
14637TIP3    H265327   5.867   6.139   0.621 -0.7483  0.6439 -0.4063
14638TIP3   OH265328   0.291   4.748   5.360  0.4131 -0.0017  0.0861
14638TIP3    H165329   0.384   4.772   5.352  0.1259  0.9980 -0.3009
14638TIP3    H265330   0.254   4.816   5.417 -0.3426  0.2971 -0.7528
14639TIP3   OH265331   0.413   3.443   0.922 -0.6557  0.1952 -0.6698
14639TIP3    H165332   0.361   3.390   0.983  1.1846  1.1830  1.8814
14639TIP3    H265333   0.480   3.383   0.890 -0.3025  0.2336 -0.0093
14640TIP3   OH265334   3.232   0.788   5.028 -0.3143  0.0831  0.1833
14640TIP3    H165335   3.274   0.868   5.060 -4.4923  1.9371  1.2963
14640TIP3    H265336   3.189   0.814   4.946 -0.9313 -1.2749  0.0611
14641TIP3   OH265337   5.407   3.489   1.115  0.2405  0.0501 -0.2873
14641TIP3    H165338   5.411   3.565   1.057 -0.1147  0.1865 -0.1330
14641TIP3    H265339   5.341   3.432   1.076 -1.1372  0.8558  0.8305
14642TIP3   OH265340   2.935   3.990   6.010 -0.5426 -0.0964  0.2754
14642TIP3    H165341   2.902   3.996   6.100  0.5512 -0.0883  0.6942
14642TIP3    H265342   2.965   3.900   6.002  1.0209  0.3752  0.5376
14643TIP3   OH265343   3.780   1.271  17.197  0.3839 -0.0488  0.0450
14643TIP3    H165344   3.780   1.204  17.129  0.6634 -0.3467  0.3355
14643TIP3    H265345   3.868   1.307  17.195  0.3066  0.1402  0.0531
14644TIP3   OH265346   3.213   2.745   4.663 -0.0491  0.0558 -0.0188
14644TIP3    H165347   3.250   2.793   4.736  0.5955  0.0484 -0.3390
14644TIP3    H265348   3.130   2.790   4.644 -0.4291 -0.2188  0.9906
14645TIP3   OH265349   4.886   0.721   0.130 -0.4033  0.4828  0.1326
14645TIP3    H165350   4.891   0.745   0.222 -1.4235  0.2793  0.2476
14645TIP3    H265351   4.961   0.664   0.115 -0.2752  0.4666  0.8537
14646TIP3   OH265352   2.595   3.974   2.312  0.4709  0.1098 -0.1610
14646TIP3    H165353   2.668   3.926   2.272 -0.5142 -1.6241  0.0523
14646TIP3    H265354   2.611   3.968   2.406  1.3469  1.8545 -0.1838
14647TIP3   OH265355   1.146   1.478  15.203  0.1345  0.2480  0.2287
14647TIP3    H165356   1.051   1.480  15.208  0.1216 -1.0896  0.7319
14647TIP3    H265357   1.175   1.479  15.294  0.6053  0.6270  0.0774
14648TIP3   OH265358   5.133   3.999  13.365  0.1664 -0.0291 -0.0887
14648TIP3    H165359   5.045   3.980  13.332  1.1243  1.5484 -3.8687
14648TIP3    H265360   5.166   3.914  13.395 -2.6940 -0.5905  1.6835
14649TIP3   OH265361   3.434   5.862  15.003 -1.0416  0.2567 -0.1894
14649TIP3    H165362   3.389   5.918  15.066  0.7524  0.2312  1.1837
14649TIP3    H265363   3.462   5.921  14.933 -0.8568  0.7529  0.2965
14650TIP3   OH265364   0.313   0.951  17.136 -0.0401 -0.2942 -0.1237
14650TIP3    H165365   0.296   0.886  17.205  0.5089  0.4755  0.7397
14650TIP3    H265366   0.399   0.925  17.100  0.5131  0.3765  0.7080
14651TIP3   OH265367   2.875   2.060  13.728 -0.4179  0.5760 -0.0276
14651TIP3    H165368   2.866   2.102  13.813 -2.1061  0.2082 -0.0104
14651TIP3    H265369   2.793   2.079  13.683 -0.4165 -1.0645 -0.7568
14652TIP3   OH265370   1.852   1.571   2.379  0.0024  0.3734  0.5403
14652TIP3    H165371   1.822   1.596   2.466  1.6081  0.1461  1.1893
14652TIP3    H265372   1.844   1.476   2.377 -1.8432  0.5337 -0.2743
14653TIP3   OH265373   3.106   3.114  15.216 -0.6887 -0.0380  0.5344
14653TIP3    H165374   3.027   3.110  15.269  0.1342  0.1762  1.7866
14653TIP3    H265375   3.177   3.131  15.278 -0.0039  2.6015 -0.8901
14654TIP3   OH265376   2.215   3.228  12.961 -0.2887 -0.4204  0.1542
14654TIP3    H165377   2.254   3.250  12.876 -1.0022  0.9759  0.1716
14654TIP3    H265378   2.284   3.249  13.025  0.7567 -2.7736 -0.1401
14655TIP3   OH265379   4.382   1.636   6.675  0.7226  0.1780  0.4046
14655TIP3    H165380   4.455   1.688   6.642  1.2955 -0.6552  0.3508
14655TIP3    H265381   4.310   1.654   6.615  1.3714 -0.3017 -0.5266
14656TIP3   OH265382   1.399   1.461   2.315 -0.0855  0.5076 -0.1333
14656TIP3    H165383   1.368   1.488   2.228  1.1262 -0.3891 -0.8541
14656TIP3    H265384   1.494   1.468   2.309  0.0471 -0.4237  0.8407
14657TIP3   OH265385   6.288   1.474  12.989  0.2677 -0.0094  0.4844
14657TIP3    H165386   6.262   1.429  13.070 -1.3342  1.8798  1.0621
14657TIP3    H265387   6.354   1.538  13.018  0.7332 -0.2875  0.0524
14658TIP3   OH265388   3.731   3.826  14.324  0.1887 -0.1599  0.5046
14658TIP3    H165389   3.754   3.918  14.330 -0.5565  0.0061  0.8807
14658TIP3    H265390   3.739   3.805  14.231  0.5119  0.2412  0.4417
14659TIP3   OH265391   2.250   2.437  11.096  0.0372 -0.4451 -0.3820
14659TIP3    H165392   2.266   2.514  11.042 -0.5587  0.6059  0.9333
14659TIP3    H265393   2.239   2.471  11.185 -1.7274 -1.8877 -0.0177
14660TIP3   OH265394   0.860   0.919  12.335 -0.6117 -0.6393  0.2306
14660TIP3    H165395   0.854   0.875  12.420 -1.3402  1.0703  1.1003
14660TIP3    H265396   0.805   0.867  12.277 -1.4126 -0.9209  1.2153
14661TIP3   OH265397   1.057   4.038   5.649 -0.2119  0.1212  0.4321
14661TIP3    H165398   1.122   4.078   5.707 -0.1326  1.2205 -0.3999
14661TIP3    H265399   0.982   4.020   5.706 -0.0978  1.1017  0.9101
14662TIP3   OH265400   5.665   1.150  14.448  0.2136 -0.3930 -0.3044
14662TIP3    H165401   5.633   1.213  14.513  0.6811  0.8515 -1.2784
14662TIP3    H265402   5.585   1.117  14.406  0.0438  0.5970 -0.7669
14663TIP3   OH265403   6.403   6.409  10.976  0.2188  0.3977 -0.1957
14663TIP3    H165404   6.450   6.455  10.907 -0.1315  0.3850 -0.4473
14663TIP3    H265405   6.368   6.331  10.933  1.0193 -0.2395  0.2874
14664TIP3   OH265406   2.359   4.355  13.172 -0.0418  0.0147  0.1659
14664TIP3    H165407   2.299   4.405  13.227 -0.5077  1.4139 -1.5818
14664TIP3    H265408   2.429   4.416  13.149 -0.6536 -0.0696 -2.0512
14665TIP3   OH265409   5.599   5.952   5.477  0.4185 -0.2377 -0.5676
14665TIP3    H165410   5.674   5.917   5.428  0.3090  0.8333 -1.5252
14665TIP3    H265411   5.636   5.978   5.562  0.9943 -0.3475 -0.7818
14666TIP3   OH265412   0.322   6.096  13.096 -0.9327  0.3110 -0.4843
14666TIP3    H165413   0.388   6.030  13.077 -1.1029 -0.2790  0.9302
14666TIP3    H265414   0.369   6.179  13.090 -0.4156 -0.0190 -0.9878
14667TIP3   OH265415   5.860   0.716  13.272  0.0409  0.0038 -0.2915
14667TIP3    H165416   5.792   0.674  13.220  0.5064  0.8620 -1.6281
14667TIP3    H265417   5.814   0.757  13.345 -1.1070  2.0984 -2.1406
14668TIP3   OH265418   2.173   0.924   2.858 -0.7643 -0.3526 -0.0465
14668TIP3    H165419   2.225   1.000   2.830 -0.7702  0.0632  1.0498
14668TIP3    H265420   2.238   0.857   2.878 -0.7719 -0.7597 -1.3440
14669TIP3   OH265421   6.569   3.873  10.710  0.4277 -0.6055  0.0337
14669TIP3    H165422   6.512   3.795  10.714 -0.2776 -0.1449 -0.9214
14669TIP3    H265423   6.657   3.839  10.725 -0.3367 -0.9962  4.3053
14670TIP3   OH265424   5.310   0.549  12.550  0.8677 -0.3650  0.4197
14670TIP3    H165425   5.306   0.499  12.632 -3.4994  0.5388  0.8771
14670TIP3    H265426   5.297   0.484  12.481  1.0925 -0.6510  0.6441
14671TIP3   OH265427   6.522   5.222  16.800  0.2231 -0.6973 -0.2736
14671TIP3    H165428   6.544   5.276  16.876  2.5790 -1.1616 -0.5926
14671TIP3    H265429   6.598   5.230  16.743 -0.9117 -1.5321 -1.9287
14672TIP3   OH265430   6.147   5.901   4.066  0.3156 -0.2130  0.1976
14672TIP3    H165431   6.175   5.917   4.156 -1.4822  0.5348  0.6258
14672TIP3    H265432   6.107   5.814   4.069 -2.1347  0.9135  0.6845
14673TIP3   OH265433   3.030   4.118   2.284  0.6140  0.5496 -0.2464
14673TIP3    H165434   2.956   4.079   2.239  1.8573 -0.2980 -1.6017
14673TIP3    H265435   3.000   4.131   2.374 -0.1535 -2.6417  0.0054
14674TIP3   OH265436   5.060   5.543   2.573  0.5751 -0.2766 -0.0089
14674TIP3    H165437   5.044   5.451   2.550 -1.2046 -0.2683  1.0760
14674TIP3    H265438   4.973   5.583   2.573  0.9575  0.6409  2.6743
14675TIP3   OH265439   3.729   1.434   0.170 -0.4048  0.1395 -0.8039
14675TIP3    H165440   3.639   1.447   0.140 -0.6425  0.4667  0.0385
14675TIP3    H265441   3.762   1.361   0.118 -0.6601  0.9931 -2.1909
14676TIP3   OH265442   6.768   0.551   6.471  0.3761 -0.1409 -0.2016
14676TIP3    H165443   6.754   0.457   6.477  0.8657 -0.2448 -0.6657
14676TIP3    H265444   6.843   0.567   6.529 -0.2863  0.0971  0.5929
14677TIP3   OH265445   2.840   6.769   5.738  0.7325  0.3062 -0.1723
14677TIP3    H165446   2.849   6.700   5.803 -0.5709 -0.4541 -0.7806
14677TIP3    H265447   2.804   6.843   5.787 -1.2065 -0.5867 -0.2134
14678TIP3   OH265448   4.785   5.054  11.387 -0.4671  0.5825 -0.1844
14678TIP3    H165449   4.860   5.101  11.349  0.5220 -0.2626  0.6937
14678TIP3    H265450   4.780   4.973  11.336  0.4274 -0.2342  0.9837
14679TIP3   OH265451   1.453   6.624  15.939 -0.2192  0.4931 -0.0567
14679TIP3    H165452   1.388   6.686  15.971 -0.6263 -0.1300  0.3405
14679TIP3    H265453   1.405   6.567  15.879 -0.6155 -1.3903  1.9330
14680TIP3   OH265454   4.269   4.228  12.892  0.3268 -0.4060  0.6074
14680TIP3    H165455   4.209   4.266  12.828  1.5519  0.3258 -0.1277
14680TIP3    H265456   4.350   4.277  12.880  1.8059 -2.9742 -0.0401
14681TIP3   OH265457   1.458   2.236   2.115 -0.4244  0.0197  0.2930
14681TIP3    H165458   1.385   2.287   2.080  0.4206  1.1347  0.1546
14681TIP3    H265459   1.440   2.231   2.209 -0.5131  0.5644  0.3062
14682TIP3   OH265460   1.250   5.235  15.930  0.6733  0.4996 -0.0030
14682TIP3    H165461   1.237   5.157  15.985 -1.1016  0.5220 -0.3618
14682TIP3    H265462   1.275   5.304  15.992 -0.2984  0.2710  0.6657
14683TIP3   OH265463   5.616   4.264   1.866 -0.3864 -0.4223 -0.1099
14683TIP3    H165464   5.556   4.333   1.839  0.8822  1.4222  1.6258
14683TIP3    H265465   5.697   4.282   1.819  0.2780 -0.0690  1.1248
14684TIP3   OH265466   0.463   1.400  11.649  0.5855  0.0944 -0.4004
14684TIP3    H165467   0.507   1.464  11.593  1.1391 -0.0833 -0.1723
14684TIP3    H265468   0.403   1.453  11.702  1.9665  0.5977  0.6847
14685TIP3   OH265469   4.752   2.452  15.392 -0.3263 -0.1678  0.1844
14685TIP3    H165470   4.747   2.446  15.297 -0.1483 -1.4722  0.2428
14685TIP3    H265471   4.829   2.400  15.415 -0.3972  0.0987  1.0432
14686TIP3   OH265472   6.451   1.558  14.209 -0.4320 -0.4619 -0.4140
14686TIP3    H165473   6.462   1.650  14.184 -0.0588 -0.1506  0.8160
14686TIP3    H265474   6.396   1.562  14.288  1.2443 -1.1386  0.8200
14687TIP3   OH265475   5.301   2.129  14.755 -0.4389 -0.0547  0.2296
14687TIP3    H165476   5.241   2.158  14.823  0.1709  2.9194 -0.4417
14687TIP3    H265477   5.251   2.133  14.674  0.5443  2.2008 -0.2983
14688TIP3   OH265478   5.487   6.487   0.608  0.0906  0.0839 -0.3791
14688TIP3    H165479   5.497   6.485   0.703 -1.1483 -0.9362 -0.2673
14688TIP3    H265480   5.402   6.446   0.592  0.2454  0.3561 -1.9196
14689TIP3   OH265481   0.832   4.281   2.723  0.0720 -0.3569 -0.3740
14689TIP3    H165482   0.847   4.211   2.787  0.9983  1.3470  1.3348
14689TIP3    H265483   0.834   4.361   2.775 -2.0896  0.8798 -2.1164
14690TIP3   OH265484   4.326   1.807   0.132 -0.3423 -0.3800  0.0226
14690TIP3    H165485   4.297   1.896   0.149  0.3895  0.1597 -1.4616
14690TIP3    H265486   4.338   1.803   0.037  1.9836 -1.2996  0.3061
14691TIP3   OH265487   5.496   1.196  14.955 -0.2092  0.7848  0.3237
14691TIP3    H165488   5.559   1.149  15.010 -0.1788 -0.3902 -0.6892
14691TIP3    H265489   5.469   1.271  15.008  0.9076  0.4715  1.3620
14692TIP3   OH265490   2.060   0.396  14.365 -0.1914  0.5028 -0.0531
14692TIP3    H165491   2.130   0.441  14.318  0.8774  0.5410  1.5413
14692TIP3    H265492   2.105   0.331  14.419 -1.3166  0.9580  1.4651
14693TIP3   OH265493   6.092   2.471  11.798  0.1138 -0.0781  0.0748
14693TIP3    H165494   6.080   2.548  11.742  0.6392 -1.2901 -1.7455
14693TIP3    H265495   6.074   2.397  11.741 -0.2330 -1.3356  1.7676
14694TIP3   OH265496   0.708   2.406  15.078 -0.2382 -0.0490 -0.3384
14694TIP3    H165497   0.728   2.347  15.005  0.4282 -1.4764  0.9853
14694TIP3    H265498   0.626   2.372  15.114  0.5743 -0.6910  0.9399
14695TIP3   OH265499   3.838   3.134  11.536  0.5698 -0.0236  0.7593
14695TIP3    H165500   3.906   3.162  11.597 -0.0921 -0.9236  1.9531
14695TIP3    H265501   3.855   3.041  11.522  0.3398  0.0359  0.0853
14696TIP3   OH265502   1.133   2.423   4.288  1.0039 -0.1412 -0.6032
14696TIP3    H165503   1.189   2.499   4.276 -0.6562  1.1411 -0.4864
14696TIP3    H265504   1.106   2.428   4.380  0.4889 -0.5734 -0.7284
14697TIP3   OH265505   1.699   5.415  13.706  0.7949  0.9256 -0.3651
14697TIP3    H165506   1.792   5.391  13.711  0.4475 -0.3095  0.2252
14697TIP3    H265507   1.677   5.444  13.795  0.2544 -0.1118 -0.1593
14698TIP3   OH265508   1.175   1.075   2.595  0.0742  0.5212  0.0413
14698TIP3    H165509   1.142   0.985   2.589  0.6340  0.2365  1.0210
14698TIP3    H265510   1.266   1.068   2.567  0.3283  0.6446  0.8310
14699TIP3   OH265511   3.459   4.885   1.360  0.1445 -0.5371 -0.0415
14699TIP3    H165512   3.374   4.894   1.403  0.2556  3.0268 -0.4014
14699TIP3    H265513   3.523   4.899   1.430  0.4261 -1.8695 -0.0271
14700TIP3   OH265514   1.873   5.722   4.087 -0.1783 -0.1145 -0.1300
14700TIP3    H165515   1.931   5.646   4.079 -0.1297  0.0370 -1.3050
14700TIP3    H265516   1.933   5.797   4.090 -0.2359 -0.1005  0.7767
14701TIP3   OH265517   6.215   4.787  16.415 -0.3831  0.5537 -0.0583
14701TIP3    H165518   6.159   4.830  16.479  1.0772  1.9346  0.3139
14701TIP3    H265519   6.241   4.856  16.356  0.1491 -0.2779 -0.8018
14702TIP3   OH265520   5.479   0.199  10.759 -0.4680  0.1774 -0.9316
14702TIP3    H165521   5.513   0.157  10.838 -1.1190 -1.3549 -1.4390
14702TIP3    H265522   5.519   0.286  10.759 -0.8272  0.3812  1.3129
14703TIP3   OH265523   0.559   2.450  10.291 -0.4136 -0.0468  0.1434
14703TIP3    H165524   0.497   2.383  10.263 -0.7407  0.2771  0.0876
14703TIP3    H265525   0.645   2.409  10.280 -0.2867  1.1225 -4.5229
14704TIP3   OH265526   0.847   0.406  12.387 -0.1785  0.3324 -0.1138
14704TIP3    H165527   0.755   0.381  12.387 -0.5831  1.7584 -0.3624
14704TIP3    H265528   0.862   0.439  12.476  0.3976 -0.9453  0.2715
14705TIP3   OH265529   3.700   5.604  11.187  0.3790  0.5401  0.4390
14705TIP3    H165530   3.684   5.511  11.172 -1.8480  0.4465  2.9834
14705TIP3    H265531   3.655   5.648  11.115  0.1097 -0.3070  0.0890
14706TIP3   OH265532   6.563   5.800   2.567  0.1718  0.1716 -0.1064
14706TIP3    H165533   6.641   5.837   2.609  0.7118 -2.1037  1.0089
14706TIP3    H265534   6.578   5.810   2.473  0.8859  1.5660  0.1559
14707TIP3   OH265535   0.528   2.217  14.433 -0.0091  0.5576 -0.7455
14707TIP3    H165536   0.562   2.301  14.464 -0.8737  0.2599  1.0570
14707TIP3    H265537   0.437   2.234  14.408 -0.2730  0.1071 -0.1147
14708TIP3   OH265538   0.243   4.225  10.752  0.0322  0.3343 -0.2609
14708TIP3    H165539   0.225   4.319  10.758 -0.9619  0.2209 -1.2568
14708TIP3    H265540   0.320   4.220  10.694  1.7707  0.6727  1.9694
14709TIP3   OH265541   4.330   6.428  14.986  0.8139  0.0626 -0.3801
14709TIP3    H165542   4.295   6.516  14.970 -1.5422 -0.6784  0.4054
14709TIP3    H265543   4.330   6.386  14.900 -4.2234 -1.2497  0.0759
14710TIP3   OH265544   6.104   1.829  16.563  0.1497 -0.2280 -0.1577
14710TIP3    H165545   6.129   1.854  16.474 -2.6078  0.3009 -0.8205
14710TIP3    H265546   6.043   1.756  16.551  0.0318 -0.3826  1.3093
14711TIP3   OH265547   1.910   6.444  16.458  0.4521  0.0815 -0.1427
14711TIP3    H165548   1.962   6.502  16.402  0.6050  0.3231  0.2524
14711TIP3    H265549   1.929   6.356  16.424  0.8626  0.1935 -0.2127
14712TIP3   OH265550   5.870   5.114   1.717  0.3713  0.0554 -0.1316
14712TIP3    H165551   5.876   5.181   1.785 -2.5657 -0.5996  0.8548
14712TIP3    H265552   5.931   5.046   1.743  1.0688  0.9300  0.5286
14713TIP3   OH265553   4.195   5.303   2.502  0.2594  0.0244 -0.4623
14713TIP3    H165554   4.259   5.354   2.452  1.8952 -0.4957  1.0816
14713TIP3    H265555   4.241   5.222   2.524 -0.5427  0.1359  1.6600
14714TIP3   OH265556   1.650   0.633  17.062  0.3735 -0.5850  0.1935
14714TIP3    H165557   1.555   0.640  17.071  0.3874 -1.6030  1.3201
14714TIP3    H265558   1.669   0.675  16.979 -1.3136 -2.2684 -1.0895
14715TIP3   OH265559   6.664   6.409  15.557  0.4290 -0.6405  0.0394
14715TIP3    H165560   6.686   6.325  15.597 -1.0282 -1.1626 -0.2385
14715TIP3    H265561   6.588   6.440  15.606  0.5546  0.2133 -0.2923
14716TIP3   OH265562   4.290   5.496  14.708 -0.0653  0.2140 -0.2288
14716TIP3    H165563   4.382   5.520  14.699 -0.1746  0.6287 -0.2465
14716TIP3    H265564   4.260   5.548  14.783 -0.0504 -0.5926  0.3443
14717TIP3   OH265565   2.506   5.824  11.899  0.3877  0.9597 -0.3455
14717TIP3    H165566   2.556   5.742  11.905 -0.6107  0.3160 -0.7667
14717TIP3    H265567   2.465   5.833  11.985  1.2804  1.5383  0.0318
14718TIP3   OH265568   3.070   6.156  11.065  0.3414  0.0131 -0.3205
14718TIP3    H165569   3.061   6.243  11.103 -1.0103  0.0080 -0.6016
14718TIP3    H265570   3.164   6.138  11.068  0.4639  0.8519  1.1261
14719TIP3   OH265571   2.928   1.328  13.063 -0.2379  0.1473 -0.4121
14719TIP3    H165572   2.937   1.405  13.120 -0.8121 -0.1198  0.0512
14719TIP3    H265573   2.924   1.254  13.124  0.0210 -0.2207 -0.8431
14720TIP3   OH265574   1.391   6.244   5.694 -0.3517 -0.0352 -0.0233
14720TIP3    H165575   1.324   6.239   5.626 -0.2852  0.9281 -0.1649
14720TIP3    H265576   1.342   6.251   5.776 -0.4505  2.7161 -0.2773
14721TIP3   OH265577   4.993   6.080  16.061 -0.2157 -0.1984  0.2551
14721TIP3    H165578   4.920   6.057  16.117  0.1559 -0.5697  0.5882
14721TIP3    H265579   5.050   6.003  16.062  0.4578  0.2979  0.4508
14722TIP3   OH265580   3.723   1.713   4.077 -0.4461 -0.9000 -0.1872
14722TIP3    H165581   3.701   1.797   4.038 -2.3184 -0.6996  1.1966
14722TIP3    H265582   3.817   1.703   4.063 -0.5288  0.5719 -1.9449
14723TIP3   OH265583   3.993   4.544  14.740  0.3669  0.2914  0.0900
14723TIP3    H165584   4.020   4.636  14.745 -0.8940  0.8093 -1.8366
14723TIP3    H265585   4.072   4.495  14.759  1.1664  1.7818  0.7133
14724TIP3   OH265586   5.810   0.306  14.682 -0.4157 -0.2804 -0.7246
14724TIP3    H165587   5.773   0.393  14.665 -0.5451  0.1256  1.4881
14724TIP3    H265588   5.735   0.251  14.701 -0.1904 -0.4200 -0.2311
14725TIP3   OH265589   0.932   3.292   5.395 -0.8907 -0.0504  0.3971
14725TIP3    H165590   0.902   3.383   5.389 -0.4977  0.0215 -0.4895
14725TIP3    H265591   0.987   3.290   5.473 -1.6256  0.2653  0.9291
14726TIP3   OH265592   5.614   0.791   3.273  0.2553  0.5186  0.7329
14726TIP3    H165593   5.558   0.794   3.351  0.0170  1.7437  0.5355
14726TIP3    H265594   5.582   0.864   3.219 -0.2519 -0.9522 -0.9742
14727TIP3   OH265595   5.172   2.446   6.015 -0.4198 -0.0798 -0.7240
14727TIP3    H165596   5.195   2.353   6.018 -1.0896 -0.2331 -0.3887
14727TIP3    H265597   5.200   2.480   6.100  2.1405  0.5785 -1.7679
14728TIP3   OH265598   2.989   2.078  15.885 -0.4797 -0.3700 -0.0396
14728TIP3    H165599   3.028   1.991  15.880 -0.4398 -0.2434 -2.8423
14728TIP3    H265600   3.001   2.115  15.797 -1.1847  2.1648  0.8794
14729TIP3   OH265601   6.147   2.518  11.282 -0.2934  0.2741 -0.2068
14729TIP3    H165602   6.171   2.512  11.190 -1.6154  1.3239 -0.6290
14729TIP3    H265603   6.123   2.428  11.306  2.3568 -0.4801 -0.2119
14730TIP3   OH265604   2.744   1.498  12.453  0.3187 -0.1187 -0.3953
14730TIP3    H165605   2.794   1.475  12.376  1.4972 -1.5587  0.7743
14730TIP3    H265606   2.807   1.497  12.525 -0.7002  1.4292  0.5618
14731TIP3   OH265607   4.361   1.766  13.560  0.0117 -0.1585  0.3128
14731TIP3    H165608   4.370   1.703  13.632  2.3487  0.2273  0.4191
14731TIP3    H265609   4.383   1.716  13.482  0.6386  0.1960  0.2567
14732TIP3   OH265610   6.017   3.915  13.201 -0.8277 -0.5190  0.0063
14732TIP3    H165611   5.954   3.860  13.154 -0.2538 -0.4582 -0.8321
14732TIP3    H265612   5.976   4.001  13.204 -0.5405 -0.3477 -1.0160
14733TIP3   OH265613   6.055   4.341  16.069 -0.4416 -0.4384  0.3719
14733TIP3    H165614   6.137   4.308  16.033 -1.4871 -3.0612  0.3085
14733TIP3    H265615   6.068   4.339  16.164  0.1814  0.8425  0.3257
14734TIP3   OH265616   4.004   6.558   5.229  0.7203  0.9014  0.3873
14734TIP3    H165617   4.072   6.594   5.172  0.6993  0.4115  0.0554
14734TIP3    H265618   3.995   6.623   5.299  3.5412 -0.3786  2.0109
14735TIP3   OH265619   3.085   3.742   6.119 -0.1589 -0.0471  0.0878
14735TIP3    H165620   3.175   3.760   6.093 -0.3972 -0.3654 -0.9514
14735TIP3    H265621   3.087   3.653   6.153  0.0289  0.1602  0.6405
14736TIP3   OH265622   3.137   4.062   3.752 -0.0306 -0.7250 -0.0806
14736TIP3    H165623   3.214   4.108   3.786 -0.1611  0.9933 -2.0518
14736TIP3    H265624   3.170   4.008   3.681 -0.3639 -1.3917  0.2667
14737TIP3   OH265625   4.804   6.326  14.189  0.1369  0.2931  0.6497
14737TIP3    H165626   4.897   6.305  14.197 -0.3543 -2.4180 -0.2540
14737TIP3    H265627   4.795   6.368  14.103  0.7472  2.1381  1.4527
14738TIP3   OH265628   0.811   4.650  13.727  0.1566  0.2625 -0.5953
14738TIP3    H165629   0.728   4.640  13.775 -0.9029  1.5398 -2.1281
14738TIP3    H265630   0.833   4.561  13.700 -1.2373  0.0276 -1.0107
14739TIP3   OH265631   0.161   3.636  14.694  0.7047 -0.8693  0.0238
14739TIP3    H165632   0.156   3.543  14.671  1.5126 -0.6305 -1.1395
14739TIP3    H265633   0.241   3.667  14.651 -0.2708  0.6863 -0.6797
14740TIP3   OH265634   4.147   5.366   1.300 -0.5169  0.3984  0.7995
14740TIP3    H165635   4.081   5.394   1.236  0.9619  1.1119 -0.4342
14740TIP3    H265636   4.122   5.410   1.381 -1.4329  0.8441  0.2809
14741TIP3   OH265637   6.210   0.170   4.064  0.0935 -0.2490  0.0770
14741TIP3    H165638   6.301   0.148   4.041 -0.7745 -0.7182 -3.0103
14741TIP3    H265639   6.207   0.266   4.061  0.3831 -0.2476 -0.2138
14742TIP3   OH265640   2.606   1.431   4.686  1.0233 -0.1364 -0.5874
14742TIP3    H165641   2.552   1.365   4.730  1.0037 -0.4570 -1.0804
14742TIP3    H265642   2.648   1.479   4.757 -1.1768  1.2025 -0.1572
14743TIP3   OH265643   5.655   5.568  10.770 -0.0928 -0.0413 -0.4927
14743TIP3    H165644   5.592   5.537  10.704  0.5158  0.1959 -1.1886
14743TIP3    H265645   5.692   5.648  10.732 -0.9007  0.9906  0.8424
14744TIP3   OH265646   3.266   3.510  14.463 -0.5225  0.0318  0.4297
14744TIP3    H165647   3.295   3.419  14.465 -2.1089 -0.4888 -0.0503
14744TIP3    H265648   3.333   3.555  14.411  0.5253 -0.7508  1.0762
14745TIP3   OH265649   4.553   3.406   2.777 -0.2723  0.7007 -0.1911
14745TIP3    H165650   4.611   3.334   2.804 -1.0788  0.1819  0.1757
14745TIP3    H265651   4.557   3.406   2.682 -0.3330  0.1139 -0.1958
14746TIP3   OH265652   1.438   1.762   1.046  0.3820  0.3546 -0.0402
14746TIP3    H165653   1.501   1.723   1.107  1.1692  1.7953  0.0859
14746TIP3    H265654   1.492   1.813   0.986 -0.6466  1.3932 -0.0912
14747TIP3   OH265655   4.438   5.431   3.364 -0.9430 -0.1570 -0.6460
14747TIP3    H165656   4.376   5.371   3.322 -1.8580  1.4758 -1.6480
14747TIP3    H265657   4.395   5.516   3.361 -0.2954  0.3202  2.0995
14748TIP3   OH265658   5.924   5.132   4.804 -0.1817 -0.2135 -0.2349
14748TIP3    H165659   5.955   5.118   4.893  0.3784 -1.9011 -0.6829
14748TIP3    H265660   5.944   5.224   4.786 -1.3942  0.4666  1.7910
14749TIP3   OH265661   1.003   1.014  15.782  0.2731  0.8831  0.1900
14749TIP3    H165662   0.992   0.999  15.876  0.2852 -3.4951 -0.4041
14749TIP3    H265663   0.916   0.997  15.745  0.5896  1.2795 -0.7433
14750TIP3   OH265664   3.948   0.439  10.687  0.5470  0.1524 -0.1236
14750TIP3    H165665   3.888   0.391  10.744 -0.3188  0.5882 -0.6540
14750TIP3    H265666   4.028   0.386  10.685  0.9404  0.5663  2.2189
14751TIP3   OH265667   2.768   0.561  15.088 -0.0659  0.2631  0.1676
14751TIP3    H165668   2.762   0.626  15.017  1.2844 -0.7407 -0.8769
14751TIP3    H265669   2.859   0.531  15.086 -0.2911 -0.5493  1.6435
14752TIP3   OH265670   1.925   1.683   4.631  0.0989  0.0573  0.4559
14752TIP3    H165671   1.920   1.770   4.591  2.8272 -0.5295 -1.2701
14752TIP3    H265672   1.875   1.626   4.572  2.1063 -0.3610 -0.8685
14753TIP3   OH265673   3.988   2.591  15.918 -0.2265  0.2533  0.4391
14753TIP3    H165674   3.943   2.675  15.917 -0.1993  0.2948  1.4714
14753TIP3    H265675   4.015   2.576  15.828 -0.4012  1.2628  0.2167
14754TIP3   OH265676   0.571   2.400   2.603 -0.1302  0.4813  0.0003
14754TIP3    H165677   0.632   2.389   2.530 -2.3248  1.2849 -2.0171
14754TIP3    H265678   0.627   2.406   2.680  2.2467 -0.4698 -1.5891
14755TIP3   OH265679   4.450   3.238   1.260  0.3210 -0.5075 -0.1284
14755TIP3    H165680   4.479   3.325   1.234 -2.8232  0.5521 -0.2521
14755TIP3    H265681   4.439   3.191   1.177  1.4684 -0.8620 -0.0885
14756TIP3   OH265682   3.370   3.267  14.516  0.0795  0.3743 -0.1560
14756TIP3    H165683   3.385   3.270  14.611  0.5628 -0.6140 -0.1894
14756TIP3    H265684   3.446   3.219  14.482  0.8905  2.3899 -1.2667
14757TIP3   OH265685   2.579   1.601  15.541  0.4227 -0.2417  0.2942
14757TIP3    H165686   2.601   1.694  15.531  0.5805 -0.2944  0.1520
14757TIP3    H265687   2.500   1.590  15.487 -0.1749  0.0276  1.0947
14758TIP3   OH265688   2.008   0.872   1.693  0.0287  0.3054 -0.0967
14758TIP3    H165689   2.099   0.892   1.716 -0.0598  0.0689  0.4574
14758TIP3    H265690   1.958   0.944   1.729 -0.0308  0.3100 -0.1890
14759TIP3   OH265691   4.109   5.435  15.129  0.2062 -0.4748  0.0621
14759TIP3    H165692   4.122   5.357  15.183  1.0187  0.4407  1.2428
14759TIP3    H265693   4.024   5.422  15.087  0.2163 -1.8647  0.4468
14760TIP3   OH265694   3.049   3.654   2.693 -0.2787 -0.3490  0.5492
14760TIP3    H165695   3.057   3.593   2.620  2.4700  0.9186 -0.2386
14760TIP3    H265696   3.108   3.620   2.760  0.2582  0.7118  0.6238
14761TIP3   OH265697   5.178   4.863  13.466 -0.2046  0.2626 -0.5560
14761TIP3    H165698   5.238   4.859  13.540  1.4106 -1.0253 -1.8799
14761TIP3    H265699   5.145   4.773  13.458  0.5844  0.0850 -2.1118
14762TIP3   OH265700   6.451   1.761   1.427 -0.2106  0.1480 -0.5715
14762TIP3    H165701   6.542   1.789   1.441 -0.2777  0.9838 -1.6990
14762TIP3    H265702   6.436   1.693   1.493  1.5104 -0.6098 -0.9375
14763TIP3   OH265703   2.401   6.683   0.090  0.4087 -0.1181 -0.2919
14763TIP3    H165704   2.439   6.709   0.174  0.4550 -0.6882 -0.1361
14763TIP3    H265705   2.442   6.740   0.026 -0.0354  0.7022  0.1432
14764TIP3   OH265706   6.745   2.711   4.279  0.6568 -0.3514  0.7299
14764TIP3    H165707   6.718   2.650   4.347 -0.6571  0.0024  0.5494
14764TIP3    H265708   6.674   2.775   4.275  1.4605  0.5186  0.1071
14765TIP3   OH265709   4.698   1.939   5.772 -0.4861 -0.1625 -0.2981
14765TIP3    H165710   4.737   1.893   5.846  0.6819  1.0588 -0.1299
14765TIP3    H265711   4.686   2.029   5.804 -1.4578 -0.0144 -1.0678
14766TIP3   OH265712   3.228   6.190  11.965  0.6873  0.1845 -0.1307
14766TIP3    H165713   3.313   6.185  11.922  0.4166  2.7588 -1.0616
14766TIP3    H265714   3.166   6.208  11.893 -0.6402 -1.6068  0.5319
14767TIP3   OH265715   0.635   6.025   0.276  0.0936  0.0491 -0.2089
14767TIP3    H165716   0.555   5.985   0.312  1.4405 -1.7589  0.8597
14767TIP3    H265717   0.668   6.080   0.347  0.1751  0.2507 -0.4043
14768TIP3   OH265718   3.047   0.729   5.976 -0.1758  0.4159 -0.6266
14768TIP3    H165719   3.141   0.710   5.985 -0.0400  0.6970 -1.3938
14768TIP3    H265720   3.041   0.780   5.895 -0.8769  1.2310 -0.0569
14769TIP3   OH265721   0.088   5.184   5.326 -0.2502 -0.4836 -0.1771
14769TIP3    H165722   0.173   5.195   5.283 -0.8219 -0.7532 -1.4119
14769TIP3    H265723   0.046   5.270   5.318 -0.5039 -0.6355 -0.4787
14770TIP3   OH265724   4.207   1.093   3.687 -0.1868 -0.2692  0.2791
14770TIP3    H165725   4.220   1.056   3.600  2.4510 -0.2296  0.6120
14770TIP3    H265726   4.153   1.171   3.672  0.7218  0.0663 -1.4039
14771TIP3   OH265727   2.638   4.218   2.954  0.0547 -0.2329  0.4514
14771TIP3    H165728   2.691   4.182   2.883  0.7649  0.1721  0.7624
14771TIP3    H265729   2.678   4.303   2.972  0.6795 -0.8639  2.1854
14772TIP3   OH265730   2.931   2.648   4.141  0.2349 -0.3718  0.3848
14772TIP3    H165731   2.856   2.594   4.165 -1.2428  2.3163  2.1338
14772TIP3    H265732   3.007   2.605   4.179 -0.9135 -1.1504  1.8023
14773TIP3   OH265733   6.209   6.668   2.197  0.0728  0.5437 -0.2428
14773TIP3    H165734   6.301   6.684   2.177  0.0457  0.2873 -0.5701
14773TIP3    H265735   6.165   6.751   2.178  0.3665  0.9255  0.7178
14774TIP3   OH265736   4.653   2.450  12.911  0.3577 -0.3943  0.0019
14774TIP3    H165737   4.652   2.519  12.844  1.6858 -2.1003 -1.8180
14774TIP3    H265738   4.573   2.466  12.961 -1.1779  0.4119 -2.5519
14775TIP3   OH265739   1.369   5.147   5.530 -0.9979 -0.2259 -0.0812
14775TIP3    H165740   1.389   5.108   5.445  1.0519  0.8445 -0.1171
14775TIP3    H265741   1.306   5.216   5.510 -0.5697 -0.0142 -0.7466
14776TIP3   OH265742   0.605   4.868   4.560  0.1473 -1.1922 -1.0003
14776TIP3    H165743   0.580   4.910   4.477 -1.4026 -2.1596 -1.0418
14776TIP3    H265744   0.654   4.936   4.607 -0.6190  0.0175 -1.8960
14777TIP3   OH265745   1.564   1.257  16.095 -0.7498  0.7980 -0.1053
14777TIP3    H165746   1.482   1.274  16.141 -0.8046  0.3197 -0.0253
14777TIP3    H265747   1.631   1.300  16.148 -0.7936  0.1051  0.5114
14778TIP3   OH265748   1.813   2.523   3.149  0.0510 -0.6837 -0.5054
14778TIP3    H165749   1.872   2.534   3.223 -0.2930 -0.6071 -0.2434
14778TIP3    H265750   1.731   2.492   3.187 -0.3612  0.0530 -0.7706
14779TIP3   OH265751   3.587   6.547  16.082 -0.3128 -0.0111  0.2280
14779TIP3    H165752   3.629   6.484  16.141 -1.2250 -0.6789  0.1714
14779TIP3    H265753   3.651   6.558  16.011  0.5761  0.4230  1.0795
14780TIP3   OH265754   5.328   3.093   4.527  0.3089 -0.6058 -0.6018
14780TIP3    H165755   5.241   3.060   4.546  0.0972 -0.7760 -1.8018
14780TIP3    H265756   5.377   3.082   4.608 -0.7954 -0.4795  0.0853
14781TIP3   OH265757   2.284   3.535  16.766  0.6810  0.3998 -0.0805
14781TIP3    H165758   2.345   3.466  16.791 -0.3463 -0.1414  1.0142
14781TIP3    H265759   2.237   3.556  16.848 -0.9353  0.4453 -0.9936
14782TIP3   OH265760   1.660   4.846   3.638  0.5792 -0.0707 -0.6413
14782TIP3    H165761   1.666   4.845   3.733  1.9150 -0.7683 -0.7190
14782TIP3    H265762   1.744   4.880   3.609  0.8575 -1.5209 -1.6084
14783TIP3   OH265763   2.685   2.145  15.212  0.4445 -0.0794 -0.1647
14783TIP3    H165764   2.766   2.181  15.250 -0.2863 -0.6707  2.0211
14783TIP3    H265765   2.621   2.216  15.221  1.1581  1.1270 -3.7123
14784TIP3   OH265766   2.524   2.218   5.981  0.6937 -0.4275  0.2993
14784TIP3    H165767   2.477   2.298   6.004 -0.6629 -0.7707 -1.1689
14784TIP3    H265768   2.506   2.158   6.054 -0.7661 -0.3880 -0.0111
14785TIP3   OH265769   3.903   5.709   2.326 -0.0472  0.2438 -0.4362
14785TIP3    H165770   3.934   5.637   2.272 -2.7652 -1.4305  0.1501
14785TIP3    H265771   3.844   5.759   2.268  0.3590  0.9180 -0.2772
14786TIP3   OH265772   5.878   1.587   1.777 -0.1159  0.5055  0.0703
14786TIP3    H165773   5.868   1.604   1.871  0.5307 -0.5943  0.3432
14786TIP3    H265774   5.954   1.530   1.771  0.4629  1.3846 -1.2198
14787TIP3   OH265775   5.363   6.270  17.195  0.2776  0.1451  0.1683
14787TIP3    H165776   5.348   6.220  17.114  0.0354 -0.9661  0.8934
14787TIP3    H265777   5.457   6.286  17.196  0.3573 -0.2887 -0.0789
14788TIP3   OH265778   0.664   3.665   2.671  0.3047  0.4098 -0.3075
14788TIP3    H165779   0.614   3.619   2.603 -1.1608 -1.1938  1.7941
14788TIP3    H265780   0.732   3.603   2.697 -0.5039  0.1340  1.2118
14789TIP3   OH265781   0.758   3.262   5.173  0.9472  0.6222  0.8348
14789TIP3    H165782   0.766   3.207   5.095  0.5793  0.5393  0.8535
14789TIP3    H265783   0.826   3.230   5.232 -0.7262 -1.3717  1.7820
14790TIP3   OH265784   6.712   4.220   3.197  0.0620  0.1353  0.3489
14790TIP3    H165785   6.677   4.157   3.260 -2.7666 -1.0592 -2.3134
14790TIP3    H265786   6.700   4.305   3.239 -2.5926 -0.5759  1.0957
14791TIP3   OH265787   2.910   2.948  10.785  0.1866  0.3274  0.0975
14791TIP3    H165788   2.888   2.865  10.743 -2.8288  1.4680 -0.6870
14791TIP3    H265789   2.936   3.006  10.714  0.3507  0.6486  0.4144
14792TIP3   OH265790   5.097   3.751   0.683 -0.0325  0.2141  0.0443
14792TIP3    H165791   5.147   3.769   0.603 -1.4005 -1.2836 -1.1934
14792TIP3    H265792   5.135   3.670   0.717  2.2268  2.1571  2.3612
14793TIP3   OH265793   3.131   2.728  11.496  0.1127 -0.8426  0.0001
14793TIP3    H165794   3.053   2.674  11.487 -0.8621  0.6198 -0.4717
14793TIP3    H265795   3.155   2.752  11.407  1.0159 -1.1579  0.1517
14794TIP3   OH265796   0.928   0.244  15.914 -1.4533 -0.0884  0.3825
14794TIP3    H165797   0.985   0.180  15.872 -1.9261  0.1607 -0.6535
14794TIP3    H265798   0.936   0.226  16.008  0.2517 -0.1263  0.2495
14795TIP3   OH265799   1.854   3.118  14.263 -0.1273  0.2900  0.0097
14795TIP3    H165800   1.777   3.060  14.266  0.3588 -0.3468  0.3860
14795TIP3    H265801   1.876   3.132  14.355 -0.2438  1.0865 -0.0812
14796TIP3   OH265802   1.140   0.788   2.558 -0.1203 -0.0675 -0.5967
14796TIP3    H165803   1.213   0.760   2.503  0.6311 -1.0086  0.8400
14796TIP3    H265804   1.076   0.717   2.552 -0.6905  0.4942 -1.3911
14797TIP3   OH265805   5.034   0.538   4.544  0.3572 -0.8431  0.5973
14797TIP3    H165806   4.967   0.537   4.475  2.1916  1.0832 -1.2962
14797TIP3    H265807   5.068   0.449   4.546 -1.0139 -1.3851  0.3287
14798TIP3   OH265808   1.701   0.355   4.980 -0.0871  0.2226 -0.2172
14798TIP3    H165809   1.693   0.311   5.065 -1.5040  2.1662  0.6940
14798TIP3    H265810   1.789   0.332   4.949 -0.7470 -3.1887  0.2249
14799TIP3   OH265811   5.406   5.581  11.475 -0.4132  0.3790  0.0941
14799TIP3    H165812   5.419   5.627  11.392  0.9324 -0.1018  0.0353
14799TIP3    H265813   5.443   5.640  11.541  0.7514 -0.3320  0.0850
14800TIP3   OH265814   4.756   6.441  10.556  0.1231  0.4019 -0.7106
14800TIP3    H165815   4.811   6.364  10.546  0.4245  0.8443 -2.6703
14800TIP3    H265816   4.707   6.426  10.637  1.0546 -1.2742 -0.4456
14801TIP3   OH265817   3.541   0.773   0.730 -0.2506  0.3719 -0.0095
14801TIP3    H165818   3.505   0.804   0.647  0.3915  0.1137 -0.3911
14801TIP3    H265819   3.628   0.740   0.707  0.4787  1.5574  1.0058
14802TIP3   OH265820   2.086   0.665  13.791 -0.0139 -0.9942  0.7598
14802TIP3    H165821   1.991   0.666  13.781  0.0181  0.6474  0.4132
14802TIP3    H265822   2.120   0.652  13.702  0.0880 -0.9722  0.7945
14803TIP3   OH265823   1.535   5.497  16.720 -0.1426  0.1379 -0.0568
14803TIP3    H165824   1.480   5.532  16.650 -1.2231  0.5359  0.9745
14803TIP3    H265825   1.619   5.478  16.677 -1.2441 -0.9854 -1.7534
14804TIP3   OH265826   4.304   1.840   1.136 -0.0166  0.1716  0.5097
14804TIP3    H165827   4.245   1.765   1.146 -0.5238  0.9096  3.4537
14804TIP3    H265828   4.249   1.916   1.155  1.0249  1.1312 -0.2611
14805TIP3   OH265829   6.433   4.140   5.745  0.3831  0.0357  0.4675
14805TIP3    H165830   6.389   4.154   5.661  1.8917  0.6087 -0.2586
14805TIP3    H265831   6.434   4.227   5.786  0.2132 -0.1157  0.7905
14806TIP3   OH265832   6.167   6.085  16.581  0.5376  0.2662  0.5661
14806TIP3    H165833   6.254   6.064  16.614 -0.2088 -1.0468  1.7422
14806TIP3    H265834   6.114   6.007  16.600 -1.4258  1.8398  1.7897
14807TIP3   OH265835   4.901   6.639   1.567  0.3634 -0.3871  1.0492
14807TIP3    H165836   4.810   6.622   1.545  0.6675 -1.9963  1.0106
14807TIP3    H265837   4.935   6.556   1.599  2.0697 -0.0638  0.1799
14808TIP3   OH265838   1.594   6.386   1.301  0.0017  0.0138 -0.3991
14808TIP3    H165839   1.606   6.298   1.336  0.1770 -0.0363 -0.5862
14808TIP3    H265840   1.669   6.399   1.243  0.4212  0.6003  0.2575
14809TIP3   OH265841   5.268   0.553  14.602  0.1442  0.2074  0.3618
14809TIP3    H165842   5.208   0.481  14.583 -1.2884  0.9853  1.8424
14809TIP3    H265843   5.347   0.510  14.636  0.2031 -0.7803 -1.0024
14810TIP3   OH265844   4.199   0.033   2.558  0.4295 -0.2158 -0.4158
14810TIP3    H165845   4.180   0.074   2.643  2.1327  2.8209 -1.4024
14810TIP3    H265846   4.263  -0.035   2.578  0.6393  0.3133  0.8082
14811TIP3   OH265847   3.557   6.642  14.900  0.1707  0.4884  0.2768
14811TIP3    H165848   3.643   6.678  14.881  1.1519 -1.0182  1.7432
14811TIP3    H265849   3.569   6.589  14.979 -2.4029  1.3934  1.3455
14812TIP3   OH265850   5.447   0.173  12.476  0.8415  0.3017  0.6004
14812TIP3    H165851   5.531   0.219  12.480  2.9334 -3.3384  0.4420
14812TIP3    H265852   5.440   0.129  12.561  0.1871 -1.2327 -0.2395
14813TIP3   OH265853   1.280   4.266   4.191 -0.2611 -0.2452 -0.1532
14813TIP3    H165854   1.264   4.188   4.244 -2.6427  0.2060 -0.1790
14813TIP3    H265855   1.214   4.263   4.123 -1.1663  2.4200  0.5456
14814TIP3   OH265856   2.933   5.587  14.050 -0.0321 -0.2891  0.2176
14814TIP3    H165857   2.987   5.639  13.991  1.1222  0.2023  1.6609
14814TIP3    H265858   2.934   5.636  14.132 -0.2670 -1.7657  1.1203
14815TIP3   OH265859   5.971   4.290   0.187  0.4954 -0.4111 -1.0960
14815TIP3    H165860   6.060   4.296   0.153  0.3035  0.9060 -1.3848
14815TIP3    H265861   5.956   4.373   0.232 -0.6208 -0.5777 -1.1382
14816TIP3   OH265862   4.254   0.153   4.595  0.3931  0.1251  0.6761
14816TIP3    H165863   4.337   0.124   4.558 -0.5642 -0.1859 -1.3138
14816TIP3    H265864   4.190   0.136   4.526 -1.4585 -0.3953  2.4766
14817TIP3   OH265865   5.683   2.110   6.362 -0.1415  0.1778  0.3425
14817TIP3    H165866   5.729   2.194   6.360 -1.6130  0.9574 -2.5998
14817TIP3    H265867   5.702   2.070   6.277 -0.5887 -1.8665  1.1797
14818TIP3   OH265868   4.695   1.298  15.689 -0.0577  0.4591 -0.5651
14818TIP3    H165869   4.769   1.341  15.730 -1.0196 -0.2082  1.9839
14818TIP3    H265870   4.733   1.233  15.631  1.3790 -0.1730  1.0440
14819TIP3   OH265871   2.970   4.703   0.492  0.4741 -0.6168  0.7114
14819TIP3    H165872   2.986   4.765   0.563  0.8991 -0.8859  0.8464
14819TIP3    H265873   2.875   4.706   0.479  0.3850 -0.6495  1.3586
14820TIP3   OH265874   3.122   6.473   1.009 -0.7837  0.1731  0.1038
14820TIP3    H165875   3.096   6.517   1.090 -1.2370  0.9973 -0.4893
14820TIP3    H265876   3.122   6.380   1.032 -2.5277  0.2805  0.6075
14821TIP3   OH265877   2.158   5.884   4.376 -0.7003  0.7114 -0.4718
14821TIP3    H165878   2.208   5.963   4.397  0.6983  0.3052 -2.1090
14821TIP3    H265879   2.207   5.844   4.303 -1.5446 -1.5125  0.1463
14822TIP3   OH265880   2.371   5.377   3.009  0.4554  0.7135 -0.1146
14822TIP3    H165881   2.376   5.376   3.104  1.4584  0.6889 -0.1619
14822TIP3    H265882   2.279   5.392   2.990 -0.1583 -1.6880  0.8459
14823TIP3   OH265883   5.900   0.556  17.128 -0.4349 -0.5096  0.5499
14823TIP3    H165884   5.868   0.584  17.042  1.7732  0.7026  0.0817
14823TIP3    H265885   5.871   0.465  17.136  0.3799 -1.0279 -2.0124
14824TIP3   OH265886   5.620   6.583  16.173  0.0450 -0.2597 -0.2380
14824TIP3    H165887   5.687   6.565  16.108 -0.8575 -1.9355 -0.7449
14824TIP3    H265888   5.667   6.625  16.245  1.5020 -0.7778 -0.8606
14825TIP3   OH265889   5.119   2.575  15.093  0.2805  0.5444  0.2254
14825TIP3    H165890   5.102   2.580  15.187 -1.1030  2.3667 -0.0916
14825TIP3    H265891   5.152   2.486  15.079 -1.3380 -0.3849  2.1367
14826TIP3   OH265892   5.293   0.512  11.786 -0.1805 -0.6206 -0.2478
14826TIP3    H165893   5.303   0.600  11.750  0.2715 -1.0526 -1.1771
14826TIP3    H265894   5.343   0.514  11.868  0.5588 -0.2782 -0.7046
14827TIP3   OH265895   1.076   6.454   0.977 -0.2295 -0.1601  0.1331
14827TIP3    H165896   1.105   6.452   0.886  2.3157 -1.9288  0.9303
14827TIP3    H265897   1.050   6.364   0.995  1.2489 -0.2616  1.7666
14828TIP3   OH265898   4.883   5.373   1.092  0.7290 -0.1112 -0.5332
14828TIP3    H165899   4.917   5.288   1.063 -1.0204 -0.3902 -1.8699
14828TIP3    H265900   4.800   5.383   1.046  1.1290  2.5653 -0.7899
14829TIP3   OH265901   5.233   0.595  16.342  0.4417 -0.2875  0.0393
14829TIP3    H165902   5.286   0.673  16.358 -1.7515  0.9216  1.6823
14829TIP3    H265903   5.164   0.625  16.282 -0.9964 -0.6823  1.4573
14830TIP3   OH265904   3.708   2.676   0.518 -0.1527 -0.2162  0.4438
14830TIP3    H165905   3.644   2.670   0.589  0.6478 -0.1323  1.1888
14830TIP3    H265906   3.790   2.645   0.558  0.5515  0.8668 -0.1392
14831TIP3   OH265907   5.184   3.234   3.749  0.4739  0.1393  0.7360
14831TIP3    H165908   5.163   3.324   3.771 -0.4953 -0.3277  1.7841
14831TIP3    H265909   5.255   3.210   3.807  0.5853  0.1581  0.6079
14832TIP3   OH265910   6.366   3.633  10.966 -0.5215  0.3543  0.1618
14832TIP3    H165911   6.344   3.618  11.058  0.2170 -1.7014  0.0348
14832TIP3    H265912   6.334   3.555  10.921  1.9031 -0.1179 -0.8336
14833TIP3   OH265913   6.228   2.357  14.309  0.3258  0.1222  0.1280
14833TIP3    H165914   6.288   2.393  14.244 -1.7083  1.4166 -1.1078
14833TIP3    H265915   6.159   2.316  14.257 -0.3970 -0.4361  1.5101
14834TIP3   OH265916   0.639   4.634   6.255 -0.1661  0.3210  0.5025
14834TIP3    H165917   0.657   4.728   6.262 -0.1606  0.2078  2.1965
14834TIP3    H265918   0.704   4.592   6.311  3.0204 -1.1136 -3.9994
14835TIP3   OH265919   4.764   1.681   3.865 -0.8062 -0.7632  0.1368
14835TIP3    H165920   4.847   1.718   3.836 -2.0529  0.7878 -1.5326
14835TIP3    H265921   4.770   1.679   3.960  0.3428  1.2901  0.1244
14836TIP3   OH265922   0.902   3.416   0.636 -0.2075  0.2333 -0.4352
14836TIP3    H165923   0.913   3.445   0.546  1.2653 -0.3576 -0.4573
14836TIP3    H265924   0.982   3.368   0.656 -0.2510  0.8825  1.3830
14837TIP3   OH265925   4.327   5.022   1.832 -0.3893 -0.0787 -0.1347
14837TIP3    H165926   4.243   4.989   1.801 -0.7178  0.6372 -0.0229
14837TIP3    H265927   4.309   5.055   1.921 -0.2902  1.2270 -0.5827
14838TIP3   OH265928   5.571   4.960   2.640  0.1625 -0.6247  0.5142
14838TIP3    H165929   5.495   5.012   2.663  1.3689  0.8050  1.3428
14838TIP3    H265930   5.543   4.907   2.565 -1.2624  0.7744  0.0529
14839TIP3   OH265931   1.920   2.306  16.575  0.3285 -0.0820  0.3471
14839TIP3    H165932   1.886   2.251  16.504 -0.9934  0.2130  0.7340
14839TIP3    H265933   1.842   2.347  16.613  1.1318  0.6508  1.2332
14840TIP3   OH265934   1.632   0.820   5.350  0.4109  0.2606 -1.0633
14840TIP3    H165935   1.596   0.804   5.437  1.0217  0.9891 -0.6659
14840TIP3    H265936   1.710   0.764   5.346  0.8896  0.8976 -0.7920
14841TIP3   OH265937   3.878   4.928   1.936 -0.2618 -0.0474 -0.3548
14841TIP3    H165938   3.852   4.994   1.999 -0.2872 -3.4932  3.4530
14841TIP3    H265939   3.966   4.903   1.963  0.3913 -0.4404 -2.7400
14842TIP3   OH265940   5.160   6.688  12.642  0.5255  0.0331 -0.1767
14842TIP3    H165941   5.147   6.601  12.602  0.3179  0.2928 -0.6811
14842TIP3    H265942   5.124   6.749  12.578 -0.5672  0.4042  0.7769
14843TIP3   OH265943   2.643   3.548  16.427 -0.1119 -0.0682 -0.4667
14843TIP3    H165944   2.653   3.637  16.393 -1.4810 -0.0118 -0.7524
14843TIP3    H265945   2.653   3.492  16.351 -0.3253 -0.0969 -0.4753
14844TIP3   OH265946   2.857   6.340   1.154  0.1246 -0.2040 -0.7113
14844TIP3    H165947   2.934   6.293   1.185  1.0231  0.8010 -1.4076
14844TIP3    H265948   2.794   6.331   1.226  1.0379 -0.6353  0.0537
14845TIP3   OH265949   5.287   6.452   1.643  0.4024  0.4778 -0.1121
14845TIP3    H165950   5.351   6.386   1.669 -0.1364  0.1861  0.4900
14845TIP3    H265951   5.340   6.526   1.614  1.0081  0.5434  1.1410
14846TIP3   OH265952   2.507   0.042   2.943  0.3858  0.4396 -0.2267
14846TIP3    H165953   2.563  -0.003   2.880 -0.2085 -0.4776 -0.1037
14846TIP3    H265954   2.547   0.026   3.028 -0.2256 -0.4786 -0.1053
14847TIP3   OH265955   3.451   3.962  12.403 -0.2786 -0.0522 -0.1095
14847TIP3    H165956   3.510   3.943  12.476  0.7306 -0.8677 -1.1156
14847TIP3    H265957   3.452   4.057  12.395  0.1733 -0.0079  0.4808
14848TIP3   OH265958   2.868   5.297   1.193 -0.3726 -0.1694  0.1863
14848TIP3    H165959   2.851   5.335   1.107 -0.6131  0.3389  0.4604
14848TIP3    H265960   2.850   5.367   1.255  4.1675  0.9439  0.4493
14849TIP3   OH265961   6.572   3.137   4.321 -0.1170 -0.5871  0.0790
14849TIP3    H165962   6.647   3.174   4.367 -0.6115  0.0369  0.3851
14849TIP3    H265963   6.518   3.212   4.297 -0.3431 -0.9782 -0.6835
14850TIP3   OH265964   4.828   3.015  12.279  0.4340  0.1042  0.3130
14850TIP3    H165965   4.767   2.941  12.281  0.0917  0.4018  2.1765
14850TIP3    H265966   4.776   3.090  12.309  0.9513  0.9652 -0.9098
14851TIP3   OH265967   4.059   6.710   0.654  0.0869 -0.1019 -0.7150
14851TIP3    H165968   4.094   6.689   0.741 -0.9699 -0.2479 -0.3223
14851TIP3    H265969   3.984   6.651   0.643  0.1846 -0.0456 -1.7054
14852TIP3   OH265970   1.189   1.997   2.436  0.4573  0.1724  0.1880
14852TIP3    H165971   1.249   2.071   2.447 -0.7059  1.0033  1.0580
14852TIP3    H265972   1.151   1.984   2.523 -1.1602  0.1261 -0.5172
14853TIP3   OH265973   4.150   6.118   1.721 -0.2549  0.3640  0.7488
14853TIP3    H165974   4.128   6.125   1.815  0.6122  0.8263  0.9205
14853TIP3    H265975   4.237   6.079   1.720  0.3544  1.6976  0.1904
14854TIP3   OH265976   5.382   3.869  15.130  0.2097 -0.4212  0.3249
14854TIP3    H165977   5.290   3.853  15.151  0.4623  0.5406  2.3074
14854TIP3    H265978   5.380   3.919  15.049 -1.0081 -0.5554  0.2620
14855TIP3   OH265979   0.788   4.507  11.503  1.0589  0.5808 -0.5982
14855TIP3    H165980   0.761   4.441  11.440  1.3870  1.5066 -1.7252
14855TIP3    H265981   0.706   4.547  11.533  0.6469 -2.1145  2.1126
14856TIP3   OH265982   0.264   5.918   2.121 -0.5535  0.4625  0.2522
14856TIP3    H165983   0.281   5.951   2.209 -3.8238  1.4871  0.5642
14856TIP3    H265984   0.234   5.995   2.073 -1.1436 -0.5912 -1.0791
14857TIP3   OH265985   3.248   2.466   5.837  0.4249 -0.5522  0.5459
14857TIP3    H165986   3.206   2.381   5.826  1.1709 -0.8543 -0.0175
14857TIP3    H265987   3.186   2.517   5.889 -0.0934 -1.3892  0.7559
14858TIP3   OH265988   2.305   4.717   4.932 -0.2540 -0.3247  0.2771
14858TIP3    H165989   2.385   4.761   4.958 -0.6336  0.3749  0.2578
14858TIP3    H265990   2.288   4.748   4.843 -2.0583  1.7117  1.2841
14859TIP3   OH265991   0.599   6.293  15.107 -0.8050 -0.4528 -0.9043
14859TIP3    H165992   0.642   6.212  15.080 -0.0015 -0.0816 -0.7481
14859TIP3    H265993   0.559   6.328  15.027  1.1284  0.3825 -1.5279
14860TIP3   OH265994   1.135   4.275  13.287 -0.0033 -0.1662 -0.5000
14860TIP3    H165995   1.070   4.222  13.333  0.9028 -0.4169  0.5144
14860TIP3    H265996   1.216   4.223  13.290  0.2171  0.0617 -1.8960
14861TIP3   OH265997   1.453   5.259  13.391 -0.3473  0.1373  0.0164
14861TIP3    H165998   1.451   5.283  13.484 -0.3692  0.0748  0.0326
14861TIP3    H265999   1.387   5.314  13.350 -1.5454 -1.0373  0.3320
14862TIP3   OH266000   5.939   0.188  15.812  0.1233  0.1673 -0.4460
14862TIP3    H166001   5.845   0.199  15.823  0.5504  2.6544  1.2591
14862TIP3    H266002   5.949   0.104  15.768 -2.9131  0.1919 -1.2859
14863TIP3   OH266003   5.123   6.320   2.634 -0.4593  0.5671 -0.0303
14863TIP3    H166004   5.129   6.241   2.689  1.9708 -1.2450 -2.7767
14863TIP3    H266005   5.032   6.322   2.604 -0.9349 -0.2951  1.3235
14864TIP3   OH266006   6.270   4.002   3.957  0.3561 -0.0992  0.3133
14864TIP3    H166007   6.205   4.031   4.021 -1.0562  0.3930 -1.2924
14864TIP3    H266008   6.322   4.081   3.938  0.1795 -0.0116  0.1854
14865TIP3   OH266009   2.173   4.269  15.714  0.5400  0.1139  0.0859
14865TIP3    H166010   2.149   4.313  15.632  0.2849  0.5618  0.3908
14865TIP3    H266011   2.172   4.340  15.779  0.5687 -0.2725  0.5052
14866TIP3   OH266012   1.184   3.848  13.306  0.0383 -0.1778 -0.4401
14866TIP3    H166013   1.268   3.841  13.261  0.7758 -0.6729  0.9797
14866TIP3    H266014   1.135   3.771  13.277  0.4655 -0.4403 -0.4718
14867TIP3   OH266015   5.081   5.165  14.083  0.6612  0.2047  0.1746
14867TIP3    H166016   5.175   5.151  14.076  0.8958  1.3053  0.9500
14867TIP3    H266017   5.050   5.092  14.137  0.7609 -1.2114 -1.6198
14868TIP3   OH266018   4.744   1.108  12.134  0.1582  0.0844  0.1085
14868TIP3    H166019   4.704   1.078  12.216  1.0972 -0.8784  0.2173
14868TIP3    H266020   4.670   1.138  12.081 -0.4275  1.0244  1.4325
14869TIP3   OH266021   3.041   6.010   6.065  0.2541 -0.2742  0.5045
14869TIP3    H166022   3.047   6.002   5.970  1.3698  1.7848  0.3797
14869TIP3    H266023   3.013   6.101   6.080 -1.8703 -1.1519  2.0873
14870TIP3   OH266024   6.160   4.031  14.772 -0.1776  0.5791 -0.5504
14870TIP3    H166025   6.156   4.113  14.723  1.9551  1.4269  0.6065
14870TIP3    H266026   6.237   3.985  14.736 -1.1470 -0.7651 -0.9547
14871TIP3   OH266027   4.958   2.902  15.237  0.4156  0.0316 -0.0302
14871TIP3    H166028   4.920   2.830  15.186 -2.2947  1.3019  0.0775
14871TIP3    H266029   4.989   2.964  15.171  1.9596 -0.8065 -0.1168
14872TIP3   OH266030   0.558   2.359  13.265 -0.2837  0.1466 -0.6534
14872TIP3    H166031   0.547   2.454  13.264  0.1544  0.2005 -0.7944
14872TIP3    H266032   0.474   2.325  13.293 -0.0776  0.6312  0.5803
14873TIP3   OH266033   2.624   0.018  14.452  1.1157  0.0049 -0.0414
14873TIP3    H166034   2.670  -0.024  14.524  0.3883  0.6403  0.8131
14873TIP3    H266035   2.688   0.021  14.381  1.6234 -1.2378  0.3496
14874TIP3   OH266036   6.560   0.644  12.239  0.7518 -0.0435  0.0126
14874TIP3    H166037   6.549   0.632  12.334 -1.0764 -0.3581 -0.2218
14874TIP3    H266038   6.556   0.555  12.204  3.2828 -0.1010 -0.1986
14875TIP3   OH266039   3.312   3.773   4.854  0.4718 -0.3206 -0.1714
14875TIP3    H166040   3.400   3.741   4.838 -0.0416 -1.3335 -0.9769
14875TIP3    H266041   3.266   3.700   4.894 -0.4026 -0.2627 -1.0459
14876TIP3   OH266042   2.943   4.688  15.728 -0.2421 -0.2831 -0.4101
14876TIP3    H166043   2.918   4.612  15.675 -0.1222 -0.0610 -0.7931
14876TIP3    H266044   2.964   4.756  15.663  1.1739 -0.4074 -0.1026
14877TIP3   OH266045   0.940   3.614  16.948 -0.1713  0.4453  0.1887
14877TIP3    H166046   0.970   3.523  16.948 -0.0594  0.4674 -0.7929
14877TIP3    H266047   0.941   3.641  17.040  0.2788 -0.3876  0.4299
14878TIP3   OH266048   6.501   0.598  14.342  0.2882  0.1964 -0.4585
14878TIP3    H166049   6.576   0.646  14.306 -0.1115  0.5614 -0.8054
14878TIP3    H266050   6.430   0.615  14.280  0.5490 -2.1190 -1.4252
14879TIP3   OH266051   2.041   3.075   0.498  0.7563  0.2280  0.2193
14879TIP3    H166052   1.950   3.103   0.488  0.4176 -1.8042 -3.0426
14879TIP3    H266053   2.078   3.078   0.409  3.9680  1.2604  1.5094
14880TIP3   OH266054   4.420   3.008   0.124  0.3377 -0.1547 -0.5164
14880TIP3    H166055   4.481   3.068   0.167 -1.1316  0.0033  1.3707
14880TIP3    H266056   4.464   2.923   0.128  0.6817  0.0583  0.3664
14881TIP3   OH266057   4.978   3.240   4.673 -0.0620 -0.0001 -0.0696
14881TIP3    H166058   5.012   3.229   4.584 -0.6662  0.0922 -0.3131
14881TIP3    H266059   4.923   3.163   4.687  0.4114 -0.2565  0.4050
14882TIP3   OH266060   6.175   6.419  12.555 -0.2189  0.3585 -0.5216
14882TIP3    H166061   6.216   6.344  12.513 -0.1726 -0.4581  0.9406
14882TIP3    H266062   6.190   6.492  12.494  2.3577 -0.1724 -0.6082
14883TIP3   OH266063   3.669   6.125  13.973 -0.2056 -0.0528 -0.2215
14883TIP3    H166064   3.604   6.185  14.010 -0.1223 -0.9481  1.4125
14883TIP3    H266065   3.669   6.144  13.879 -2.7591  0.0148 -0.2329
14884TIP3   OH266066   1.172   5.728   5.503  0.3590  0.4576  0.3995
14884TIP3    H166067   1.229   5.805   5.503  0.9187  0.0692 -1.6151
14884TIP3    H266068   1.201   5.676   5.579  2.0500  0.7325 -0.0486
14885TIP3   OH266069   4.009   4.212  12.389 -0.8644 -0.3622  0.2634
14885TIP3    H166070   3.976   4.234  12.302  2.8352 -1.3986 -1.4895
14885TIP3    H266071   4.029   4.296  12.430 -0.9041  0.0543 -0.5767
14886TIP3   OH266072   6.449   5.555  13.501  0.3709 -0.0764  0.5882
14886TIP3    H166073   6.371   5.555  13.556  0.4214  2.1596  0.6753
14886TIP3    H266074   6.472   5.647  13.490  1.4532 -0.5588 -1.6358
14887TIP3   OH266075   0.665   6.671   2.759  0.4809 -0.3761 -0.0170
14887TIP3    H166076   0.676   6.726   2.682 -1.6225  0.0849 -0.0188
14887TIP3    H266077   0.613   6.724   2.819  2.0325 -0.7694  1.6901
14888TIP3   OH266078   6.554   1.204   4.014 -0.0488 -0.6005 -0.0292
14888TIP3    H166079   6.502   1.274   3.975  0.4665 -0.0773  0.2084
14888TIP3    H266080   6.640   1.212   3.973  0.7445  0.4786  1.8071
14889TIP3   OH266081   0.593   1.204  16.511 -0.0103  0.2402  0.5086
14889TIP3    H166082   0.600   1.300  16.516  2.2896  0.1051  0.3942
14889TIP3    H266083   0.596   1.174  16.601  2.2361  0.1268  0.4237
14890TIP3   OH266084   6.780   3.505   1.998  0.7989  0.2981 -0.0756
14890TIP3    H166085   6.779   3.592   2.038  1.0821 -0.4488  1.6043
14890TIP3    H266086   6.847   3.510   1.930  2.9092  0.5608  1.9758
14891TIP3   OH266087   0.731   0.819  14.053  0.5007  0.4222  0.2195
14891TIP3    H166088   0.795   0.752  14.076 -1.0544 -1.3658 -0.5258
14891TIP3    H266089   0.758   0.896  14.103  3.5552 -0.0864 -0.4817
14892TIP3   OH266090   5.956   1.421  11.954  0.8269  0.4352  0.3641
14892TIP3    H166091   6.023   1.458  12.012  1.6552  1.2414 -1.0657
14892TIP3    H266092   5.881   1.480  11.962  0.4761 -0.1489  1.5321
14893TIP3   OH266093   6.513   4.965  14.555  0.2666 -0.4854  0.3369
14893TIP3    H166094   6.453   5.031  14.520  0.2685 -0.2363  0.7944
14893TIP3    H266095   6.598   5.009  14.558  0.9868 -1.6135 -2.6109
14894TIP3   OH266096   1.089   6.467  14.242  0.1190  0.2195  0.0587
14894TIP3    H166097   1.023   6.528  14.274  0.9642  1.1959 -0.0253
14894TIP3    H266098   1.039   6.395  14.204 -0.8935  0.1783  1.4165
14895TIP3   OH266099   0.553   5.048   2.081  0.0321 -0.2044 -0.1608
14895TIP3    H166100   0.528   5.033   1.990 -0.9918 -0.2576  0.1280
14895TIP3    H266101   0.480   5.097   2.119  0.4984 -0.0886  0.6075
14896TIP3   OH266102   6.214   0.200  14.894 -0.4186  0.1067 -0.4604
14896TIP3    H166103   6.276   0.207  14.821 -0.9107  2.1303 -0.7100
14896TIP3    H266104   6.143   0.260  14.871 -1.6216 -0.8633  0.6656
14897TIP3   OH266105   0.440   5.627   4.490  0.6973 -0.2141 -0.4915
14897TIP3    H166106   0.369   5.593   4.435  1.6312  0.5079 -2.1860
14897TIP3    H266107   0.513   5.639   4.430  1.4329  1.6131  0.7208
14898TIP3   OH266108   1.297   1.538   3.986  0.3634 -0.3375  0.2236
14898TIP3    H166109   1.289   1.443   3.979  2.1604 -0.4473 -0.4565
14898TIP3    H266110   1.269   1.557   4.076  0.3525 -1.5504  0.4960
14899TIP3   OH266111   5.426   3.299  13.242 -0.1783 -0.0597  0.6255
14899TIP3    H166112   5.433   3.394  13.239  2.8076 -0.2416  0.5472
14899TIP3    H266113   5.393   3.274  13.156 -0.3337  0.8411  0.4196
14900TIP3   OH266114   5.059   0.182  15.466 -0.3028  0.0599 -0.0276
14900TIP3    H166115   5.019   0.244  15.405 -2.3977 -0.7918  0.4261
14900TIP3    H266116   5.133   0.230  15.504 -0.9206  1.7172 -0.8620
14901TIP3   OH266117   4.660   4.939   1.227  0.0823  0.3076 -0.1526
14901TIP3    H166118   4.737   4.891   1.198 -0.3396  0.1268 -0.9943
14901TIP3    H266119   4.694   5.005   1.288  0.8743  0.0957 -0.3608
14902TIP3   OH266120   5.859   1.440   0.703  0.2966  0.1219  0.2707
14902TIP3    H166121   5.790   1.469   0.764 -0.7350  0.0390 -0.8337
14902TIP3    H266122   5.836   1.349   0.683  0.4963  0.2285 -0.4352
14903TIP3   OH266123   2.558   5.440   1.276  0.0265  0.1051 -0.0647
14903TIP3    H166124   2.586   5.387   1.352  1.6709  0.3591 -0.4724
14903TIP3    H266125   2.568   5.382   1.201  0.5694  0.5768 -0.3587
14904TIP3   OH266126   6.785   3.821  12.878 -0.1378 -0.2497  0.1841
14904TIP3    H166127   6.833   3.739  12.894  0.9905  0.4256  0.3348
14904TIP3    H266128   6.695   3.793  12.860 -0.4685 -1.3900  3.1564
14905TIP3   OH266129   0.171   2.838  10.686 -0.1700 -1.2193  0.1314
14905TIP3    H166130   0.138   2.927  10.676  2.1286 -0.2983  0.5913
14905TIP3    H266131   0.264   2.848  10.705 -0.1679 -3.6800  1.6485
14906TIP3   OH266132   4.973   5.590   0.515  0.6245  0.0551 -0.0731
14906TIP3    H166133   4.983   5.643   0.594  0.4221 -0.8644  0.5729
14906TIP3    H266134   4.911   5.522   0.539  2.5932 -1.8313 -0.1942
14907TIP3   OH266135   4.629   4.310  11.781 -0.4951 -0.3108 -0.1197
14907TIP3    H166136   4.697   4.261  11.734 -0.9413 -1.7585  0.7144
14907TIP3    H266137   4.588   4.365  11.714  1.3593  0.4476 -0.6662
14908TIP3   OH266138   3.632   2.602   1.984  0.1354 -0.7681  0.1422
14908TIP3    H166139   3.646   2.544   2.059  0.0852 -0.1149  0.6733
14908TIP3    H266140   3.546   2.641   2.000 -0.3936 -1.4991 -0.8656
14909TIP3   OH266141   3.857   5.486  11.734  0.3871 -0.5839  0.0143
14909TIP3    H166142   3.862   5.471  11.640 -0.6524 -0.7014 -0.0249
14909TIP3    H266143   3.813   5.570  11.743 -0.4808 -1.0818  0.4262
14910TIP3   OH266144   0.650   3.321  14.384  0.4921 -0.5522 -0.1815
14910TIP3    H166145   0.721   3.281  14.433 -0.3569 -0.4702  1.1346
14910TIP3    H266146   0.615   3.388  14.442 -1.5969 -1.5641 -0.2186
14911TIP3   OH266147   2.319   6.473   1.484  0.2678  0.0924 -0.3247
14911TIP3    H166148   2.347   6.385   1.462 -0.1301 -0.0597 -0.2197
14911TIP3    H266149   2.305   6.516   1.400 -2.1494 -0.7724 -0.3942
14912TIP3   OH266150   0.393   1.697   3.267 -0.1809  0.5255  0.1129
14912TIP3    H166151   0.401   1.791   3.282 -0.4842  0.2372  2.2428
14912TIP3    H266152   0.426   1.657   3.348 -0.5364 -1.1774 -0.5702
14913TIP3   OH266153   6.136   2.424   5.028 -0.6011  0.3735  0.5331
14913TIP3    H166154   6.194   2.389   4.960 -1.4527  0.0995 -0.0727
14913TIP3    H266155   6.055   2.446   4.981 -2.4336 -2.9386  1.9946
14914TIP3   OH266156   3.191   0.528   0.026  0.0781  0.4295 -0.2515
14914TIP3    H166157   3.273   0.571   0.003  0.6373 -0.4560  0.0843
14914TIP3    H266158   3.189   0.449  -0.027 -1.0114  0.9254 -0.9554
14915TIP3   OH266159   2.953   1.447   2.010  0.0926 -0.2924  0.9642
14915TIP3    H166160   2.986   1.530   2.043  0.1572  0.2102 -0.3422
14915TIP3    H266161   2.860   1.463   1.994  0.2090 -0.3251  0.2539
14916TIP3   OH266162   4.083   6.618   1.136 -0.2513  0.1061 -0.9969
14916TIP3    H166163   4.100   6.616   1.230  0.7724 -0.4944 -1.1856
14916TIP3    H266164   4.046   6.705   1.120  1.0789  0.8191 -0.2835
14917TIP3   OH266165   3.027   1.621   4.401  0.3076  0.1273  0.0301
14917TIP3    H166166   3.114   1.611   4.439  1.3823  1.8319 -1.9147
14917TIP3    H266167   2.989   1.697   4.446  1.3432  1.7685 -1.8272
14918TIP3   OH266168   1.006   1.476   2.774 -0.0918 -0.1303 -0.0210
14918TIP3    H166169   0.980   1.486   2.682  1.6272  0.3152 -0.4769
14918TIP3    H266170   1.026   1.383   2.783 -3.1234 -0.7605  0.7063
14919TIP3   OH266171   4.537   4.944   4.522  0.3459 -0.2665 -0.4166
14919TIP3    H166172   4.557   4.852   4.541  1.6642 -0.1241 -1.0801
14919TIP3    H266173   4.570   4.958   4.433  0.8404  1.0415 -0.0408
14920TIP3   OH266174   0.548   6.348   3.317 -0.0602 -0.4318  0.3363
14920TIP3    H166175   0.487   6.277   3.297 -0.2344 -0.4981  1.0970
14920TIP3    H266176   0.628   6.304   3.345  0.1601 -0.3395 -0.1482
14921TIP3   OH266177   0.977   6.013  12.344  0.1747  0.2104 -0.0085
14921TIP3    H166178   1.034   6.082  12.377  2.4881 -0.6168 -2.0495
14921TIP3    H266179   0.931   5.979  12.421  3.3241  0.1549  1.9171
14922TIP3   OH266180   6.124   5.708   2.658 -0.0662 -0.5754 -0.0006
14922TIP3    H166181   6.166   5.638   2.708 -0.1969 -0.6853 -0.0485
14922TIP3    H266182   6.031   5.688   2.660 -0.0240 -0.8607 -0.7318
14923TIP3   OH266183   1.011   0.888   2.979 -0.0167  0.4290  0.2939
14923TIP3    H166184   1.046   0.819   3.036 -3.0695  1.6985  3.8884
14923TIP3    H266185   1.067   0.963   2.995 -0.4393  0.5752  1.0927
14924TIP3   OH266186   2.726   4.529   5.503  0.2093 -0.2285 -0.3518
14924TIP3    H166187   2.802   4.586   5.493  1.0915 -1.3352 -0.0826
14924TIP3    H266188   2.691   4.551   5.590  1.1226 -0.7603  0.1616
14925TIP3   OH266189   0.272   2.224  15.739 -0.5533 -0.7598 -0.4250
14925TIP3    H166190   0.211   2.277  15.791 -0.7602 -1.8788  0.4725
14925TIP3    H266191   0.261   2.135  15.772  0.6034 -1.1871 -1.1803
14926TIP3   OH266192   4.466   1.477  14.053  0.2429 -0.6235  0.4614
14926TIP3    H166193   4.528   1.412  14.021  1.4662  0.1155  1.2158
14926TIP3    H266194   4.384   1.458  14.009  0.7613 -2.2549  0.1900
14927TIP3   OH266195   4.763   2.094   3.002  0.1312  0.3894 -0.2242
14927TIP3    H166196   4.835   2.135   2.953 -0.5659 -1.7569 -3.1706
14927TIP3    H266197   4.774   2.000   2.987 -1.4263 -0.2000  2.0094
14928TIP3   OH266198   6.352   1.560   0.770  0.0410 -0.2572  0.1656
14928TIP3    H166199   6.266   1.530   0.799 -0.1408  0.3271  0.2435
14928TIP3    H266200   6.363   1.645   0.813 -0.1158  0.4948 -1.2646
14929TIP3   OH266201   0.231   4.362  15.592 -0.2523 -0.1300  0.2518
14929TIP3    H166202   0.231   4.269  15.613 -0.9011 -0.2946 -0.4655
14929TIP3    H266203   0.199   4.404  15.672  2.2047 -0.3202  1.3642
14930TIP3   OH266204   1.838   3.830  13.607  0.4760  0.6233 -0.1465
14930TIP3    H166205   1.881   3.752  13.642  0.9572  0.0498 -1.9532
14930TIP3    H266206   1.768   3.796  13.551  0.5167  1.4755 -0.7303
14931TIP3   OH266207   6.346   2.679   2.506 -0.5221  0.1387  0.3780
14931TIP3    H166208   6.422   2.622   2.495 -2.1462 -1.8896 -0.6236
14931TIP3    H266209   6.362   2.725   2.588  0.9849 -1.5346  1.0418
14932TIP3   OH266210   3.689   1.772  14.865 -0.7370 -0.6003 -0.3237
14932TIP3    H166211   3.658   1.821  14.942 -4.0938 -2.5049 -0.3952
14932TIP3    H266212   3.711   1.840  14.801 -1.7753  0.8950  0.8693
14933TIP3   OH266213   6.632   1.730   0.227  0.1072 -0.7226  0.1004
14933TIP3    H166214   6.652   1.638   0.239  0.2127 -0.9947 -1.9312
14933TIP3    H266215   6.536   1.734   0.226  0.1047 -1.0590 -1.4776
14934TIP3   OH266216   5.308   2.338  11.777  0.0152  0.2707 -0.2648
14934TIP3    H166217   5.251   2.383  11.716  0.9644  1.9999  0.0901
14934TIP3    H266218   5.250   2.284  11.830 -1.0546  0.5109 -1.1853
14935TIP3   OH266219   6.051   4.873  15.255 -0.1531  0.0864  0.7916
14935TIP3    H166220   6.112   4.929  15.206  0.2075 -0.9394  0.0394
14935TIP3    H266221   6.098   4.790  15.264 -1.6031 -0.8553 -0.1917
14936TIP3   OH266222   2.228   2.840   3.761  0.3796  0.0459 -0.2079
14936TIP3    H166223   2.236   2.910   3.696  0.2189 -0.6009 -0.9363
14936TIP3    H266224   2.157   2.868   3.818  0.3139  0.4707 -0.4940
14937TIP3   OH266225   5.297   3.793   4.954 -0.1957  0.2713 -0.1477
14937TIP3    H166226   5.298   3.716   5.011  1.2367  1.6651  1.7468
14937TIP3    H266227   5.369   3.778   4.893 -0.7804 -0.5074 -0.6679
14938TIP3   OH266228   6.274   1.146  12.299 -0.1610 -0.6251 -0.5480
14938TIP3    H166229   6.189   1.179  12.272 -0.6431 -0.1114  1.5197
14938TIP3    H266230   6.328   1.224  12.310 -0.6447 -0.5976  2.1258
14939TIP3   OH266231   0.693   1.220  16.074 -0.0968  0.1281  0.0011
14939TIP3    H166232   0.737   1.189  15.995 -0.7956  0.6662 -0.6168
14939TIP3    H266233   0.630   1.285  16.042  0.4950  1.2826  1.1339
14940TIP3   OH266234   3.008   4.234  11.303 -0.1213 -0.1859  0.1307
14940TIP3    H166235   2.979   4.165  11.245 -0.4346  0.4547 -0.4864
14940TIP3    H266236   2.942   4.303  11.293  0.7384  0.6267 -0.0487
14941TIP3   OH266237   4.310   2.671   0.499  0.2342 -0.1093  0.4741
14941TIP3    H166238   4.263   2.710   0.426  0.3931 -0.0109  0.4246
14941TIP3    H266239   4.345   2.745   0.548 -1.3516 -0.1074  1.6415
14942TIP3   OH266240   1.306   5.042   1.487  0.3417  0.1067 -0.0863
14942TIP3    H166241   1.291   5.079   1.400 -0.8395  0.0810  0.0988
14942TIP3    H266242   1.258   5.100   1.546 -1.8177 -1.8785  0.1808
14943TIP3   OH266243   1.530   1.970  11.740  0.3642 -0.1570  0.4216
14943TIP3    H166244   1.439   1.984  11.714  0.9807  0.5210 -1.4697
14943TIP3    H266245   1.549   1.880  11.711  0.2880 -0.3139  0.8552
14944TIP3   OH266246   1.852   6.134  12.239  0.0719  0.3339  0.5428
14944TIP3    H166247   1.915   6.122  12.310 -1.5881 -0.3690  1.9399
14944TIP3    H266248   1.839   6.229  12.234  0.0533  0.3774  1.3200
14945TIP3   OH266249   5.470   3.784   4.267 -0.6443  0.2779 -0.2599
14945TIP3    H166250   5.428   3.806   4.184  2.1759  1.5370 -1.4075
14945TIP3    H266251   5.424   3.706   4.298 -2.3399  0.3552 -2.5324
14946TIP3   OH266252   5.841   5.871  13.163  0.3137  0.0644 -0.0674
14946TIP3    H166253   5.788   5.829  13.230 -2.4865  0.2753 -2.0573
14946TIP3    H266254   5.827   5.965  13.176  3.2519  0.3338  1.7353
14947TIP3   OH266255   1.791   1.670  12.810 -0.3180  0.5253 -0.2944
14947TIP3    H166256   1.811   1.753  12.767  0.0467 -0.2360 -1.6456
14947TIP3    H266257   1.761   1.613  12.739  0.6795 -0.8964  0.4000
14948TIP3   OH266258   1.709   2.743  16.719  0.0204 -0.2850 -0.2634
14948TIP3    H166259   1.713   2.713  16.809  2.2099 -0.3206 -0.3517
14948TIP3    H266260   1.715   2.838  16.725  0.7835 -0.3228 -0.4039
14949TIP3   OH266261   0.607   2.366   3.041  0.0800  0.1071 -0.8560
14949TIP3    H166262   0.536   2.311   3.071 -0.0995  0.4832 -0.5826
14949TIP3    H266263   0.658   2.386   3.120  0.8984 -0.7394 -1.1607
14950TIP3   OH266264   2.685   0.920  10.997  0.5583 -0.0197  0.0775
14950TIP3    H166265   2.638   0.948  11.075  0.4359  0.6201 -0.2225
14950TIP3    H266266   2.624   0.863  10.951  0.3433  0.2244  0.0581
14951TIP3   OH266267   2.422   5.187  15.711  0.0395  0.8777 -0.1834
14951TIP3    H166268   2.509   5.153  15.733  1.3848  3.8507 -0.6740
14951TIP3    H266269   2.376   5.112  15.673  2.8871 -0.3637 -1.3290
14952TIP3   OH266270   0.216   4.072  14.531  0.0505  0.3602 -0.4102
14952TIP3    H166271   0.229   4.144  14.470  0.4858  0.6954  0.0740
14952TIP3    H266272   0.281   4.086  14.600  0.8870 -1.1294 -0.8790
14953TIP3   OH266273   1.519   0.526   5.299  0.5665  0.6034 -0.0763
14953TIP3    H166274   1.579   0.584   5.252  1.6890 -0.0092  0.5709
14953TIP3    H266275   1.552   0.438   5.279  2.0569  0.3865  3.1790
14954TIP3   OH266276   3.434   1.951   1.940  0.8628 -0.3535  0.1744
14954TIP3    H166277   3.341   1.960   1.920  1.3915  3.0121 -1.0977
14954TIP3    H266278   3.439   1.955   2.036 -0.1238  1.7390  0.1555
14955TIP3   OH266279   1.475   2.952   0.095  0.5216  0.2679 -0.0312
14955TIP3    H166280   1.422   2.995   0.161 -0.3786  1.4697 -1.5164
14955TIP3    H266281   1.513   3.023   0.044  1.4069 -0.6399 -0.6670
14956TIP3   OH266282   2.015   2.912  14.491 -1.1684 -0.1290 -0.0644
14956TIP3    H166283   1.933   2.882  14.452  0.0025 -1.4349 -1.6147
14956TIP3    H266284   2.079   2.845  14.466  0.4176  0.9690  0.9391
14957TIP3   OH266285   0.433   4.815  12.430 -0.1661 -0.1214  0.0951
14957TIP3    H166286   0.408   4.892  12.378  0.8746  1.4877  1.9473
14957TIP3    H266287   0.364   4.807  12.495 -0.0572 -0.5209  0.1599
14958TIP3   OH266288   1.852   6.261   3.342  0.3388 -0.2374  0.0880
14958TIP3    H166289   1.901   6.330   3.298  1.2755 -1.4802 -0.8250
14958TIP3    H266290   1.865   6.183   3.288 -1.1322 -1.0176  0.8223
14959TIP3   OH266291   1.212   0.388   1.622  0.1118 -0.3448 -0.0496
14959TIP3    H166292   1.231   0.475   1.656  0.9551  0.4211 -2.4058
14959TIP3    H266293   1.117   0.380   1.627  0.1145  0.2702  1.1998
14960TIP3   OH266294   1.270   5.119  17.081 -0.1319 -0.3885  0.1511
14960TIP3    H166295   1.192   5.091  17.031  1.8684 -2.9525 -1.6971
14960TIP3    H266296   1.294   5.203  17.042 -0.8538 -0.5156 -0.6044
14961TIP3   OH266297   4.558   6.704   5.092  0.5159 -0.0132  0.6896
14961TIP3    H166298   4.553   6.667   5.004 -1.5045 -1.5308  1.3937
14961TIP3    H266299   4.613   6.642   5.140  0.0892 -0.1986  0.9475
14962TIP3   OH266300   3.449   4.221  15.455  0.6023  0.0232  0.1258
14962TIP3    H166301   3.385   4.256  15.517 -0.6614 -0.0082 -1.1243
14962TIP3    H266302   3.534   4.254  15.486 -0.1965  1.3859  0.8918
14963TIP3   OH266303   5.686   5.384   3.939 -0.0610 -0.1788 -0.1285
14963TIP3    H166304   5.728   5.300   3.962 -0.2770 -0.4056 -0.5607
14963TIP3    H266305   5.677   5.381   3.844  1.1790  0.9195 -0.3034
14964TIP3   OH266306   6.024   3.623  12.174 -0.2188 -0.1527  0.2586
14964TIP3    H166307   5.936   3.656  12.156  0.3671  1.4755  0.3469
14964TIP3    H266308   6.022   3.597  12.266 -1.3493 -2.5699 -0.3889
14965TIP3   OH266309   1.700   3.649   5.426 -0.5126  0.1115 -0.1946
14965TIP3    H166310   1.681   3.743   5.422  0.9717  0.3850 -0.9173
14965TIP3    H266311   1.732   3.627   5.338 -0.0941 -0.9085  0.2082
14966TIP3   OH266312   1.485   0.012  15.673  0.1149  0.1640 -0.4641
14966TIP3    H166313   1.519   0.081  15.730  0.2938 -0.6781  0.4643
14966TIP3    H266314   1.448  -0.052  15.733  0.1914 -0.6815 -1.3053
14967TIP3   OH266315   2.178   1.239  14.564  0.0849  0.1366  0.0885
14967TIP3    H166316   2.179   1.177  14.491  0.0614  0.7802 -0.4589
14967TIP3    H266317   2.267   1.275  14.566  0.5297 -0.9640  1.3171
14968TIP3   OH266318   2.551   2.955  15.273  0.6055 -0.2656 -0.3602
14968TIP3    H166319   2.630   3.009  15.272  0.3230  0.2275  1.7118
14968TIP3    H266320   2.580   2.871  15.307  0.7297 -0.9232 -2.0634
14969TIP3   OH266321   4.370   0.183  15.511 -0.8762 -0.0814  0.4647
14969TIP3    H166322   4.416   0.132  15.579 -1.1550 -1.3586 -0.2903
14969TIP3    H266323   4.435   0.195  15.442 -0.8363  0.5391  0.6016
14970TIP3   OH266324   4.927   6.619   2.092 -0.5368 -0.0098 -0.3090
14970TIP3    H166325   4.951   6.627   2.185 -0.5154  2.1872 -0.4787
14970TIP3    H266326   4.848   6.565   2.093 -1.5377  1.3953  1.1753
14971TIP3   OH266327   6.349   0.238  10.720 -0.2597 -0.1036 -0.1700
14971TIP3    H166328   6.310   0.194  10.645 -1.7088 -0.2077  0.6323
14971TIP3    H266329   6.326   0.330  10.709 -1.0486 -0.2171  0.4895
14972TIP3   OH266330   6.506   2.714  12.093 -0.2016 -0.2604 -0.2300
14972TIP3    H166331   6.483   2.684  12.181 -0.5391 -1.5243 -0.7485
14972TIP3    H266332   6.424   2.713  12.045 -0.9049  4.5684  0.5644
14973TIP3   OH266333   2.270   5.935  14.993 -0.7401  0.3636  0.1013
14973TIP3    H166334   2.300   5.880  15.065  1.0391  0.1843 -0.7593
14973TIP3    H266335   2.175   5.925  14.993 -0.7468  0.1316  2.2279
14974TIP3   OH266336   6.694   4.694   4.600 -0.2854 -0.0767  0.4916
14974TIP3    H166337   6.644   4.775   4.584 -1.7046 -0.6675  1.8236
14974TIP3    H266338   6.784   4.716   4.576 -0.8154  1.6463  0.0232
14975TIP3   OH266339   4.865   1.167  15.272 -0.3856 -0.7858 -0.2672
14975TIP3    H166340   4.898   1.253  15.246  0.1091 -1.4124 -1.7667
14975TIP3    H266341   4.789   1.152  15.215 -0.3061 -1.4580 -0.2059
14976TIP3   OH266342   0.977   0.056   4.953 -0.2667 -0.2817  0.4070
14976TIP3    H166343   1.015   0.130   4.908 -0.8251  0.1579  0.6520
14976TIP3    H266344   0.918   0.016   4.890  0.5174 -0.9069  0.0590
14977TIP3   OH266345   0.576   1.561  13.290 -0.2875  0.7830  0.2107
14977TIP3    H166346   0.568   1.474  13.329 -0.2211  0.7440  0.1357
14977TIP3    H266347   0.650   1.601  13.336 -0.2505  0.7609  0.1699
14978TIP3   OH266348   2.393   3.916  16.373 -0.2005  0.3507  0.1145
14978TIP3    H166349   2.436   3.889  16.455 -1.1104 -0.1527  0.4385
14978TIP3    H266350   2.311   3.865  16.372 -0.2347  0.4322 -1.0618
14979TIP3   OH266351   5.532   0.078  12.755  0.4435 -0.3928  0.6437
14979TIP3    H166352   5.593   0.151  12.769  0.7315 -0.8242  1.6749
14979TIP3    H266353   5.476   0.077  12.832 -0.9844  0.0781 -0.3604
14980TIP3   OH266354   0.215   4.868   0.457 -0.2123 -0.1501  0.1178
14980TIP3    H166355   0.127   4.881   0.421 -0.3595  1.1537  0.9148
14980TIP3    H266356   0.272   4.870   0.380 -0.7971 -0.1307 -0.3250
14981TIP3   OH266357   4.311   0.597  14.163  0.3579 -0.1941 -0.1845
14981TIP3    H166358   4.370   0.658  14.119  1.0695  0.9024  2.2387
14981TIP3    H266359   4.224   0.634  14.149  0.4563 -0.4577 -1.5964
14982TIP3   OH266360   0.677   6.605   6.334 -0.6316  0.5608  0.0672
14982TIP3    H166361   0.627   6.563   6.404  0.4680 -1.3381 -0.2421
14982TIP3    H266362   0.759   6.632   6.377 -0.1022 -0.2934 -0.3803
14983TIP3   OH266363   5.439   0.333   1.125  0.2767 -0.4826  0.1646
14983TIP3    H166364   5.438   0.372   1.212  1.0248  0.4387 -0.2248
14983TIP3    H266365   5.466   0.404   1.067  1.3830 -1.5009 -0.5990
14984TIP3   OH266366   4.052   5.093  14.731 -0.5481  0.2375 -0.0088
14984TIP3    H166367   4.117   5.157  14.761 -1.8110  1.4157  0.2171
14984TIP3    H266368   4.076   5.076  14.640  1.0511 -0.5674  0.5265
14985TIP3   OH266369   4.582   2.343  16.885  0.0987 -0.0921  0.2482
14985TIP3    H166370   4.580   2.423  16.832 -0.0611  0.6073  1.2906
14985TIP3    H266371   4.491   2.330  16.911  0.3526  0.2340  1.3183
14986TIP3   OH266372   1.125   6.401   4.324 -0.5096 -0.2080  0.1213
14986TIP3    H166373   1.184   6.439   4.259  1.1961  0.7668  2.1850
14986TIP3    H266374   1.134   6.458   4.401 -0.9916 -2.4726  1.8997
14987TIP3   OH266375   0.107   6.657  14.000  0.1205 -0.5814  0.7139
14987TIP3    H166376   0.182   6.697  13.955 -0.3812  0.1208  0.4933
14987TIP3    H266377   0.069   6.598  13.935  1.0174 -1.6319  1.1242
14988TIP3   OH266378   3.250   4.020  13.727 -0.0569  0.3245 -0.1233
14988TIP3    H166379   3.223   4.098  13.678 -1.4016  0.1828  0.3904
14988TIP3    H266380   3.273   4.053  13.814  0.1842  0.2630 -0.1632
14989TIP3   OH266381   5.481   2.889  11.836  0.0293 -0.6851 -0.7142
14989TIP3    H166382   5.496   2.974  11.878 -1.7960 -0.6211 -0.1802
14989TIP3    H266383   5.557   2.837  11.861 -0.5226 -0.3155  1.8309
14990TIP3   OH266384   4.085   4.548   6.088  0.0005  0.3781  0.0193
14990TIP3    H166385   4.062   4.640   6.074  0.1627  0.3815 -0.2299
14990TIP3    H266386   4.134   4.548   6.170 -1.9937  0.1942  1.2470
14991TIP3   OH266387   2.134   0.239   0.942  0.1020 -0.5106  0.1559
14991TIP3    H166388   2.117   0.308   0.878 -1.6692 -1.1065 -0.0391
14991TIP3    H266389   2.180   0.171   0.893 -3.0698 -1.8685 -1.0353
14992TIP3   OH266390   3.886   5.699   3.700 -0.1536 -0.1849  0.7732
14992TIP3    H166391   3.981   5.683   3.699  0.1077  1.2165  2.1323
14992TIP3    H266392   3.852   5.638   3.766 -0.2267 -0.8062  0.1656
14993TIP3   OH266393   4.437   4.595  13.602  0.6167  0.5837 -0.5655
14993TIP3    H166394   4.398   4.508  13.601  0.5751  0.5964  0.1428
14993TIP3    H266395   4.477   4.604  13.515 -0.9290  0.5701 -1.2897
14994TIP3   OH266396   2.476   5.355  11.530  0.0567  0.1811 -0.4868
14994TIP3    H166397   2.386   5.372  11.504 -0.9261 -1.4169  1.7427
14994TIP3    H266398   2.523   5.345  11.447 -2.4389 -2.0806 -1.7128
14995TIP3   OH266399   1.498   1.310   2.869  0.0278 -0.3753  0.2793
14995TIP3    H166400   1.509   1.341   2.779 -0.5600  0.3672  0.4532
14995TIP3    H266401   1.585   1.279   2.895  0.6041  0.9735  0.0295
14996TIP3   OH266402   3.334   4.301   3.036 -0.0302 -0.7337 -0.1947
14996TIP3    H166403   3.349   4.342   2.951  0.2704 -0.1059  0.1511
14996TIP3    H266404   3.351   4.208   3.022  0.2861 -0.5928 -0.7563
14997TIP3   OH266405   6.116   5.392  14.073 -0.4193 -0.0275 -0.0191
14997TIP3    H166406   6.165   5.423  13.997 -0.9741 -1.2255 -0.8937
14997TIP3    H266407   6.083   5.471  14.115  0.7170  0.6961 -0.4601
14998TIP3   OH266408   1.400   4.542   5.931  0.6314 -0.0940 -0.1231
14998TIP3    H166409   1.334   4.516   5.995 -0.8529  0.0781 -1.5684
14998TIP3    H266410   1.471   4.479   5.943 -0.5147 -1.3303  0.2967
14999TIP3   OH266411   5.923   4.530  13.189 -0.5661 -0.5020 -0.1827
14999TIP3    H166412   5.941   4.624  13.191 -0.6303 -0.4629 -1.5025
14999TIP3    H266413   5.928   4.503  13.281 -1.2411  0.9168  0.2798
15000TIP3   OH266414   1.206   3.230  12.324  0.1508 -0.4593 -0.2372
15000TIP3    H166415   1.170   3.180  12.397  1.9095 -0.2441  0.7967
15000TIP3    H266416   1.207   3.169  12.251  1.3568 -1.6572  0.7618
15001TIP3   OH266417   5.994   0.519  14.032 -0.3038 -0.6286  0.4529
15001TIP3    H166418   6.009   0.590  13.968  0.5742 -0.3634  0.9538
15001TIP3    H266419   5.981   0.441  13.978 -1.8460  0.0116 -0.1283
15002TIP3   OH266420   3.362   2.721  16.191  0.0205  0.2466 -0.0163
15002TIP3    H166421   3.446   2.739  16.149  0.5337  0.6986  1.1734
15002TIP3    H266422   3.301   2.783  16.150  0.6738  1.1799  0.4063
15003TIP3   OH266423   4.423   3.147  13.030 -0.1977 -0.7431  0.5170
15003TIP3    H166424   4.487   3.109  13.090  0.1313  0.6924  1.0961
15003TIP3    H266425   4.345   3.162  13.083 -0.1257 -0.0730  0.4374
15004TIP3   OH266426   0.183   2.038   1.975  0.2071  0.4264  0.0419
15004TIP3    H166427   0.150   2.033   1.885  0.4207 -0.1406 -0.0064
15004TIP3    H266428   0.214   1.950   1.994  0.5491  0.6498  0.5294
15005TIP3   OH266429   1.396   1.056  12.851 -0.1634 -0.2455 -0.2475
15005TIP3    H166430   1.374   1.132  12.904  0.1657  1.7814 -2.8885
15005TIP3    H266431   1.462   1.009  12.902  0.2513  1.7133  1.0719
15006TIP3   OH266432   6.637   0.121  13.386  0.1886 -0.6747  0.2106
15006TIP3    H166433   6.555   0.104  13.432 -1.7602  0.9361 -2.5499
15006TIP3    H266434   6.671   0.201  13.427 -0.6851 -0.1662 -0.0591
15007TIP3   OH266435   2.969   5.494   2.373  0.2156 -0.4418 -0.3289
15007TIP3    H166436   2.907   5.533   2.311 -0.2849 -1.4386 -0.4793
15007TIP3    H266437   3.024   5.566   2.401 -1.2385  0.5256  0.0643
15008TIP3   OH266438   4.341   3.221  12.363 -0.1990 -0.4116 -0.1886
15008TIP3    H166439   4.341   3.250  12.454 -1.1920  1.3552 -0.7126
15008TIP3    H266440   4.300   3.293  12.315 -2.4608 -2.5288 -1.6231
15009TIP3   OH266441   2.931   0.501  11.953 -0.2124 -0.0822  0.5300
15009TIP3    H166442   2.842   0.491  11.917 -0.7138 -0.3576  1.8017
15009TIP3    H266443   2.924   0.574  12.014  0.4274 -0.1144  0.6390
15010TIP3   OH266444   5.702   4.436   2.279  0.0207  0.2782 -0.5438
15010TIP3    H166445   5.670   4.369   2.219  0.2770 -0.9473  0.6334
15010TIP3    H266446   5.792   4.451   2.253  0.1416 -0.2773 -0.4540
15011TIP3   OH266447   0.858   3.327   0.098 -0.5968  0.2945 -0.3682
15011TIP3    H166448   0.868   3.415   0.060  1.4359  0.4153  0.3653
15011TIP3    H266449   0.875   3.340   0.192  1.5020 -1.1635 -0.5183
15012TIP3   OH266450   2.729   0.859  16.435  0.3423  0.2884 -0.1838
15012TIP3    H166451   2.728   0.944  16.479 -0.8305  0.0117  0.3463
15012TIP3    H266452   2.808   0.816  16.468  0.0669  0.5258  0.8082
15013TIP3   OH266453   3.467   1.287   1.832  0.1523  0.3880  0.4868
15013TIP3    H166454   3.523   1.309   1.907 -0.4424  1.2332  0.6847
15013TIP3    H266455   3.382   1.325   1.854 -0.3330 -0.3340 -0.1093
15014TIP3   OH266456   5.101   1.817  14.784 -0.0102 -0.0747  0.0398
15014TIP3    H166457   5.172   1.809  14.848 -0.1974  0.3131  0.2966
15014TIP3    H266458   5.143   1.800  14.700  0.2858 -0.3468  0.2437
15015TIP3   OH266459   5.281   0.515   3.061  0.7278  0.4828 -0.4181
15015TIP3    H166460   5.188   0.513   3.083  0.7091 -0.1907 -0.5546
15015TIP3    H266461   5.300   0.428   3.027  1.5527  0.4177  0.1894
15016TIP3   OH266462   5.225   6.589  14.122  0.2025 -0.1997  0.0500
15016TIP3    H166463   5.157   6.621  14.182 -0.4198  0.6208 -1.0704
15016TIP3    H266464   5.185   6.596  14.035  2.1456  1.4627 -0.7414
15017TIP3   OH266465   5.496   0.694  12.036  0.0100  0.0568  0.6856
15017TIP3    H166466   5.469   0.602  12.038  1.0769 -0.2751  0.1867
15017TIP3    H266467   5.531   0.707  11.948 -1.0019  1.1981  0.4357
15018TIP3   OH266468   1.061   6.067   4.991  0.0084  0.3404  0.1272
15018TIP3    H166469   1.005   6.001   5.032  0.5970 -0.1751  0.1165
15018TIP3    H266470   1.090   6.027   4.909  0.8043  0.3867  0.3761
15019TIP3   OH266471   1.868   0.745  12.557  0.0521 -0.0632 -0.0797
15019TIP3    H166472   1.845   0.654  12.539  0.3365 -0.0057 -0.7177
15019TIP3    H266473   1.791   0.796  12.530 -0.2646 -0.1436  0.6480
15020TIP3   OH266474   0.694   6.575  15.997 -0.2376  0.1552  0.2501
15020TIP3    H166475   0.784   6.606  16.005 -0.5127  0.8619  0.7240
15020TIP3    H266476   0.686   6.546  15.907  0.7050 -0.6789  0.4332
15021TIP3   OH266477   4.704   3.406  14.049  0.1484 -0.3081  0.4220
15021TIP3    H166478   4.631   3.344  14.037  0.5547 -1.0967  1.8168
15021TIP3    H266479   4.722   3.402  14.143  1.4340  0.5224  0.2138
15022TIP3   OH266480   3.736   4.125   5.314 -0.1131 -0.0496  0.5199
15022TIP3    H166481   3.783   4.193   5.361 -0.1608 -0.1924  0.7741
15022TIP3    H266482   3.650   4.121   5.356 -0.0085 -0.4687  0.6969
15023TIP3   OH266483   6.434   2.826   4.025 -0.6483 -0.0353 -0.7175
15023TIP3    H166484   6.472   2.744   4.058  0.1897  0.5941 -0.1086
15023TIP3    H266485   6.488   2.848   3.949  0.3793  0.9778  0.2813
15024TIP3   OH266486   0.156   3.293  16.273 -0.3662  0.0159 -0.0151
15024TIP3    H166487   0.154   3.284  16.368 -3.1712 -0.7373 -0.0962
15024TIP3    H266488   0.129   3.207  16.240  2.3568 -0.2948 -1.5698
15025TIP3   OH266489   6.520   0.776  13.478 -0.5803 -0.0512  0.2210
15025TIP3    H166490   6.444   0.819  13.519 -1.3496  0.0428 -1.2902
15025TIP3    H266491   6.593   0.836  13.495 -1.4175  1.2941 -0.8350
15026TIP3   OH266492   0.675   2.193  12.922  0.2605 -0.0088  0.6978
15026TIP3    H166493   0.683   2.199  12.827  0.0628  1.3844  0.7515
15026TIP3    H266494   0.614   2.121  12.937 -1.8764  1.5204 -0.3426
15027TIP3   OH266495   3.518   4.730   4.741  0.3221  0.4822  0.1644
15027TIP3    H166496   3.502   4.681   4.660  2.1472  2.7164 -1.6134
15027TIP3    H266497   3.459   4.804   4.736  1.8276  1.6932 -0.1089
15028TIP3   OH266498   2.761   5.012  12.258  0.8309  0.3499  0.0456
15028TIP3    H166499   2.683   4.958  12.241  0.5473  0.6536  0.3628
15028TIP3    H266500   2.805   4.968  12.330 -0.1642  1.3173  1.2709
15029TIP3   OH266501   6.092   5.816  16.635 -0.2330 -0.2576 -0.5649
15029TIP3    H166502   6.027   5.747  16.621  0.6114 -1.2183  0.2532
15029TIP3    H266503   6.149   5.784  16.704  1.1315  0.5668 -1.2571
15030TIP3   OH266504   5.320   5.395  11.770 -0.2752 -0.3357 -0.4315
15030TIP3    H166505   5.293   5.313  11.728  0.4842 -0.6862 -0.2388
15030TIP3    H266506   5.412   5.404  11.748 -0.6642  1.1223 -1.5027
15031TIP3   OH266507   6.345   5.316  13.352  0.2302  0.2256 -0.4563
15031TIP3    H166508   6.407   5.256  13.310 -0.4216 -0.0808 -0.9836
15031TIP3    H266509   6.379   5.403  13.331  0.0687  0.0746 -1.4012
15032TIP3   OH266510   1.529   4.225  14.866 -0.3913  0.2099 -0.1369
15032TIP3    H166511   1.598   4.223  14.800 -1.7514 -2.0300 -1.5269
15032TIP3    H266512   1.571   4.188  14.944  0.5755  0.8061 -0.3577
15033TIP3   OH266513   4.460   4.762  15.090  0.0578 -0.4262 -0.3760
15033TIP3    H166514   4.511   4.681  15.087  0.2613 -0.2540 -2.0755
15033TIP3    H266515   4.487   4.804  15.171  2.6916 -0.3170 -1.2689
15034TIP3   OH266516   4.059   0.120  16.103 -0.1326 -0.5892 -0.1234
15034TIP3    H166517   4.094   0.132  16.191  1.1665 -2.0490 -0.4337
15034TIP3    H266518   3.981   0.065  16.115 -0.0389 -0.6687  0.1222
15035TIP3   OH266519   3.374   4.379  13.513  0.0949  0.6214 -0.5361
15035TIP3    H166520   3.355   4.365  13.420  0.2404  1.8244 -0.7491
15035TIP3    H266521   3.462   4.415  13.514  0.1867  0.3765  0.0897
15036TIP3   OH266522   0.416   4.660   0.378  0.6564 -0.2683  0.0253
15036TIP3    H166523   0.421   4.569   0.351 -1.4139 -0.3879 -0.0317
15036TIP3    H266524   0.496   4.674   0.430  0.4747 -2.4073  0.9362
15037TIP3   OH266525   0.113   1.369  13.567 -0.0884  0.0664  0.4055
15037TIP3    H166526   0.080   1.305  13.630 -0.9166 -0.2741 -0.3759
15037TIP3    H266527   0.046   1.438  13.567 -0.2780 -0.1211 -0.3901
15038TIP3   OH266528   0.817   0.199   1.902 -0.2557  1.6900 -0.0787
15038TIP3    H166529   0.883   0.153   1.955 -0.9776  1.2982  0.4878
15038TIP3    H266530   0.742   0.208   1.960 -2.0315 -1.0624 -1.8559
15039TIP3   OH266531   2.357   3.322   1.453  0.9688  0.2470 -0.1737
15039TIP3    H166532   2.346   3.400   1.400 -1.6016 -1.4673 -2.2967
15039TIP3    H266533   2.323   3.347   1.540 -0.9227  1.1851 -1.1465
15040TIP3   OH266534   5.738   2.858  16.851  0.5158  0.1661 -0.5869
15040TIP3    H166535   5.665   2.807  16.885  0.7661  0.5892  0.6186
15040TIP3    H266536   5.702   2.946  16.841  1.2642  0.7691  1.5785
15041TIP3   OH266537   6.364   3.314  11.956 -0.5549 -0.3975  0.1303
15041TIP3    H166538   6.342   3.291  12.046 -0.7772  0.5528  0.3151
15041TIP3    H266539   6.281   3.313  11.909 -0.7289  1.1498  0.3867
15042TIP3   OH266540   2.574   5.319   5.444  0.2731  0.2404  0.0402
15042TIP3    H166541   2.587   5.250   5.510  0.5360 -0.3007 -0.5691
15042TIP3    H266542   2.483   5.345   5.454  0.6173  0.9295  1.3597
15043TIP3   OH266543   3.186   0.012   1.161  0.0812 -0.1051  0.1919
15043TIP3    H166544   3.233   0.009   1.244 -0.8902  0.3502  0.7690
15043TIP3    H266545   3.250   0.047   1.098  0.7691 -0.3094  0.7763
15044TIP3   OH266546   6.396   5.891  11.078 -0.0298 -0.3651 -0.1404
15044TIP3    H166547   6.491   5.901  11.070 -0.1106  0.2961 -0.2942
15044TIP3    H266548   6.385   5.822  11.144  0.5569 -0.5232 -0.2021
15045TIP3   OH266549   6.264   5.385  16.881 -0.1662  0.3087 -0.2049
15045TIP3    H166550   6.326   5.370  16.810  1.0338 -0.7936  1.0318
15045TIP3    H266551   6.180   5.356  16.846  0.2805  0.4122 -1.3923
15046TIP3   OH266552   2.167   2.400   3.499 -0.1122  0.4722 -0.4970
15046TIP3    H166553   2.208   2.449   3.571  1.1111 -0.0917 -0.7998
15046TIP3    H266554   2.236   2.393   3.433 -0.4380 -1.2168 -0.6575
15047TIP3   OH266555   6.242   1.470  11.631 -0.0702 -0.6064  0.1199
15047TIP3    H166556   6.193   1.541  11.671  1.1236 -0.3540  1.1751
15047TIP3    H266557   6.334   1.489  11.651  0.2847 -2.3060  0.2376
15048TIP3   OH266558   2.133   5.943  16.503  0.2059  0.1099  1.1910
15048TIP3    H166559   2.205   5.880  16.494 -0.8899 -1.3859  2.6567
15048TIP3    H266560   2.160   6.017  16.449  1.9933 -1.1943  0.2232
15049TIP3   OH266561   6.037   1.764   1.250  0.1540  0.2106  0.3434
15049TIP3    H166562   5.951   1.792   1.221 -0.8331 -1.9309  1.1124
15049TIP3    H266563   6.079   1.728   1.172 -0.1569  0.0442  0.2535
15050TIP3   OH266564   6.730   6.417  10.836  0.0792  0.0966 -0.0329
15050TIP3    H166565   6.778   6.479  10.891  1.6849 -0.9142 -0.2703
15050TIP3    H266566   6.691   6.471  10.768 -1.5124  1.3024  1.7801
15051TIP3   OH266567   5.660   1.732   4.516  0.3098 -0.1308  0.0906
15051TIP3    H166568   5.747   1.693   4.507  0.2261 -0.7852  1.8536
15051TIP3    H266569   5.626   1.694   4.597 -0.6818  1.9337  0.6559
15052TIP3   OH266570   5.472   4.073  14.411 -0.0183 -0.4047 -0.2515
15052TIP3    H166571   5.460   3.986  14.372  0.4466  0.1350 -1.6693
15052TIP3    H266572   5.471   4.058  14.505 -1.2989 -1.7564 -0.4588
15053TIP3   OH266573   3.418   5.711  12.454 -0.3465  1.0145 -0.0719
15053TIP3    H166574   3.468   5.653  12.512 -1.6422  1.6681  1.7563
15053TIP3    H266575   3.344   5.657  12.425 -0.7643  1.2806  0.4766
15054TIP3   OH266576   1.005   1.275   3.557 -0.2247 -0.2031  0.0877
15054TIP3    H166577   1.020   1.351   3.501 -0.7335 -0.9442 -1.0874
15054TIP3    H266578   0.911   1.275   3.574 -0.0178  0.2255  1.2587
15055TIP3   OH266579   4.238   4.875   5.134 -0.3223  0.0671  0.2581
15055TIP3    H166580   4.276   4.899   5.219  0.9910 -0.7671 -0.0751
15055TIP3    H266581   4.313   4.869   5.075 -1.2439  0.7880 -1.0151
15056TIP3   OH266582   1.243   5.307  14.025  0.2007  0.3828  0.1069
15056TIP3    H166583   1.150   5.294  14.007  0.1487 -0.5006  0.9851
15056TIP3    H266584   1.250   5.310  14.120  1.1420 -0.0883  0.0634
15057TIP3   OH266585   2.853   4.767   4.638  0.4141  0.5708  0.0498
15057TIP3    H166586   2.757   4.776   4.638  0.0375 -1.9628  3.7817
15057TIP3    H266587   2.885   4.853   4.665 -0.9469  0.8252  0.9047
15058TIP3   OH266588   5.205   6.680  10.937 -0.1272  0.7508  0.6844
15058TIP3    H166589   5.209   6.773  10.915 -1.1657  0.7376  0.4114
15058TIP3    H266590   5.200   6.636  10.852 -1.4872  0.5477  0.8652
15059TIP3   OH266591   1.910   1.563   5.245  0.4661  0.0046  0.4665
15059TIP3    H166592   1.934   1.546   5.336 -3.0868  1.0059  1.6589
15059TIP3    H266593   1.884   1.477   5.211  0.0684 -0.0645  0.9403
15060TIP3   OH266594   2.502   4.916   1.406  0.0916 -0.1003  0.2089
15060TIP3    H166595   2.414   4.884   1.424 -0.5941  0.4652 -1.9169
15060TIP3    H266596   2.513   4.903   1.311  0.6312  3.7753 -0.3600
15061TIP3   OH266597   6.438   1.162  13.283 -0.2180 -0.0339  0.1042
15061TIP3    H166598   6.386   1.107  13.341  0.9919 -0.9434  0.3462
15061TIP3    H266599   6.522   1.172  13.329 -0.1208  1.2739 -0.3519
15062TIP3   OH266600   3.102   5.271   6.500  0.3282  0.3898 -0.4761
15062TIP3    H166601   3.083   5.182   6.530  0.7793  1.0284  1.8354
15062TIP3    H266602   3.022   5.320   6.520  0.7257  0.8815 -0.0727
15063TIP3   OH266603   5.099   5.908  12.809 -0.3863  0.4050 -0.4497
15063TIP3    H166604   5.047   5.952  12.875 -0.9179  0.0739 -0.6431
15063TIP3    H266605   5.059   5.933  12.725 -0.8386 -0.6111 -0.5492
15064TIP3   OH266606   4.645   4.108   1.976  0.1782 -0.0029  0.4542
15064TIP3    H166607   4.732   4.143   1.958  0.1232 -0.0388  0.0940
15064TIP3    H266608   4.598   4.178   2.019 -0.5893  1.1128 -2.0898
15065TIP3   OH266609   5.259   1.051   3.404  0.5094  0.4733  0.3379
15065TIP3    H166610   5.180   1.102   3.387 -0.1520 -0.6292  0.0038
15065TIP3    H266611   5.265   0.991   3.329  0.0768 -1.3586  1.7097
15066TIP3   OH266612   1.829   1.112  15.722 -0.5240 -0.6009  1.0031
15066TIP3    H166613   1.793   1.027  15.750 -3.3520  0.0545 -0.4442
15066TIP3    H266614   1.882   1.141  15.796 -0.7200 -2.9350  2.1128
15067TIP3   OH266615   6.040   4.692   2.029  0.0380  0.1321  0.1102
15067TIP3    H166616   5.955   4.720   2.062  0.5547  0.3607  1.2872
15067TIP3    H266617   6.091   4.672   2.108  0.0042 -3.2514 -0.6265
15068TIP3   OH266618   5.232   0.827  13.437 -0.1175 -0.1619  0.2506
15068TIP3    H166619   5.237   0.878  13.356  0.6407  1.9971  1.5963
15068TIP3    H266620   5.138   0.824  13.457 -0.0164  3.1165  1.5517
15069TIP3   OH266621   3.119   6.086   3.133  0.0139  0.0686  0.5349
15069TIP3    H166622   3.163   6.171   3.135  1.0888 -0.4670  0.3104
15069TIP3    H266623   3.133   6.054   3.044 -1.0337 -0.0196  0.3906
15070TIP3   OH266624   2.768   5.452   2.795  0.7307 -0.1543 -0.2322
15070TIP3    H166625   2.808   5.372   2.762  2.2722 -0.4216  2.1245
15070TIP3    H266626   2.710   5.423   2.866 -0.9655  0.5580 -1.3044
15071TIP3   OH266627   2.527   3.451  17.080  0.3283  0.1036  0.2717
15071TIP3    H166628   2.601   3.504  17.050  0.5903 -0.3917  0.0360
15071TIP3    H266629   2.511   3.480  17.170  0.5578  0.4833  0.1891
15072TIP3   OH266630   6.603   6.280   3.162 -0.0038  0.0171  0.1514
15072TIP3    H166631   6.551   6.357   3.184  0.7838  0.0098  2.1265
15072TIP3    H266632   6.579   6.215   3.228  1.3011 -0.5317  0.1075
15073TIP3   OH266633   4.416   2.575  17.191  0.0926 -0.0407 -0.0818
15073TIP3    H166634   4.494   2.530  17.159 -0.0657 -1.7491  1.7989
15073TIP3    H266635   4.348   2.508  17.193 -0.7880  0.8383  0.5441
15074TIP3   OH266636   5.004   1.493   3.017 -0.2802  0.1197  0.0211
15074TIP3    H166637   5.023   1.464   3.107 -2.4219 -1.4858 -0.0103
15074TIP3    H266638   4.984   1.586   3.026  1.3141  0.4077  0.9173
15075TIP3   OH266639   2.655   4.386  16.423 -0.2390 -0.3801 -0.3134
15075TIP3    H166640   2.623   4.382  16.513  0.8658 -2.5413  0.0102
15075TIP3    H266641   2.577   4.369  16.370 -0.6928 -0.1290  0.2634
15076TIP3   OH266642   6.510   3.703  15.926 -0.2371  0.3852 -0.2759
15076TIP3    H166643   6.579   3.641  15.949 -0.5757 -0.5967 -1.8414
15076TIP3    H266644   6.554   3.788  15.924  0.1027  0.3065  2.4899
15077TIP3   OH266645   0.812   0.159  14.505 -0.2622 -0.1826 -0.5204
15077TIP3    H166646   0.733   0.170  14.558  1.1106 -1.1727  1.7790
15077TIP3    H266647   0.857   0.243  14.512  0.4239 -0.6531  0.7280
15078TIP3   OH266648   2.880   0.453   0.296 -0.1187  0.9938 -0.1102
15078TIP3    H166649   2.895   0.361   0.319 -0.5105  1.0045  0.1868
15078TIP3    H266650   2.852   0.450   0.205  1.0182  0.9161 -0.4735
15079TIP3   OH266651   2.103   2.531   5.448  0.5940  0.7314  0.1954
15079TIP3    H166652   2.118   2.622   5.423  0.4820  0.7474  0.1856
15079TIP3    H266653   2.008   2.520   5.443  0.7996 -0.2656 -2.9538
15080TIP3   OH266654   1.677   1.482   4.218  0.8728 -0.1512  0.2636
15080TIP3    H166655   1.628   1.409   4.181  1.9546 -0.3174 -0.9244
15080TIP3    H266656   1.753   1.491   4.159  0.8742  1.7642  0.5271
15081TIP3   OH266657   3.509   5.651  10.796 -0.0172 -0.3324  0.2889
15081TIP3    H166658   3.598   5.648  10.831 -0.0929  0.0926  0.5246
15081TIP3    H266659   3.491   5.562  10.767 -0.2402 -0.8779  2.0480
15082TIP3   OH266660   0.828   3.278   2.960 -0.1439 -0.4692 -0.0065
15082TIP3    H166661   0.884   3.223   2.905  0.9375  0.0986  0.5283
15082TIP3    H266662   0.888   3.329   3.013 -1.1518  0.6953  0.0442
15083TIP3   OH266663   2.425   1.344  12.809  0.0858 -0.2983 -0.3353
15083TIP3    H166664   2.418   1.303  12.723 -0.7122 -2.6259  0.8000
15083TIP3    H266665   2.512   1.319  12.841  0.6684  1.1539 -0.7346
15084TIP3   OH266666   1.630   0.279   5.219 -0.1428  0.5840  0.1798
15084TIP3    H166667   1.560   0.235   5.266 -0.1064  1.4721  1.0849
15084TIP3    H266668   1.704   0.219   5.225 -0.6770 -0.1262 -0.3412
15085TIP3   OH266669   0.426   1.023   1.851  0.1477  0.2153 -0.5414
15085TIP3    H166670   0.512   1.043   1.888 -0.3183  1.9652 -0.3621
15085TIP3    H266671   0.415   0.929   1.866  1.0509  0.4030  1.4745
15086TIP3   OH266672   3.264   5.122   5.005 -0.1393 -0.7255 -0.5243
15086TIP3    H166673   3.168   5.133   5.006  0.0157  0.7685  0.4494
15086TIP3    H266674   3.284   5.090   4.918 -1.3325  1.0841 -1.4882
15087TIP3   OH266675   6.143   6.159   0.194  0.0772  0.6019 -0.3783
15087TIP3    H166676   6.195   6.224   0.147  1.4912 -0.3027 -0.1239
15087TIP3    H266677   6.168   6.075   0.155 -0.8163  0.1031  0.1019
15088TIP3   OH266678   3.134   0.900   4.803  0.5455  0.9673 -0.6948
15088TIP3    H166679   3.078   0.977   4.791 -0.5180  0.5156  1.1804
15088TIP3    H266680   3.110   0.841   4.731 -3.7801 -0.5845  1.8456
15089TIP3   OH266681   2.921   1.096   5.729 -0.1003  0.0228  0.0556
15089TIP3    H166682   2.982   1.069   5.798  1.5029  0.7264 -1.0624
15089TIP3    H266683   2.881   1.015   5.698  0.6735 -0.4959  0.4251
15090TIP3   OH266684   3.823   1.122  15.342  0.1577 -0.2876 -0.1137
15090TIP3    H166685   3.848   1.042  15.388 -0.1884 -1.2464 -1.5692
15090TIP3    H266686   3.763   1.093  15.274 -0.1939  1.2571 -0.4781
15091TIP3   OH266687   1.347   0.477   3.876 -0.0964  0.1147  0.0499
15091TIP3    H166688   1.372   0.466   3.785 -0.7821  0.6472 -0.2024
15091TIP3    H266689   1.383   0.562   3.901  0.6738 -0.3326  0.4730
15092TIP3   OH266690   6.340   4.157   5.500  0.2548  1.2126  0.0258
15092TIP3    H166691   6.331   4.092   5.430 -0.6181  1.0930  0.2409
15092TIP3    H266692   6.310   4.239   5.460 -0.2974  1.1333  0.2703
15093TIP3   OH266693   3.381   1.036  15.475 -0.0187  0.8121  0.4476
15093TIP3    H166694   3.463   1.084  15.465 -1.8603  3.8467 -0.8100
15093TIP3    H266695   3.349   1.062  15.562  0.0532  0.1452  0.6733
15094TIP3   OH266696   0.964   3.369  14.016  0.5053  0.0382  0.3550
15094TIP3    H166697   0.984   3.454  13.978  1.4142 -1.2560 -2.1792
15094TIP3    H266698   0.928   3.389  14.102 -2.2461  3.1121 -1.4158
15095TIP3   OH266699   5.716   6.104   6.011  0.0868 -0.5677  0.4882
15095TIP3    H166700   5.637   6.091   5.958 -0.4872  0.9076  0.9485
15095TIP3    H266701   5.752   6.017   6.022 -0.6917 -1.0946 -0.9493
15096TIP3   OH266702   2.803   3.161  13.667 -0.0747  0.1594 -0.3393
15096TIP3    H166703   2.865   3.225  13.631  0.7810 -0.6338 -0.2899
15096TIP3    H266704   2.816   3.083  13.614 -0.2054 -0.3887  0.4344
15097TIP3   OH266705   1.358   1.309  11.738 -0.6682 -0.3876  0.1669
15097TIP3    H166706   1.373   1.302  11.643 -3.0611  0.0274 -0.2626
15097TIP3    H266707   1.433   1.360  11.770 -0.9127  1.2949 -1.8362
15098TIP3   OH266708   4.137   5.913  16.506  0.0342  0.1838 -0.0977
15098TIP3    H166709   4.172   5.886  16.421  1.7698 -2.8126  1.4705
15098TIP3    H266710   4.205   5.890  16.569 -2.3324 -0.2558  2.4175
15099TIP3   OH266711   3.082   1.817   1.205 -0.5328  0.4039  0.1348
15099TIP3    H166712   3.045   1.822   1.293 -0.1093  0.1888  0.3281
15099TIP3    H266713   3.155   1.755   1.213 -0.1816  0.7582 -0.2552
15100TIP3   OH266714   1.245   6.011  11.102 -0.5432  0.1756  1.2731
15100TIP3    H166715   1.152   5.988  11.101 -0.7885  1.1518  0.8645
15100TIP3    H266716   1.270   6.014  11.010  0.2381 -1.4119  1.4193
15101TIP3   OH266717   2.252   0.267  16.340 -0.3340  0.1974  0.0483
15101TIP3    H166718   2.228   0.334  16.276 -1.4132 -1.2405 -1.0799
15101TIP3    H266719   2.319   0.309  16.394 -1.6341  2.4911 -0.0666
15102TIP3   OH266720   3.766   5.003   2.714  0.2150 -0.6664  0.1079
15102TIP3    H166721   3.803   5.087   2.688  0.7299 -0.6168  0.9720
15102TIP3    H266722   3.784   4.998   2.808  1.1576 -2.2341 -0.1424
15103TIP3   OH266723   5.409   1.266  17.238  0.2627  0.1831  0.2290
15103TIP3    H166724   5.419   1.328  17.166  0.2059 -0.7541 -0.5921
15103TIP3    H266725   5.489   1.214  17.237 -0.6461 -1.2267 -0.5003
15104TIP3   OH266726   3.901   4.456   4.669  0.3069  0.5097  0.2208
15104TIP3    H166727   3.826   4.489   4.718 -0.6439 -1.1664 -0.0547
15104TIP3    H266728   3.977   4.485   4.719 -0.5414  1.5718  0.9208
15105TIP3   OH266729   0.893   4.747  12.671 -0.0729 -0.1150  0.2882
15105TIP3    H166730   0.959   4.789  12.616  0.6132  1.6874  2.4193
15105TIP3    H266731   0.818   4.734  12.613  1.6416 -0.9921 -1.8319
15106TIP3   OH266732   0.501   6.620   5.341  0.2280 -0.3124  0.0177
15106TIP3    H166733   0.463   6.650   5.258  1.3132 -2.4755 -1.3224
15106TIP3    H266734   0.462   6.676   5.407 -1.1883  1.0278 -1.8942
15107TIP3   OH266735   1.187   1.708   5.848  0.8284  0.1127  0.4913
15107TIP3    H166736   1.159   1.797   5.869  1.3758  0.1759  0.9605
15107TIP3    H266737   1.120   1.676   5.787  0.8744  1.0056 -0.0410
15108TIP3   OH266738   2.963   1.419   3.903 -0.9260  0.2897  0.6177
15108TIP3    H166739   3.043   1.470   3.888 -1.1750  0.4703 -0.1293
15108TIP3    H266740   2.899   1.458   3.843 -1.6242  0.2738  1.3537
15109TIP3   OH266741   3.029   4.500   5.789 -0.1862  0.0241  0.3759
15109TIP3    H166742   2.994   4.424   5.836  0.1290 -0.2371  0.1836
15109TIP3    H266743   3.109   4.522   5.836 -0.9354  1.0158  1.2048
15110TIP3   OH266744   0.148   4.549  12.714 -0.3907  0.3288 -0.2382
15110TIP3    H166745   0.222   4.494  12.687 -0.2792 -0.0349  0.7803
15110TIP3    H266746   0.178   4.638  12.700  0.3123  0.1899  0.3065
15111TIP3   OH266747   2.972   2.918   4.637 -0.6168 -0.1895 -0.2725
15111TIP3    H166748   3.010   2.998   4.603 -2.5142  1.3219  1.0478
15111TIP3    H266749   2.904   2.894   4.573  0.8024 -1.4977 -1.3343
15112TIP3   OH266750   6.761   2.317  14.978 -0.0745 -0.0001 -0.1158
15112TIP3    H166751   6.764   2.399  14.929  2.7944  0.2275  0.3460
15112TIP3    H266752   6.800   2.338  15.062 -0.3156 -1.5814  0.4067
15113TIP3   OH266753   2.900   5.159  13.472 -0.0095 -0.8516  0.0024
15113TIP3    H166754   2.841   5.090  13.444 -1.2615  0.6151 -1.0793
15113TIP3    H266755   2.880   5.173  13.564 -2.6792  0.8509 -0.7719
15114TIP3   OH266756   0.505   2.638   4.355  0.0936 -0.6605 -0.3107
15114TIP3    H166757   0.594   2.604   4.361  0.4695  0.6349  2.0080
15114TIP3    H266758   0.464   2.585   4.286  2.0682 -2.5444 -0.0954
15115TIP3   OH266759   1.866   0.530  17.230 -0.0261 -0.1672  0.3478
15115TIP3    H166760   1.824   0.476  17.296  0.0538 -0.9367 -0.2287
15115TIP3    H266761   1.794   0.574  17.185 -0.0452  1.0439  1.5061
15116TIP3   OH266762   6.350   5.870   5.516  0.5619 -0.1952  0.3537
15116TIP3    H166763   6.261   5.870   5.481  0.7116 -1.3060 -0.0624
15116TIP3    H266764   6.341   5.839   5.606  0.6186 -1.2520  0.0106
15117TIP3   OH266765   6.560   1.630  12.460 -0.0650 -0.0383  0.1932
15117TIP3    H166766   6.521   1.704  12.505 -3.2706  0.5964 -3.3714
15117TIP3    H266767   6.489   1.565  12.454  1.7913 -2.1709  0.5858
15118TIP3   OH266768   5.866   1.064  15.778 -0.5589  0.6789  0.2548
15118TIP3    H166769   5.835   1.088  15.866 -0.1271  0.9629  0.3295
15118TIP3    H266770   5.937   1.002  15.794 -0.7550  0.4118  0.0958
15119TIP3   OH266771   2.980   1.121   3.798  0.1966  0.0090 -0.2976
15119TIP3    H166772   2.915   1.176   3.841 -0.2623 -0.3264 -0.5593
15119TIP3    H266773   2.974   1.145   3.706  0.5196  0.0480 -0.3113
15120TIP3   OH266774   4.816   1.402  12.117 -0.0079  0.2825 -0.1045
15120TIP3    H166775   4.813   1.458  12.195  0.0861 -0.6493  0.5649
15120TIP3    H266776   4.869   1.327  12.143 -1.4262 -0.8809 -0.4958
15121TIP3   OH266777   3.812   6.196  13.701 -0.4216 -0.5480  0.1286
15121TIP3    H166778   3.888   6.213  13.645  0.4588  0.7397  1.6609
15121TIP3    H266779   3.749   6.264  13.677 -0.6125 -0.8751 -0.2978
15122TIP3   OH266780   6.659   2.163  12.790  0.2567 -0.2870 -0.1706
15122TIP3    H166781   6.728   2.170  12.724 -0.3159 -1.1027 -0.8687
15122TIP3    H266782   6.616   2.079  12.771 -0.0302 -0.4467  1.1216
15123TIP3   OH266783   0.790   1.673   2.310 -0.1033 -0.2857 -0.3732
15123TIP3    H166784   0.833   1.665   2.396  1.8536  0.4689 -1.2534
15123TIP3    H266785   0.697   1.664   2.330  0.4052 -1.7268  1.6282
15124TIP3   OH266786   1.150   1.162  12.556 -0.2593  1.0651 -0.0833
15124TIP3    H166787   1.108   1.178  12.641  1.5478  0.1818  1.0102
15124TIP3    H266788   1.181   1.249  12.529  0.6897  1.0797  1.0132
15125TIP3   OH266789   1.724   4.394  11.289  0.5352  0.2036  0.4054
15125TIP3    H166790   1.739   4.349  11.206 -0.2004 -0.6109  0.6999
15125TIP3    H266791   1.629   4.407  11.291  0.6670  1.1575  0.6472
15126TIP3   OH266792   1.043   0.355   5.545  0.0546  0.0445 -0.2820
15126TIP3    H166793   1.106   0.334   5.614 -0.3082  2.2032  0.7372
15126TIP3    H266794   1.003   0.271   5.523  3.0857 -1.3072 -0.7647
15127TIP3   OH266795   4.746   5.410  12.332  0.4220  0.5359  0.0049
15127TIP3    H166796   4.745   5.492  12.282 -0.5685  0.8197  0.4708
15127TIP3    H266797   4.832   5.373  12.316  0.9364  1.7568 -0.0916
15128TIP3   OH266798   6.057   4.898   4.080  0.7303  0.2997  0.0924
15128TIP3    H166799   6.069   4.826   4.018  0.6364  2.1144 -2.0936
15128TIP3    H266800   5.963   4.898   4.098  0.8387 -0.5966  0.7441
15129TIP3   OH266801   0.055   3.653  17.037  0.1793  0.5926 -0.6265
15129TIP3    H166802   0.033   3.562  17.018 -0.9325  0.6382  0.4224
15129TIP3    H266803   0.114   3.679  16.966  1.6471 -1.3822 -0.1588
15130TIP3   OH266804   4.320   3.882   4.498 -0.4644 -0.3316 -0.3080
15130TIP3    H166805   4.338   3.913   4.409  0.0728 -0.6704 -0.3157
15130TIP3    H266806   4.333   3.788   4.495  1.2978 -0.1427  0.5459
15131TIP3   OH266807   0.114   6.749  13.436 -0.7979 -0.5081  0.2561
15131TIP3    H166808   0.048   6.819  13.438  2.1980  2.4457  1.3390
15131TIP3    H266809   0.139   6.738  13.527  2.1034  0.3751 -0.3872
15132TIP3   OH266810   4.766   2.695   2.245  0.2929 -0.0982 -0.5707
15132TIP3    H166811   4.791   2.664   2.158  1.3803  0.7813 -0.5851
15132TIP3    H266812   4.783   2.789   2.242 -0.8495  0.1330  0.1932
15133TIP3   OH266813   0.391   4.391  13.951  0.2090  0.0489 -0.4400
15133TIP3    H166814   0.336   4.392  14.030  0.2171 -1.3584 -0.4097
15133TIP3    H266815   0.361   4.315  13.902  0.3409  0.8081 -1.7193
15134TIP3   OH266816   6.205   3.623  14.911 -0.2805 -0.3103 -0.4843
15134TIP3    H166817   6.182   3.566  14.985  1.7092 -2.0039 -1.1157
15134TIP3    H266818   6.185   3.711  14.941 -0.9562 -1.1233  1.5155
15135TIP3   OH266819   2.272   4.393  10.792 -0.3499 -0.1482 -0.1360
15135TIP3    H166820   2.267   4.320  10.854 -3.5168  1.4159  1.5745
15135TIP3    H266821   2.192   4.384  10.739 -0.6016  1.8648 -0.1218
15136TIP3   OH266822   0.130   5.041   6.154  0.7758  0.1529 -0.1604
15136TIP3    H166823   0.047   4.998   6.175  1.0670 -1.1377 -1.6093
15136TIP3    H266824   0.126   5.124   6.201 -2.0713  0.8554 -1.5421
15137TIP3   OH266825   4.828   6.410  16.810  0.3941  0.2986 -0.0437
15137TIP3    H166826   4.834   6.467  16.886  0.8013  0.1867  0.0063
15137TIP3    H266827   4.839   6.469  16.735 -2.7029  0.8594 -0.1427
15138TIP3   OH266828   4.445   4.364   3.874  0.4546 -0.5761 -0.2999
15138TIP3    H166829   4.383   4.426   3.835 -0.2753 -0.0962  1.5457
15138TIP3    H266830   4.400   4.280   3.872  0.1642 -0.4318  0.0644
15139TIP3   OH266831   0.996   4.448   0.008 -0.0252 -0.4906 -0.2685
15139TIP3    H166832   1.043   4.422   0.087  0.2179 -1.4233 -0.7089
15139TIP3    H266833   1.052   4.514  -0.033 -0.0593 -0.1464  0.2382
15140TIP3   OH266834   0.407   1.303   0.573  0.5264 -0.1989  0.0863
15140TIP3    H166835   0.415   1.209   0.591 -0.8504 -0.9964 -3.0418
15140TIP3    H266836   0.321   1.326   0.607  0.1348 -0.4855 -0.6984
15141TIP3   OH266837   2.787   1.552   0.031 -0.1894 -0.5791 -0.0526
15141TIP3    H166838   2.790   1.583   0.122 -0.8982  0.0899 -0.2609
15141TIP3    H266839   2.725   1.610  -0.013  1.0379 -0.1372 -1.2644
15142TIP3   OH266840   0.070   0.260   5.009 -0.0992 -0.8751  0.1662
15142TIP3    H166841   0.141   0.310   5.048  1.0088 -1.9885 -0.3777
15142TIP3    H266842   0.093   0.168   5.025 -1.1168 -1.2648 -0.5039
15143TIP3   OH266843   3.037   6.318   4.944  0.4416  0.1269 -0.0364
15143TIP3    H166844   3.060   6.384   5.009 -1.4062 -0.7158  1.5458
15143TIP3    H266845   2.967   6.267   4.985  0.4835 -1.5950 -1.9786
15144TIP3   OH266846   2.965   0.032  12.696 -0.1274 -0.5192 -0.0191
15144TIP3    H166847   2.998  -0.011  12.617 -1.3097 -4.5067  1.5345
15144TIP3    H266848   3.041   0.037  12.754 -0.8118 -4.7386  1.4630
15145TIP3   OH266849   6.077   4.824  17.067 -0.3600  0.3915 -0.6485
15145TIP3    H166850   6.140   4.798  17.000 -1.4835  0.1601 -1.6510
15145TIP3    H266851   6.068   4.746  17.122  1.2245  0.8759  0.3008
15146TIP3   OH266852   2.525   1.637  13.749 -0.3028  1.0248 -0.2796
15146TIP3    H166853   2.437   1.599  13.755 -0.9798  2.5354 -0.4329
15146TIP3    H266854   2.540   1.648  13.655  0.3371  0.1621 -0.2917
15147TIP3   OH266855   0.617   0.947  17.235 -0.7485  0.3443 -0.4044
15147TIP3    H166856   0.587   0.910  17.152 -0.8439  0.2978 -0.3504
15147TIP3    H266857   0.638   1.038  17.215 -3.1175  1.0196  0.0698
15148TIP3   OH266858   0.228   0.047   1.882  0.0823 -0.4725 -0.3096
15148TIP3    H166859   0.157   0.013   1.827 -0.1511  0.0865 -0.3559
15148TIP3    H266860   0.190   0.124   1.925  0.1888 -1.0521  0.8213
15149TIP3   OH266861   5.811   1.623  13.609 -0.3863 -0.1289  0.2651
15149TIP3    H166862   5.738   1.668  13.568  0.1240 -0.1219 -0.6517
15149TIP3    H266863   5.807   1.534  13.574 -0.6680 -0.4661  1.1344
15150TIP3   OH266864   3.886   5.392  12.924  0.5241 -0.3222 -0.4680
15150TIP3    H166865   3.883   5.435  13.010 -1.7813  1.2703 -1.2725
15150TIP3    H266866   3.979   5.386  12.903  0.9900  3.3184  0.2236
15151TIP3   OH266867   0.133   0.977  16.413  0.1358 -0.0452  0.2099
15151TIP3    H166868   0.177   1.038  16.472  0.3691  0.1885 -0.2032
15151TIP3    H266869   0.202   0.945  16.356  0.0939 -1.0309  0.7010
15152TIP3   OH266870   1.954   3.002  16.697 -0.0576  0.1720 -0.4431
15152TIP3    H166871   1.897   3.056  16.642 -0.6041 -1.0952 -1.1555
15152TIP3    H266872   2.035   3.051  16.705 -0.7182  1.3059 -0.6851
15153TIP3   OH266873   0.346   3.229  14.069 -0.0884 -0.0433 -0.3044
15153TIP3    H166874   0.312   3.251  14.156 -1.5623 -1.7031 -0.4391
15153TIP3    H266875   0.427   3.180  14.087  1.4078  2.4554  0.0414
15154TIP3   OH266876   1.251   2.954   0.730  0.1732  0.2557  0.2958
15154TIP3    H166877   1.249   2.859   0.716  0.9563 -0.0300  2.0318
15154TIP3    H266878   1.164   2.974   0.766 -0.1056  0.2532 -0.3679
15155TIP3   OH266879   6.440   0.478  13.322  0.6713  0.0090 -0.2438
15155TIP3    H166880   6.455   0.563  13.362 -0.9539 -0.1137  0.6369
15155TIP3    H266881   6.420   0.419  13.395  3.9111 -1.6636 -0.5888
15156TIP3   OH266882   2.371   3.453   4.224 -0.5188  0.3019  0.4484
15156TIP3    H166883   2.304   3.493   4.169 -2.0198 -1.0752  1.2309
15156TIP3    H266884   2.355   3.359   4.217  1.2272 -0.0409  0.7831
15157TIP3   OH266885   1.355   4.145   4.543  0.0729  0.1945 -0.4490
15157TIP3    H166886   1.348   4.133   4.638 -0.5003  0.1871 -0.4892
15157TIP3    H266887   1.339   4.059   4.507  1.4177 -0.0427 -0.5119
15158TIP3   OH266888   2.237   3.198   4.934  0.3348  0.3874  0.0914
15158TIP3    H166889   2.307   3.239   4.884  1.1826 -0.5719  0.4912
15158TIP3    H266890   2.268   3.200   5.025 -0.7567  1.2140  0.4640
15159TIP3   OH266891   2.737   2.497   0.696 -0.4706 -0.5796 -0.9646
15159TIP3    H166892   2.785   2.446   0.761 -0.5258 -0.1779 -0.6059
15159TIP3    H266893   2.803   2.550   0.653 -0.6315  0.2222 -0.2400
15160TIP3   OH266894   6.677   3.861   5.617 -0.1458 -0.2771  0.2376
15160TIP3    H166895   6.633   3.896   5.539 -1.7317 -2.0899  0.2722
15160TIP3    H266896   6.630   3.900   5.690  2.4879  2.8315  0.3548
15161TIP3   OH266897   3.052   5.433   1.726  0.2363  0.0140  0.3298
15161TIP3    H166898   3.013   5.351   1.756  2.5023 -0.6800  1.5287
15161TIP3    H266899   3.074   5.418   1.634 -0.8920 -0.1218  0.0839
15162TIP3   OH266900   3.325   5.455   1.790 -0.0407  0.5108  1.0680
15162TIP3    H166901   3.235   5.485   1.776 -0.1250  0.3009  1.1512
15162TIP3    H266902   3.317   5.359   1.793 -0.1421  0.5664  3.3863
15163TIP3   OH266903   3.346   1.446   5.031  0.2233  0.3621 -0.4115
15163TIP3    H166904   3.299   1.454   5.114 -0.3893 -0.8470 -0.6257
15163TIP3    H266905   3.360   1.536   5.002 -0.5169  0.7665  0.4649
15164TIP3   OH266906   1.131   5.721   1.285  0.8422 -0.2574  0.2054
15164TIP3    H166907   1.084   5.642   1.311 -0.5390 -0.0986 -1.7498
15164TIP3    H266908   1.159   5.704   1.195 -0.7131  2.0217 -0.7418
15165TIP3   OH266909   4.138   4.514   2.598  0.5349  0.6011 -0.0247
15165TIP3    H166910   4.048   4.535   2.621  0.2315 -0.9175  0.2661
15165TIP3    H266911   4.178   4.598   2.576 -0.7924  1.3530  0.3884
15166TIP3   OH266912   5.699   1.845   2.728 -0.3144  0.2148  0.9152
15166TIP3    H166913   5.690   1.752   2.752 -0.7160 -0.0628 -0.2537
15166TIP3    H266914   5.628   1.888   2.776 -0.5113 -0.1746  0.9828
15167TIP3   OH266915   2.480   0.678   0.398 -0.7716  0.3182 -0.4012
15167TIP3    H166916   2.396   0.692   0.355 -1.1408 -1.6884 -0.3829
15167TIP3    H266917   2.458   0.642   0.484  0.0976 -3.5943 -1.6862
15168TIP3   OH266918   0.143   6.733   2.931 -0.3026 -0.2174  1.0366
15168TIP3    H166919   0.150   6.639   2.951 -2.7303 -0.4851  0.8575
15168TIP3    H266920   0.183   6.776   3.006  4.1563 -1.3912 -0.5238
15169TIP3   OH266921   5.872   5.605  16.625 -0.0728 -0.2678 -0.2578
15169TIP3    H166922   5.812   5.634  16.557  0.8765  0.8721 -0.6297
15169TIP3    H266923   5.848   5.513  16.641 -0.8377 -0.2995 -1.5313
15170TIP3   OH266924   2.598   3.705   3.689  0.1369 -0.6071  0.2017
15170TIP3    H166925   2.621   3.717   3.597 -1.9206  0.5992 -0.2107
15170TIP3    H266926   2.623   3.787   3.731  0.4986 -0.9133  0.5798
15171TIP3   OH266927   4.691   4.355   3.755  0.6685  0.1187 -0.0206
15171TIP3    H166928   4.680   4.335   3.662 -0.1143  3.6925 -0.7856
15171TIP3    H266929   4.604   4.343   3.793  0.2499  1.7332 -0.4326
15172TIP3   OH266930   3.877   4.878   5.584  0.0495 -0.3692  0.4464
15172TIP3    H166931   3.906   4.866   5.674  1.9576 -0.0501 -0.1131
15172TIP3    H266932   3.796   4.929   5.591  1.6794  2.1325  1.8538
15173TIP3   OH266933   0.454   3.917  11.126 -0.1307 -0.1271  0.1554
15173TIP3    H166934   0.507   3.940  11.050 -1.5355 -0.9963 -1.1203
15173TIP3    H266935   0.517   3.886  11.191  1.2177  1.8010 -0.1790
15174TIP3   OH266936   2.189   2.432   4.641  0.0490  0.3908 -0.2147
15174TIP3    H166937   2.115   2.408   4.585  0.2505 -1.4007  0.2651
15174TIP3    H266938   2.261   2.448   4.580 -0.3110  0.6031 -0.5864
15175TIP3   OH266939   1.117   4.077  14.166 -0.0543 -0.2106  0.4379
15175TIP3    H166940   1.044   4.051  14.221  1.7553 -0.8762  2.5764
15175TIP3    H266941   1.081   4.146  14.110 -2.4986 -1.0608  0.9058
15176TIP3   OH266942   3.251   0.909  16.994  0.2805 -0.0122  0.0390
15176TIP3    H166943   3.240   0.964  17.072 -1.4829  1.1290 -0.9938
15176TIP3    H266944   3.308   0.960  16.937  2.0798 -1.1136  0.7808
15177TIP3   OH266945   2.946   1.101  16.836  0.2503 -0.6554  0.1838
15177TIP3    H166946   2.966   1.008  16.825  0.3938 -0.6863  0.7020
15177TIP3    H266947   3.026   1.145  16.811 -0.3126 -0.5942 -1.5724
15178TIP3   OH266948   3.184   2.362   6.497  0.4380 -0.0928 -0.2396
15178TIP3    H166949   3.257   2.339   6.440  0.8438 -0.9222  0.6083
15178TIP3    H266950   3.222   2.366   6.585 -0.5908 -0.7976  0.2489
15179TIP3   OH266951   5.802   4.925  11.363  0.2749  0.1534 -0.3956
15179TIP3    H166952   5.874   4.867  11.338 -0.9672 -0.6667 -2.1580
15179TIP3    H266953   5.812   4.935  11.458  1.1896 -2.0094 -0.2230
15180TIP3   OH266954   6.286   2.883   1.677  0.5916 -0.2253 -0.7406
15180TIP3    H166955   6.368   2.917   1.640  0.6624  1.3215  0.7668
15180TIP3    H266956   6.312   2.803   1.724  1.1918  0.0762 -0.5515
15181TIP3   OH266957   6.531   1.160  11.623  0.0617  0.2082  0.5004
15181TIP3    H166958   6.573   1.145  11.707  3.0150 -0.8356 -1.0785
15181TIP3    H266959   6.578   1.234  11.584  1.1453 -1.5601 -1.6964
15182TIP3   OH266960   3.065   4.030  11.462  0.0319  0.0775  0.2266
15182TIP3    H166961   3.071   4.118  11.425  1.6220 -0.3054 -0.4846
15182TIP3    H266962   2.979   4.027  11.503 -0.7085  1.4125 -1.1734
15183TIP3   OH266963   0.135   0.242  12.487  0.1509 -0.1008  0.3471
15183TIP3    H166964   0.118   0.176  12.555 -0.2677  0.7817  1.1055
15183TIP3    H266965   0.054   0.293  12.482  0.2805  0.0176 -0.6244
15184TIP3   OH266966   6.209   6.557   3.704 -0.1045 -0.0302 -0.6576
15184TIP3    H166967   6.157   6.526   3.629  1.6251  1.4323 -2.4983
15184TIP3    H266968   6.162   6.634   3.735  0.0198  0.2734 -1.2193
15185TIP3   OH266969   4.373   3.190   4.949  0.2753 -0.0884 -0.5408
15185TIP3    H166970   4.463   3.221   4.961  0.5868 -0.7434 -1.1274
15185TIP3    H266971   4.324   3.230   5.021  0.6511  1.7472 -1.2787
15186TIP3   OH266972   0.535   4.226   3.229 -0.4327  0.1124  0.5068
15186TIP3    H166973   0.456   4.187   3.192 -0.1036 -0.4778  0.4127
15186TIP3    H266974   0.585   4.255   3.152 -0.3086 -0.0083  0.5428
15187TIP3   OH266975   2.644   0.196  15.656  0.0529  0.1262 -0.0131
15187TIP3    H166976   2.701   0.199  15.733  0.2792 -0.1696 -0.1638
15187TIP3    H266977   2.648   0.105  15.627 -2.3719 -0.4203  1.3437
15188TIP3   OH266978   0.743   6.080   1.816 -0.2273 -0.2810 -0.2485
15188TIP3    H166979   0.773   6.072   1.726  0.8194 -0.8644  0.1393
15188TIP3    H266980   0.690   6.002   1.832 -0.4272 -0.1681 -0.3641
15189TIP3   OH266981   6.644   4.581   4.307  0.0462  0.3008 -0.2617
15189TIP3    H166982   6.690   4.596   4.224 -0.5800  0.3372 -0.6085
15189TIP3    H266983   6.707   4.534   4.361  1.4830  2.7628  0.2689
15190TIP3   OH266984   2.653   0.276  16.958  0.0577  0.5958  0.8040
15190TIP3    H166985   2.643   0.254  16.865  0.9300  0.3845  0.7552
15190TIP3    H266986   2.579   0.333  16.977  0.1354  1.0282 -0.1467
15191TIP3   OH266987   1.021   2.777   4.518  0.2110 -0.6622  0.4863
15191TIP3    H166988   1.097   2.808   4.470 -0.7435  0.8838 -0.0270
15191TIP3    H266989   1.017   2.683   4.498  1.4361 -0.5760 -0.2035
15192TIP3   OH266990   2.907   3.154   0.364 -0.1423 -0.1425  0.4000
15192TIP3    H166991   2.898   3.227   0.425 -1.8669 -1.1566  1.3800
15192TIP3    H266992   2.968   3.094   0.406  2.7426  1.5212 -1.2258
15193TIP3   OH266993   6.735   4.892  13.272  0.0346 -0.0656  0.4043
15193TIP3    H166994   6.756   4.984  13.260  0.1172 -0.2137 -0.6949
15193TIP3    H266995   6.816   4.851  13.302  0.6211 -0.1657 -1.2566
15194TIP3   OH266996   5.227   3.840   0.457  0.3091 -0.1382  0.0831
15194TIP3    H166997   5.168   3.841   0.382  0.4462  2.8182 -0.0453
15194TIP3    H266998   5.305   3.887   0.427  1.4115 -1.1827  1.2628
15195TIP3   OH266999   3.195   5.108   5.789  0.0867 -0.2081 -0.8186
15195TIP3    H167000   3.228   5.040   5.730  1.9012  0.4638 -0.5956
15195TIP3    H267001   3.217   5.077   5.876  2.0449  1.2147 -0.7685
15196TIP3   OH267002   2.081   5.898   4.669  0.6243  0.5611 -0.2597
15196TIP3    H167003   2.128   5.981   4.679  0.1394  0.8376 -0.2611
15196TIP3    H267004   1.989   5.922   4.670  0.4498 -0.0964  0.9401
15197TIP3   OH267005   3.308   2.959  13.128 -0.7233 -0.3315 -0.1239
15197TIP3    H167006   3.273   3.001  13.207 -2.5630  2.2977 -2.2310
15197TIP3    H267007   3.231   2.948  13.071  0.8905 -0.2838 -2.3774
15198TIP3   OH267008   6.703   6.122   3.781  0.1423 -0.0396  0.4934
15198TIP3    H167009   6.789   6.165   3.781  0.8209 -1.3660 -0.0291
15198TIP3    H267010   6.718   6.039   3.735 -1.3367 -0.4544  0.7431
15199TIP3   OH267011   1.709   4.927  16.929 -0.2622  0.1096 -0.4246
15199TIP3    H167012   1.756   4.915  16.846  1.6708 -0.9451  0.7932
15199TIP3    H267013   1.777   4.925  16.996 -1.9152 -0.1212  1.2977
15200TIP3   OH267014   1.277   2.304   2.986  0.4757  0.0726 -0.2477
15200TIP3    H167015   1.235   2.243   3.047  0.3408  0.7847  0.3778
15200TIP3    H267016   1.326   2.248   2.926  0.4104 -0.6455  0.3658
15201TIP3   OH267017   4.013   4.214  16.692  0.1520  0.2146 -0.3647
15201TIP3    H167018   4.098   4.252  16.713 -0.8325  2.1380  0.2831
15201TIP3    H267019   4.030   4.120  16.683  2.5407  0.6945 -1.4021
15202TIP3   OH267020   5.534   4.685  13.101 -0.0236 -0.2972 -0.4824
15202TIP3    H167021   5.621   4.698  13.063 -0.0436  2.2638  0.3094
15202TIP3    H267022   5.473   4.716  13.034 -0.2906 -0.8598 -0.5050
15203TIP3   OH267023   0.812   5.980   0.086  0.0838  0.2176  0.0241
15203TIP3    H167024   0.755   5.933   0.026 -0.7000 -0.0069  0.9309
15203TIP3    H267025   0.754   6.009   0.157  0.4498  3.0620 -0.7963
15204TIP3   OH267026   3.966   2.289  17.197 -0.1859 -0.0414  0.1072
15204TIP3    H167027   4.055   2.298  17.230  0.1316  0.0554 -0.7704
15204TIP3    H267028   3.974   2.230  17.123 -0.6229  1.1820 -0.9230
15205TIP3   OH267029   1.532   1.174   1.002 -0.1765  0.1936 -0.6159
15205TIP3    H167030   1.489   1.192   0.918  2.3229  3.0863 -1.3663
15205TIP3    H267031   1.600   1.110   0.980 -1.9304 -1.9313 -0.0288
15206TIP3   OH267032   0.493   1.415   0.120 -0.6403  0.0640 -0.1054
15206TIP3    H167033   0.533   1.369   0.194  0.1243 -0.7069 -0.9756
15206TIP3    H267034   0.429   1.354   0.085 -0.4471  0.1088 -0.5479
15207TIP3   OH267035   0.290   3.912   6.042  0.2002  0.1854 -0.3476
15207TIP3    H167036   0.332   3.826   6.039  1.2276  0.5785  1.7714
15207TIP3    H267037   0.342   3.961   6.106 -4.0543  0.3914  3.1967
15208TIP3   OH267038   0.965   3.167  13.161  0.3599 -0.2229 -0.1991
15208TIP3    H167039   1.029   3.126  13.219 -1.8636 -2.4916  0.6828
15208TIP3    H267040   0.949   3.253  13.201  1.5222 -0.3391  0.5476
15209TIP3   OH267041   1.329   0.869  16.920  0.4621  0.2294 -0.4818
15209TIP3    H167042   1.305   0.926  16.993 -0.7235 -0.0518 -0.6438
15209TIP3    H267043   1.416   0.899  16.894 -0.5397  2.5976 -1.1989
15210TIP3   OH267044   0.156   3.194   0.654  0.6473  0.5188 -0.4275
15210TIP3    H167045   0.143   3.242   0.572 -1.9287  1.1995  0.3536
15210TIP3    H267046   0.114   3.109   0.639 -0.0222  0.7286  0.2749
15211TIP3   OH267047   0.883   3.431  15.412  0.2481  0.3713  0.0321
15211TIP3    H167048   0.964   3.475  15.437 -0.5718  1.8479  0.1849
15211TIP3    H267049   0.824   3.446  15.486 -1.0000  1.5775 -1.1735
15212TIP3   OH267050   1.824   6.517   5.636  0.5670  0.4122  0.9761
15212TIP3    H167051   1.911   6.556   5.623  1.7414 -2.1065  0.9823
15212TIP3    H267052   1.776   6.583   5.686  1.5979  2.9460 -1.3003
15213TIP3   OH267053   1.083   5.185   4.392 -0.1841 -0.3889 -0.7932
15213TIP3    H167054   1.089   5.243   4.468  1.8801 -1.1268 -0.3620
15213TIP3    H267055   0.998   5.142   4.400  0.4760 -1.2862  1.6912
15214TIP3   OH267056   6.137   5.609   3.723  0.0520  0.8508 -0.3952
15214TIP3    H167057   6.165   5.590   3.634 -0.9145 -1.2073 -0.2810
15214TIP3    H267058   6.106   5.525   3.758 -0.0073  1.7048  1.7241
15215TIP3   OH267059   1.531   6.297   3.182  0.5819 -0.4241  0.9308
15215TIP3    H167060   1.601   6.278   3.120  0.4512  1.2430  0.2321
15215TIP3    H267061   1.468   6.226   3.170  0.8454 -0.4464 -0.4286
15216TIP3   OH267062   2.364   5.385  17.171 -0.3776  0.5443  0.1305
15216TIP3    H167063   2.407   5.407  17.253  0.5725  1.1181 -0.5154
15216TIP3    H267064   2.422   5.322  17.128  0.3237  2.0581 -1.1895
15217TIP3   OH267065   0.146   3.074  11.679  0.0408 -0.2754 -0.2338
15217TIP3    H167066   0.100   3.004  11.634 -1.3063  1.6731 -2.0099
15217TIP3    H267067   0.190   3.123  11.608  2.0498 -0.1192  1.0927
15218TIP3   OH267068   4.165   4.781  14.324 -0.1326  0.3273  0.5142
15218TIP3    H167069   4.130   4.732  14.250 -0.6575  0.4324  0.6911
15218TIP3    H267070   4.232   4.838  14.286 -0.3817  0.3601  0.1283
15219TIP3   OH267071   2.105   6.447   3.653 -0.7876 -0.0625  0.2607
15219TIP3    H167072   2.064   6.494   3.581 -0.0392  0.2372  0.0304
15219TIP3    H267073   2.198   6.440   3.628 -0.5574 -0.1034  1.1111
15220TIP3   OH267074   2.803   2.082  12.016  0.6250  0.5926  0.2317
15220TIP3    H167075   2.865   2.031  11.964  0.2657  2.4106 -2.1055
15220TIP3    H267076   2.856   2.151  12.057  0.7858 -0.3758  1.6757
15221TIP3   OH267077   2.128   4.647  14.776  0.5185 -0.7149  0.1479
15221TIP3    H167078   2.148   4.725  14.724  0.5317 -0.6175  0.2975
15221TIP3    H267079   2.180   4.659  14.856 -1.1609  0.2050  1.1417
15222TIP3   OH267080   4.451   1.950  16.157 -0.6001 -0.7989 -0.4511
15222TIP3    H167081   4.415   1.980  16.073 -0.2278 -1.5226 -0.8714
15222TIP3    H267082   4.375   1.950  16.216 -1.0008 -0.8947 -0.9554
15223TIP3   OH267083   5.040   1.001  13.268 -0.1455 -0.2699 -0.2721
15223TIP3    H167084   5.001   1.039  13.347  1.4589 -0.2636  0.5360
15223TIP3    H267085   4.981   1.025  13.197 -1.0073  0.6851  0.7666
15224TIP3   OH267086   6.463   5.250  11.072  0.2701 -0.3194 -0.0850
15224TIP3    H167087   6.412   5.223  10.996 -2.6400 -2.3415  2.4530
15224TIP3    H267088   6.424   5.334  11.098  1.2756  0.3797 -0.7919
15225TIP3   OH267089   0.350   5.907   2.625 -0.2823 -0.3184 -0.0964
15225TIP3    H167090   0.322   5.969   2.692 -0.2885 -0.9213  0.4586
15225TIP3    H267091   0.400   5.960   2.563  1.9861 -0.2253  1.7397
15226TIP3   OH267092   5.706   5.532   2.243  0.2345  0.7508 -0.3923
15226TIP3    H167093   5.663   5.594   2.302 -3.1960  0.1032 -2.0911
15226TIP3    H267094   5.670   5.447   2.267  1.6298 -0.0276 -0.9709
15227TIP3   OH267095   1.838   2.365  11.406 -0.3128 -0.0413 -0.4627
15227TIP3    H167096   1.813   2.294  11.465  0.1318 -1.0530 -1.4731
15227TIP3    H267097   1.931   2.351  11.389 -0.4685  0.1486 -1.5147
15228TIP3   OH267098   4.519   2.740   5.584  0.5864 -0.3079 -0.7366
15228TIP3    H167099   4.493   2.674   5.648  0.0282  1.2798  0.6999
15228TIP3    H267100   4.468   2.718   5.506  0.0928 -1.3140 -0.1504
15229TIP3   OH267101   1.064   1.910  11.874  0.0822 -0.1548  0.5003
15229TIP3    H167102   0.990   1.855  11.898 -0.6052  0.5832  0.0857
15229TIP3    H267103   1.134   1.848  11.851 -0.9467 -0.8625 -0.7887
15230TIP3   OH267104   3.014   1.536  17.053 -0.8017  0.2112  0.4619
15230TIP3    H167105   2.945   1.530  17.120  0.1652  3.0373  1.8229
15230TIP3    H267106   2.974   1.586  16.982 -0.5522  0.7771  0.7178
15231TIP3   OH267107   4.622   3.705   2.975 -0.1003  0.5478 -0.1484
15231TIP3    H167108   4.695   3.647   2.955 -0.0924  0.7460 -0.7069
15231TIP3    H267109   4.550   3.647   2.998  0.0041  0.3277 -0.3784
15232TIP3   OH267110   5.899   0.664  16.005 -0.0455 -0.2869  0.3512
15232TIP3    H167111   5.855   0.607  16.067 -2.4120 -0.1228 -1.1049
15232TIP3    H267112   5.936   0.734  16.058  0.9184 -1.9575  1.9061
15233TIP3   OH267113   4.081   5.364   5.147  0.0965  0.6902  0.3022
15233TIP3    H167114   4.149   5.429   5.127  1.3926 -1.2962 -2.1098
15233TIP3    H267115   4.048   5.337   5.061 -1.0777 -1.1308  1.2977
15234TIP3   OH267116   2.874   0.413   4.529 -0.1695  0.6584 -0.4238
15234TIP3    H167117   2.842   0.478   4.466  4.5518  2.6818 -0.9909
15234TIP3    H267118   2.890   0.334   4.476 -0.7526  0.7933 -0.8067
15235TIP3   OH267119   4.149   5.420   3.092 -0.0560  0.1653 -0.2267
15235TIP3    H167120   4.088   5.395   3.024  1.7190  0.4010 -1.9422
15235TIP3    H267121   4.198   5.340   3.111 -1.0293 -0.0974  1.3431
15236TIP3   OH267122   4.165   1.097  15.054  0.1050  0.4822 -0.2745
15236TIP3    H167123   4.175   1.083  15.148 -2.0617  1.2026  0.0802
15236TIP3    H267124   4.237   1.046  15.015  0.4302 -0.6305  1.6964
15237TIP3   OH267125   5.472   4.216   0.328 -0.7859  0.0117 -0.3984
15237TIP3    H167126   5.408   4.287   0.325 -0.0934  0.5616 -2.8784
15237TIP3    H267127   5.513   4.226   0.414 -2.2592  1.2125  0.2039
15238TIP3   OH267128   0.198   2.946  14.521 -0.2407  0.1777 -0.1974
15238TIP3    H167129   0.211   2.900  14.604 -1.2352 -0.8439 -0.6006
15238TIP3    H267130   0.115   2.992  14.531  0.2224  1.0468 -0.2036
15239TIP3   OH267131   5.312   4.006   0.913 -0.2285 -0.5707 -0.0734
15239TIP3    H167132   5.315   3.931   0.853 -0.0712 -0.3273 -0.3687
15239TIP3    H267133   5.284   4.079   0.858 -0.8375 -0.5119  0.3146
15240TIP3   OH267134   1.241   3.351  13.197 -0.0357  0.1746  0.3120
15240TIP3    H167135   1.249   3.255  13.202 -3.0735 -0.0386  1.9096
15240TIP3    H267136   1.275   3.382  13.281 -0.6095  0.3963  0.4597
15241TIP3   OH267137   4.562   3.470  16.221  0.3069 -0.1092 -0.5737
15241TIP3    H167138   4.534   3.522  16.297 -1.3146 -0.0600 -1.1819
15241TIP3    H267139   4.655   3.454  16.236  0.1546  0.4526  1.1031
15242TIP3   OH267140   0.034   5.104  15.408 -0.1838  0.4469  0.5140
15242TIP3    H167141   0.081   5.020  15.412 -1.6203 -0.2978  2.3593
15242TIP3    H267142   0.082   5.161  15.469  1.5563  1.4137 -1.6779
15243TIP3   OH267143   5.190   6.748   4.137  0.0544 -0.5278 -0.0253
15243TIP3    H167144   5.151   6.667   4.170 -0.8787  0.0296  0.2400
15243TIP3    H267145   5.185   6.741   4.042 -1.7249  0.0308  0.0111
15244TIP3   OH267146   4.736   4.494  16.172 -0.5142  0.5006  0.3572
15244TIP3    H167147   4.819   4.459  16.140  0.1264  2.3322 -0.0341
15244TIP3    H267148   4.676   4.484  16.098  0.1408  1.8759 -0.3632
15245TIP3   OH267149   5.322   5.088   0.364 -0.3740 -0.0093 -0.4308
15245TIP3    H167150   5.399   5.109   0.311  0.5235  1.6404  1.4816
15245TIP3    H267151   5.251   5.136   0.323  0.1217  0.4931 -0.7078
15246TIP3   OH267152   2.767   5.600   0.760  0.0842 -0.2680  0.2624
15246TIP3    H167153   2.678   5.588   0.727  0.1793 -0.5181  0.0982
15246TIP3    H267154   2.763   5.683   0.808 -0.2916 -0.3929  0.4509
15247TIP3   OH267155   3.765   1.561  15.026 -0.0520  0.4794 -0.1282
15247TIP3    H167156   3.821   1.581  15.100 -1.3021 -0.2740  1.0481
15247TIP3    H267157   3.739   1.647  14.991  2.1477  0.8259 -0.9621
15248TIP3   OH267158   3.267   2.718   4.219 -0.0957 -0.1053  0.0909
15248TIP3    H167159   3.307   2.698   4.304 -0.7443  1.5113  0.7977
15248TIP3    H267160   3.219   2.639   4.196 -2.0030  0.2792  2.4510
15249TIP3   OH267161   2.450   1.659   1.583  0.0094  0.3848 -0.4774
15249TIP3    H167162   2.424   1.728   1.645 -2.2303 -1.8077  1.1361
15249TIP3    H267163   2.412   1.686   1.500  1.2136  2.2830 -0.4502
15250TIP3   OH267164   0.501   0.766   4.130  0.2447 -0.5366  1.3492
15250TIP3    H167165   0.575   0.714   4.099 -0.4240 -0.7892  0.1688
15250TIP3    H267166   0.521   0.783   4.222  1.3710 -1.2958  1.2538
15251TIP3   OH267167   0.473   0.930  15.167 -0.0296 -0.4678 -0.3684
15251TIP3    H167168   0.497   1.021  15.147  2.6345 -1.1788 -0.5601
15251TIP3    H267169   0.378   0.928  15.157 -0.1430  2.3175 -0.2896
15252TIP3   OH267170   5.887   4.164  13.221 -0.3843  0.1477  0.3021
15252TIP3    H167171   5.885   4.138  13.129 -0.9044 -1.4207  0.7427
15252TIP3    H267172   5.811   4.221  13.231 -1.4050 -1.1795  0.1855
15253TIP3   OH267173   0.884   6.296  11.095  0.9435  0.1761 -0.0783
15253TIP3    H167174   0.879   6.329  11.005 -1.3556 -1.9096 -0.7798
15253TIP3    H267175   0.946   6.223  11.091  0.5522 -0.1594 -0.0574
15254TIP3   OH267176   6.775   4.334  15.437  0.5282 -0.0394  0.0131
15254TIP3    H167177   6.757   4.376  15.352 -2.4118  0.8281  1.0050
15254TIP3    H267178   6.868   4.351  15.453  0.0964  3.6155 -0.9721
15255TIP3   OH267179   1.257   5.161  16.728  0.1307 -0.3046 -0.0485
15255TIP3    H167180   1.289   5.085  16.778 -0.2567 -0.2831  0.2379
15255TIP3    H267181   1.162   5.151  16.728  0.1370 -0.3714 -0.9009
15256TIP3   OH267182   1.214   5.353   0.514 -0.3196 -0.5188 -0.4241
15256TIP3    H167183   1.268   5.344   0.592  1.2688 -0.1593 -1.4551
15256TIP3    H267184   1.215   5.447   0.495 -2.3427 -0.3365  0.2486
15257TIP3   OH267185   0.913   3.149  12.166 -0.4479  0.3731 -0.4529
15257TIP3    H167186   0.874   3.094  12.234  1.5978 -0.7966 -0.1874
15257TIP3    H267187   1.001   3.112  12.152  0.5805  2.8951 -1.0216
15258TIP3   OH267188   0.953   1.708  11.522  0.0362  0.2255  0.4978
15258TIP3    H167189   0.892   1.744  11.458 -0.4029  0.1789  0.8890
15258TIP3    H267190   0.901   1.649  11.576  0.1132  1.2291  1.7017
15259TIP3   OH267191   0.743   4.313  17.228 -0.0233 -0.7582 -0.6714
15259TIP3    H167192   0.675   4.356  17.177 -0.1861  1.4028  1.2973
15259TIP3    H267193   0.819   4.370  17.220  0.3004 -1.0048  0.5066
15260TIP3   OH267194   5.939   0.503  10.813 -0.4604 -0.3027  0.1599
15260TIP3    H167195   5.938   0.571  10.881 -3.2270 -0.7504  0.6391
15260TIP3    H267196   5.999   0.437  10.846  1.1380  1.2044  0.3732
15261TIP3   OH267197   4.117   5.216   4.649 -0.2174 -0.8740 -0.5143
15261TIP3    H167198   4.187   5.216   4.715 -0.0090  3.0011 -0.6453
15261TIP3    H267199   4.163   5.223   4.565 -0.6855  0.0923 -0.6945
15262TIP3   OH267200   4.185   5.399   4.244 -0.1312  0.6614 -0.2580
15262TIP3    H167201   4.102   5.360   4.273 -0.0337  0.8330  0.2612
15262TIP3    H267202   4.246   5.379   4.315  0.2260  0.7015 -0.5538
15263TIP3   OH267203   2.318   5.891   1.150 -0.1198 -0.2338 -0.6936
15263TIP3    H167204   2.360   5.808   1.130 -0.1458 -0.4871  0.3205
15263TIP3    H267205   2.347   5.950   1.080  3.1402  0.0344  0.7909
15264TIP3   OH267206   4.114   1.152   5.728  0.3174  0.2078  0.3065
15264TIP3    H167207   4.206   1.126   5.730 -0.4893 -2.8454 -0.2734
15264TIP3    H267208   4.094   1.163   5.635 -0.0314  0.3875  0.3997
15265TIP3   OH267209   0.597   3.768  13.552 -0.0019 -0.1661 -0.1208
15265TIP3    H167210   0.639   3.699  13.501 -1.0364  0.0726 -1.3398
15265TIP3    H267211   0.602   3.737  13.643  0.3998 -1.3831 -0.5409
15266TIP3   OH267212   1.730   3.073  15.593  0.0736  0.5767 -0.0256
15266TIP3    H167213   1.804   3.014  15.574 -0.4374 -0.2058  0.3884
15266TIP3    H267214   1.670   3.060  15.520 -0.8464 -0.7415  0.9365
15267TIP3   OH267215   2.857   6.205   5.102 -0.5499 -1.1029  0.0976
15267TIP3    H167216   2.780   6.248   5.065 -1.0393 -0.7326  1.4792
15267TIP3    H267217   2.824   6.123   5.138 -0.3341 -0.8907  0.7935
15268TIP3   OH267218   3.236   5.248   0.017  0.0652 -0.2798  0.2353
15268TIP3    H167219   3.145   5.234   0.042  0.4982  1.4231  2.9785
15268TIP3    H267220   3.238   5.337  -0.019  0.9909  0.5373  2.2263
15269TIP3   OH267221   3.579   4.224  14.053 -0.6415 -0.0809  0.2514
15269TIP3    H167222   3.670   4.201  14.030 -0.8388 -0.9639  0.3392
15269TIP3    H267223   3.551   4.283  13.983 -0.0109  0.1632  0.2015
15270TIP3   OH267224   5.562   4.866  12.716 -0.1379 -0.0716  0.4831
15270TIP3    H167225   5.526   4.946  12.678 -0.2916  0.1911  1.1696
15270TIP3    H267226   5.645   4.893  12.755 -0.4227 -0.1389  1.1458
15271TIP3   OH267227   2.587   1.408   5.123  0.2904 -0.1359  0.8428
15271TIP3    H167228   2.645   1.332   5.118  1.4907  0.8039  0.1165
15271TIP3    H267229   2.559   1.410   5.215 -1.4961 -2.6936  0.3961
15272TIP3   OH267230   3.748   3.974  15.910 -0.5247  0.2974 -0.0804
15272TIP3    H167231   3.780   3.904  15.854 -1.0567 -1.0469  1.2765
15272TIP3    H267232   3.826   4.008  15.954 -0.3934 -0.0617 -0.0405
15273TIP3   OH267233   5.200   5.425   0.667 -0.1474 -0.3904  0.9799
15273TIP3    H167234   5.242   5.500   0.708  1.2239  0.0065 -1.0954
15273TIP3    H267235   5.248   5.411   0.586 -1.0451 -2.8660  0.8077
15274TIP3   OH267236   1.340   1.803  13.618 -0.4141 -0.0814 -0.0994
15274TIP3    H167237   1.352   1.783  13.525 -2.3302  1.9194 -0.8397
15274TIP3    H267238   1.272   1.871  13.618 -0.4734 -0.1153  2.7738
15275TIP3   OH267239   6.617   4.468   2.566 -0.3555  0.0504 -0.6856
15275TIP3    H167240   6.707   4.466   2.598 -0.1273  0.3386 -1.3190
15275TIP3    H267241   6.615   4.406   2.493 -0.6563  0.0869 -0.7111
15276TIP3   OH267242   1.718   6.662   4.022 -0.0995  0.1070 -0.2753
15276TIP3    H167243   1.715   6.566   4.028 -0.7416  0.0784 -1.0061
15276TIP3    H267244   1.743   6.680   3.932  0.3370  0.6359 -0.0566
15277TIP3   OH267245   0.179   5.483   2.749 -0.5649  0.7680  0.2700
15277TIP3    H167246   0.220   5.403   2.717  0.1689  2.2741 -2.6708
15277TIP3    H267247   0.240   5.516   2.816 -0.7171 -0.9137  1.2626
15278TIP3   OH267248   0.030   1.243   5.527 -0.6602  0.5824  0.0332
15278TIP3    H167249  -0.005   1.320   5.572  0.7875  0.6020  1.1754
15278TIP3    H267250   0.122   1.239   5.554 -0.5288 -1.1283 -0.5896
15279TIP3   OH267251   5.314   4.154  16.447 -0.0027  0.1238  0.1680
15279TIP3    H167252   5.296   4.107  16.366 -1.5659 -2.7133  2.0536
15279TIP3    H267253   5.407   4.139  16.464  0.0399 -0.3131 -0.4380
15280TIP3   OH267254   4.076   1.187   5.450 -0.2047  0.2019  0.1014
15280TIP3    H167255   4.094   1.262   5.394  1.4292  0.9104  1.5138
15280TIP3    H267256   4.120   1.113   5.408 -0.7393  0.2856 -0.6144
15281TIP3   OH267257   6.419   1.118   1.615  0.2589 -0.2676  0.0853
15281TIP3    H167258   6.440   1.042   1.669  1.5532 -0.2266 -0.3474
15281TIP3    H267259   6.495   1.176   1.623 -1.2644  1.6269  1.4851
15282TIP3   OH267260   2.305   3.373   5.382  0.1285  0.1889 -0.2306
15282TIP3    H167261   2.316   3.303   5.318  0.8847  0.3686 -0.3100
15282TIP3    H267262   2.342   3.338   5.463  1.5973  0.9070 -0.5680
15283TIP3   OH267263   4.438   5.899  13.972 -0.3611  0.1028 -0.1434
15283TIP3    H167264   4.381   5.975  13.958 -0.7241 -0.1937 -0.2882
15283TIP3    H267265   4.464   5.906  14.063 -1.5124 -0.3531  0.2330
15284TIP3   OH267266   2.109   1.051   0.877 -0.1132  0.2750  0.1326
15284TIP3    H167267   2.030   1.036   0.824  0.6974 -0.5472 -0.8668
15284TIP3    H267268   2.079   1.107   0.948 -1.5426  0.2302 -0.4022
15285TIP3   OH267269   2.519   1.722  13.065 -0.4884 -0.2731  0.1028
15285TIP3    H167270   2.457   1.682  13.125  0.3531  0.4069  1.4591
15285TIP3    H267271   2.512   1.816  13.083  0.9221 -0.1912  0.2791
15286TIP3   OH267272   3.574   2.955  16.193  0.4474 -0.0379  0.3700
15286TIP3    H167273   3.493   2.942  16.241  0.8420 -0.2100  1.0018
15286TIP3    H267274   3.555   3.026  16.132  0.2962  1.0709  1.6603
15287TIP3   OH267275   1.511   5.262  12.960 -0.5885  0.2733  0.3696
15287TIP3    H167276   1.461   5.317  12.900  0.8252 -0.2321 -1.2922
15287TIP3    H267277   1.593   5.308  12.972  0.0482 -0.7734  0.0812
15288TIP3   OH267278   3.742   5.210  14.671 -0.2266 -0.1488  0.4020
15288TIP3    H167279   3.724   5.118  14.693 -2.6159  0.0757 -0.5251
15288TIP3    H267280   3.810   5.205  14.603 -1.1539 -1.2993 -0.4738
15289TIP3   OH267281   3.108   4.951   2.649  0.2630  0.3604  0.0283
15289TIP3    H167282   3.091   4.914   2.735 -1.3592 -1.2774 -0.9674
15289TIP3    H267283   3.083   5.043   2.657 -2.4896 -0.4095  0.5508
15290TIP3   OH267284   3.380   4.382   4.669 -0.1594 -0.2762 -0.0176
15290TIP3    H167285   3.331   4.435   4.733  0.8834  1.4601 -0.6107
15290TIP3    H267286   3.436   4.327   4.723  0.9371  1.3969  0.6192
15291TIP3   OH267287   6.330   4.360   3.421  0.3977  0.2957  0.2522
15291TIP3    H167288   6.261   4.306   3.460 -0.1469 -0.5305 -1.7851
15291TIP3    H267289   6.299   4.378   3.333  1.5863  2.1595  0.1847
15292TIP3   OH267290   3.860   6.503  13.286  0.1085  0.4577 -0.1329
15292TIP3    H167291   3.817   6.532  13.206 -0.1251 -1.2565 -0.6472
15292TIP3    H267292   3.952   6.524  13.273  0.4384 -1.9071 -1.8535
15293TIP3   OH267293   1.892   4.970  14.281  0.2523  0.6167 -0.5357
15293TIP3    H167294   1.891   4.896  14.342  0.0940  0.8518 -0.2474
15293TIP3    H267295   1.905   5.047  14.337  1.0896  0.7482 -0.9016
15294TIP3   OH267296   3.463   0.788   3.901 -0.4779 -0.6541 -0.1354
15294TIP3    H167297   3.534   0.725   3.912 -0.6499 -0.8955 -0.3821
15294TIP3    H267298   3.483   0.832   3.818 -0.7765 -0.9353 -0.3592
15295TIP3   OH267299   4.830   3.535   3.372  0.5327  0.0782 -0.2921
15295TIP3    H167300   4.862   3.445   3.361  1.2949  0.4583 -1.2609
15295TIP3    H267301   4.773   3.531   3.449  0.0386 -1.3742 -0.7144
15296TIP3   OH267302   0.705   0.923   4.698 -0.0887 -0.2660 -0.2288
15296TIP3    H167303   0.686   0.856   4.763  0.8681  1.0879  1.4856
15296TIP3    H267304   0.648   0.996   4.720  1.4895  0.8683  0.2018
15297TIP3   OH267305   2.455   4.483  15.817  1.0315  0.5537  0.7015
15297TIP3    H167306   2.423   4.541  15.886 -1.0820 -0.1248  0.3202
15297TIP3    H267307   2.421   4.397  15.841  1.2850  0.0929 -0.5572
15298TIP3   OH267308   4.086   1.431   1.282  0.4940 -0.3543  0.1959
15298TIP3    H167309   4.013   1.477   1.325  0.2901 -0.2312 -0.2817
15298TIP3    H267310   4.109   1.362   1.343 -1.8201 -2.1294 -0.8597
15299TIP3   OH267311   5.731   3.100  13.759  0.2788  0.2229  0.3825
15299TIP3    H167312   5.723   3.165  13.689  0.9990 -0.2792 -0.1672
15299TIP3    H267313   5.656   3.041  13.745  0.5103  0.0335 -0.0552
15300TIP3   OH267314   6.172   2.843  14.097  0.5166  0.3394  0.6209
15300TIP3    H167315   6.113   2.887  14.036 -0.3965 -0.2317  1.0854
15300TIP3    H267316   6.260   2.875  14.073  0.1398  0.3383 -0.7992
15301TIP3   OH267317   0.009   6.433   2.837 -0.3812 -0.3378  0.0980
15301TIP3    H167318  -0.080   6.400   2.823 -0.6071  0.3931 -0.2052
15301TIP3    H267319   0.058   6.401   2.760 -0.1447 -1.5491  0.7385
15302TIP3   OH267320   2.582   3.616  12.112 -0.3031 -0.4161  0.2576
15302TIP3    H167321   2.534   3.662  12.043  1.0788  0.1229 -0.3529
15302TIP3    H267322   2.674   3.632  12.092  0.1117  0.0192  2.4035
15303TIP3   OH267323   5.212   0.185  15.816 -0.5124 -0.5045 -0.5472
15303TIP3    H167324   5.164   0.265  15.838  1.1549  0.3888 -0.0110
15303TIP3    H267325   5.249   0.203  15.729 -0.0135 -0.6180 -0.3613
15304TIP3   OH267326   0.325   2.469  15.955  0.3631 -0.2679  0.2853
15304TIP3    H167327   0.355   2.544  15.902  0.4638 -0.3199  0.2684
15304TIP3    H267328   0.350   2.493  16.045  0.2198 -0.1941  0.3072
15305TIP3   OH267329   1.498   5.277  15.261 -0.3019  0.0924  0.4240
15305TIP3    H167330   1.570   5.324  15.220  0.6150 -1.8698 -0.2656
15305TIP3    H267331   1.530   5.255  15.349 -1.2242  1.8643  1.2318
15306TIP3   OH267332   5.835   3.894   2.785 -0.0687 -0.1469  0.0709
15306TIP3    H167333   5.865   3.875   2.696  0.0067 -0.7447  0.2226
15306TIP3    H267334   5.742   3.914   2.776 -0.4540 -1.9097  0.0865
15307TIP3   OH267335   6.458   5.572   2.671  0.1363  0.1107 -0.0149
15307TIP3    H167336   6.486   5.650   2.623  2.8764  0.1484  1.5376
15307TIP3    H267337   6.464   5.501   2.607  0.0942  0.7471 -0.7367
15308TIP3   OH267338   2.352   4.584  16.064 -0.4124  0.0283 -0.0184
15308TIP3    H167339   2.309   4.657  16.108  1.8923  0.6194  1.3415
15308TIP3    H267340   2.350   4.513  16.127  1.5480  0.4131  0.5272
15309TIP3   OH267341   3.837   0.203   5.803  0.1066 -0.5500 -0.0508
15309TIP3    H167342   3.862   0.211   5.895  0.4612 -0.1783 -0.1772
15309TIP3    H267343   3.757   0.254   5.795  0.3910 -0.1006 -0.0704
15310TIP3   OH267344   1.891   4.509   3.127 -0.1693  0.2990 -0.0907
15310TIP3    H167345   1.859   4.587   3.172 -0.4041  0.1984 -0.0834
15310TIP3    H267346   1.979   4.496   3.161 -0.1742  0.4932 -0.0039
15311TIP3   OH267347   0.055   3.014   5.699  0.0569  0.0182  0.6548
15311TIP3    H167348   0.097   2.969   5.626 -1.0866 -0.1207  0.0695
15311TIP3    H267349  -0.006   3.075   5.658  0.5221  1.0612  1.4743
15312TIP3   OH267350   3.670   5.723  13.396 -0.2569 -0.0112 -0.0907
15312TIP3    H167351   3.645   5.816  13.403  2.3774  0.6764  0.6856
15312TIP3    H267352   3.706   5.702  13.482 -0.6194 -1.7054 -0.3504
15313TIP3   OH267353   0.870   5.594  11.120  0.5123  0.3248 -0.8725
15313TIP3    H167354   0.909   5.519  11.075  4.0587  1.2643  0.4615
15313TIP3    H267355   0.883   5.668  11.060 -1.5528  0.1863 -1.5082
15314TIP3   OH267356   2.203   3.188  14.531 -0.2160  0.6418 -0.5990
15314TIP3    H167357   2.283   3.151  14.568  0.0181  1.6990 -0.0226
15314TIP3    H267358   2.140   3.116  14.533 -0.0205  0.5093  1.2934
15315TIP3   OH267359   6.545   3.260  11.762  0.0552  0.2627 -0.0894
15315TIP3    H167360   6.630   3.303  11.776  0.5349  0.3802 -3.0977
15315TIP3    H267361   6.491   3.291  11.835  2.6368 -0.0320  2.0449
15316TIP3   OH267362   2.453   5.543  13.395 -0.2079 -0.1418  0.2981
15316TIP3    H167363   2.362   5.570  13.383 -0.2088  1.1995  2.8462
15316TIP3    H267364   2.452   5.485  13.471  1.2099  0.9516  1.1950
15317TIP3   OH267365   0.429   5.734  13.552  0.6871 -0.0069  0.5093
15317TIP3    H167366   0.484   5.660  13.575 -0.0771 -0.6554  0.2568
15317TIP3    H267367   0.341   5.710  13.582  0.1380  0.1351 -0.9626
15318TIP3   OH267368   4.076   3.880   4.153  0.2632  0.1828 -0.2117
15318TIP3    H167369   4.012   3.817   4.188  0.5217 -0.0177 -0.1022
15318TIP3    H267370   4.097   3.937   4.227  0.8022 -0.2357 -0.0388
15319TIP3   OH267371   4.857   6.223  13.904  0.0467  0.1566  0.4154
15319TIP3    H167372   4.930   6.162  13.914  0.0446  0.1849  0.6032
15319TIP3    H267373   4.780   6.172  13.926 -0.1798 -0.3772 -1.5065
15320TIP3   OH267374   4.994   5.313  10.825  0.1011 -0.4955  0.1189
15320TIP3    H167375   4.936   5.267  10.764 -0.8599 -0.4650  0.9846
15320TIP3    H267376   5.047   5.244  10.864  1.4526 -0.3968 -1.5041
15321TIP3   OH267377   4.993   2.680   2.523  0.7238  0.5677  0.6115
15321TIP3    H167378   5.051   2.739   2.571  0.8119  1.8683 -1.0300
15321TIP3    H267379   4.905   2.716   2.536  0.7777  1.0703 -0.4012
15322TIP3   OH267380   4.819   1.459   1.989 -0.0282 -0.0490 -0.3049
15322TIP3    H167381   4.892   1.435   1.932  0.0530  1.9484 -1.0955
15322TIP3    H267382   4.851   1.444   2.078  1.0023 -0.0952 -0.6820
15323TIP3   OH267383   5.574   5.900   3.098 -0.2973 -0.4041  0.1503
15323TIP3    H167384   5.575   5.805   3.108 -4.0728 -0.2564  2.8297
15323TIP3    H267385   5.482   5.922   3.083  0.7195  2.7318 -2.0739
15324TIP3   OH267386   0.433   4.398   0.348 -0.4431 -0.7370  0.1068
15324TIP3    H167387   0.426   4.320   0.293 -2.5173  0.3330 -1.2038
15324TIP3    H267388   0.383   4.376   0.427 -1.0911 -0.7390 -0.2946
15325TIP3   OH267389   0.035   6.276   0.733  0.7858 -0.0100  0.4200
15325TIP3    H167390   0.125   6.272   0.702  0.7542  2.5043 -0.0626
15325TIP3    H267391   0.039   6.327   0.814  0.1207 -2.0633  1.8007
15326TIP3   OH267392   3.247   4.000  11.693  0.1370  0.3577  0.0746
15326TIP3    H167393   3.160   3.983  11.729 -0.5572  2.0779 -0.7186
15326TIP3    H267394   3.229   4.028  11.603  1.6144 -0.6125 -0.5340
15327TIP3   OH267395   0.241   0.795  14.654  0.2468  0.7867  0.1050
15327TIP3    H167396   0.250   0.716  14.708 -0.9334  0.3913 -0.2632
15327TIP3    H267397   0.317   0.793  14.596 -0.7694 -1.1163 -1.2186
15328TIP3   OH267398   0.563   2.681  14.208  0.3708  0.0252  0.2621
15328TIP3    H167399   0.642   2.687  14.263 -1.2494 -1.3968  2.8199
15328TIP3    H267400   0.503   2.745  14.246 -0.5314 -0.5344 -0.2116
15329TIP3   OH267401   2.728   2.506   3.891 -0.1876  0.4507 -0.9268
15329TIP3    H167402   2.640   2.541   3.907 -0.1340 -0.1164  0.6813
15329TIP3    H267403   2.713   2.415   3.868 -0.0528  0.4838 -1.1428
15330TIP3   OH267404   6.750   1.855  14.831  0.3053  0.0668 -0.2781
15330TIP3    H167405   6.681   1.795  14.862 -0.3992  0.4825 -1.0331
15330TIP3    H267406   6.800   1.803  14.768  1.7222 -0.7707  1.5179
15331TIP3   OH267407   4.137   6.683   5.727  0.0335  0.5945  0.0209
15331TIP3    H167408   4.139   6.590   5.707  1.0225  0.5804  0.1849
15331TIP3    H267409   4.155   6.726   5.644  0.1539  0.6312  0.0668
15332TIP3   OH267410   5.401   4.025   4.817  0.0990 -0.2385 -0.0051
15332TIP3    H167411   5.356   3.965   4.877 -0.7421  1.1152  0.7376
15332TIP3    H267412   5.451   4.083   4.874  2.8046 -1.6548 -0.8057
15333TIP3   OH267413   1.334   2.047  11.413 -0.1225 -0.2104  0.3140
15333TIP3    H167414   1.256   2.014  11.367  0.3566 -1.5651  0.4348
15333TIP3    H267415   1.398   2.063  11.343 -0.2670  0.2259  0.2799
15334TIP3   OH267416   1.903   1.473  13.951 -0.5509  0.1374 -0.3351
15334TIP3    H167417   1.965   1.510  14.014  0.4314 -0.0953 -1.1357
15334TIP3    H267418   1.920   1.379  13.953  0.6419  0.2710 -2.0886
15335TIP3   OH267419   3.566   4.405  13.830  0.3520  0.0626  0.3151
15335TIP3    H167420   3.654   4.383  13.799  0.7434  2.1152 -0.1457
15335TIP3    H267421   3.556   4.498  13.808 -1.4888  0.1458  1.4088
15336TIP3   OH267422   2.371   3.073  14.009  0.0598  0.1707  0.3315
15336TIP3    H167423   2.432   3.121  13.952  0.3301 -0.0472  0.4363
15336TIP3    H267424   2.371   3.123  14.091  0.2238  0.0737  0.3895
15337TIP3   OH267425   1.008   2.331  12.839 -0.6837  0.2390  0.0545
15337TIP3    H167426   0.967   2.292  12.916 -0.1267 -1.5498 -0.5164
15337TIP3    H267427   0.943   2.393  12.805 -1.6918 -0.3561  0.8788
15338TIP3   OH267428   2.636   2.797  16.576  0.0750 -0.2050  0.0437
15338TIP3    H167429   2.634   2.701  16.570 -2.2802 -0.2403  0.9233
15338TIP3    H267430   2.580   2.826  16.503  0.7665  0.5119 -0.2039
15339TIP3   OH267431   5.937   3.825   2.542 -0.0072 -0.6311  0.6873
15339TIP3    H167432   6.032   3.817   2.536  0.0991  0.6358  0.6603
15339TIP3    H267433   5.905   3.735   2.531  1.1021 -0.8517 -0.8724
15340TIP3   OH267434   0.611   4.140   2.067 -0.6102 -0.5343 -0.3495
15340TIP3    H167435   0.654   4.222   2.042  0.8989 -0.6281  1.7851
15340TIP3    H267436   0.595   4.149   2.161 -4.3815 -0.9568 -0.8909
15341TIP3   OH267437   1.174   4.847  11.612  0.8060 -0.3587 -0.1849
15341TIP3    H167438   1.111   4.781  11.582 -1.0353  1.7742 -1.1565
15341TIP3    H267439   1.213   4.881  11.532  2.4863 -0.9638  0.3695
15342TIP3   OH267440   1.399   4.990   2.592  0.1214 -0.2209  0.1246
15342TIP3    H167441   1.391   5.082   2.617  0.7742  0.0071 -0.4961
15342TIP3    H267442   1.389   4.942   2.675  1.3776  0.4831  0.6901
15343TIP3   OH267443   1.597   1.456   3.492 -0.0357 -0.6904  0.2599
15343TIP3    H167444   1.683   1.492   3.511 -0.1804 -0.1125 -0.1651
15343TIP3    H267445   1.565   1.422   3.576 -0.1397  0.6799  0.7834
15344TIP3   OH267446   0.399   3.921  12.697  0.5335 -0.3996 -0.0056
15344TIP3    H167447   0.417   3.827  12.699  2.0245 -0.1429 -0.2726
15344TIP3    H267448   0.315   3.929  12.652  0.4185 -1.5971 -0.0191
15345TIP3   OH267449   1.987   4.969   4.518  0.0360  0.2920  0.5286
15345TIP3    H167450   1.983   5.043   4.456 -0.3324 -0.4226 -0.3192
15345TIP3    H267451   1.995   5.010   4.604  1.4667  1.2836 -0.0670
15346TIP3   OH267452   3.177   4.385  15.749 -0.1958  0.8462  0.4145
15346TIP3    H167453   3.183   4.479  15.765 -0.7197  1.1720 -1.2420
15346TIP3    H267454   3.147   4.377  15.658 -0.8573 -0.9069  0.7531
15347TIP3   OH267455   5.287   0.482   2.205  0.2150 -0.2794  0.1220
15347TIP3    H167456   5.258   0.451   2.119  0.7294 -1.5410  0.3819
15347TIP3    H267457   5.382   0.491   2.196  0.3080 -0.7048  0.6424
15348TIP3   OH267458   3.054   1.344  16.089 -0.1683 -0.8024  0.1206
15348TIP3    H167459   3.087   1.257  16.066 -1.2592 -1.1696 -0.0644
15348TIP3    H267460   3.000   1.329  16.167  0.7052 -0.0834  0.8858
15349TIP3   OH267461   0.312   2.989   0.929 -0.2214  0.1118 -0.2606
15349TIP3    H167462   0.355   2.917   0.976 -1.9522 -0.0219  1.2158
15349TIP3    H267463   0.270   2.946   0.854 -1.3860 -0.4807  0.7034
15350TIP3   OH267464   4.770   2.639  16.204 -0.3926 -0.7842  0.5222
15350TIP3    H167465   4.725   2.582  16.267 -1.8881 -1.3831 -1.0637
15350TIP3    H267466   4.713   2.716  16.198  0.2553 -0.2934  0.6324
15351TIP3   OH267467   0.552   0.629  14.407 -0.0361  0.0878  0.0311
15351TIP3    H167468   0.549   0.534  14.418 -0.5047  0.1638  0.5981
15351TIP3    H267469   0.482   0.648  14.345 -0.8154  0.1983  0.9389
15352TIP3   OH267470   3.769   3.356  12.645 -0.1213 -0.2734  0.2925
15352TIP3    H167471   3.794   3.449  12.644 -1.3650  0.0530 -1.0564
15352TIP3    H267472   3.689   3.353  12.698  1.8868 -1.1292  3.4346
15353TIP3   OH267473   4.202   0.751  11.352  0.2892 -0.1623  0.7469
15353TIP3    H167474   4.198   0.674  11.409  0.1132 -0.1029  0.8118
15353TIP3    H267475   4.189   0.825  11.410 -0.1859 -0.1176  0.5837
15354TIP3   OH267476   5.053   5.851   4.134 -0.5586 -0.1329  0.2631
15354TIP3    H167477   5.013   5.877   4.051 -0.0071  0.0211  0.0416
15354TIP3    H267478   5.106   5.774   4.112 -0.5903 -0.2304  0.5214
15355TIP3   OH267479   6.417   5.350   3.694 -0.1072  0.7312  0.3213
15355TIP3    H167480   6.433   5.444   3.698  1.3466  0.6100 -1.8080
15355TIP3    H267481   6.468   5.320   3.619  0.1083 -1.8973  1.4642
15356TIP3   OH267482   6.235   3.421  13.587 -0.6768  0.1504 -0.2529
15356TIP3    H167483   6.228   3.370  13.667  1.8261 -0.8311 -0.6162
15356TIP3    H267484   6.272   3.360  13.523 -0.6187  1.5280 -1.5687
15357TIP3   OH267485   0.026   0.953   4.111  0.8210  0.6256  0.2420
15357TIP3    H167486   0.032   0.973   4.017  2.0812  0.3719  0.2477
15357TIP3    H267487   0.090   0.882   4.123 -2.0544 -2.0015  0.5784
15358TIP3   OH267488   4.914   3.765  14.634 -0.5561  0.4330  0.1191
15358TIP3    H167489   4.821   3.745  14.644 -1.1269  2.4817 -0.8656
15358TIP3    H267490   4.919   3.860  14.639  1.3479  0.4076 -0.9106
15359TIP3   OH267491   1.136   0.202  15.297 -0.2221  0.7186  0.1164
15359TIP3    H167492   1.161   0.252  15.219  0.6239 -0.0934 -0.1429
15359TIP3    H267493   1.185   0.243  15.369 -0.3417  0.9292  0.0766
15360TIP3   OH267494   2.405   0.100   2.353 -0.0349  0.3082  0.3839
15360TIP3    H167495   2.440   0.138   2.272 -1.8079  0.1914 -0.4696
15360TIP3    H267496   2.397   0.175   2.412 -0.3795  0.7059 -0.1581
15361TIP3   OH267497   1.279   0.530  14.667 -0.2687 -0.3599 -0.7093
15361TIP3    H167498   1.269   0.440  14.698 -1.8545  0.1626  0.2985
15361TIP3    H267499   1.317   0.577  14.741 -0.1100 -0.0201 -1.0021
15362TIP3   OH267500   0.542   2.884   6.393 -0.4302 -0.3849  0.4040
15362TIP3    H167501   0.595   2.888   6.313  1.0948  1.1833  1.4688
15362TIP3    H267502   0.523   2.791   6.404  0.0290 -0.7088 -1.3391
15363TIP3   OH267503   5.357   1.673   3.327 -0.4615  0.3796  0.1773
15363TIP3    H167504   5.427   1.704   3.270  1.5002 -0.8349  1.8699
15363TIP3    H267505   5.306   1.751   3.349 -0.6805  0.9984 -2.4310
15364TIP3   OH267506   5.656   2.010   0.197  0.5450  0.1647 -0.0246
15364TIP3    H167507   5.669   2.059   0.115 -0.8588 -1.5988 -1.3344
15364TIP3    H267508   5.601   2.068   0.250  0.1198  0.6479 -0.9731
15365TIP3   OH267509   5.880   3.360  16.022  0.5189 -0.4270 -0.1536
15365TIP3    H167510   5.846   3.330  15.938  1.8305 -2.0711 -0.1201
15365TIP3    H267511   5.818   3.326  16.087  0.6140 -0.9026 -0.3071
15366TIP3   OH267512   0.315   0.372  16.083 -0.4558  0.1382  0.7141
15366TIP3    H167513   0.302   0.295  16.138 -0.7621 -0.3299 -0.0073
15366TIP3    H267514   0.319   0.337  15.993 -1.1595  1.0166  0.3329
15367TIP3   OH267515   6.604   1.464  16.538  0.1184 -0.8517 -0.1432
15367TIP3    H167516   6.532   1.427  16.488  0.9756 -2.1391 -0.4522
15367TIP3    H267517   6.624   1.547  16.494 -1.2979 -0.3784  0.0761
15368TIP3   OH267518   0.119   0.903  15.590 -0.7110  0.1059  0.3952
15368TIP3    H167519   0.104   0.922  15.682 -0.7794  1.3539  0.1341
15368TIP3    H267520   0.035   0.873  15.557 -0.8575  0.3256  0.5747
15369TIP3   OH267521   5.247   6.036   2.261  0.3932 -0.3127  0.6104
15369TIP3    H167522   5.176   5.993   2.213 -0.1838 -1.2025  2.2247
15369TIP3    H267523   5.249   6.125   2.226  0.3519 -1.0754 -1.4419
15370TIP3   OH267524   2.896   0.174   5.426  0.2501 -0.4517  0.0144
15370TIP3    H167525   2.986   0.144   5.422  0.4252 -0.1392  1.2500
15370TIP3    H267526   2.895   0.238   5.498 -0.7554  0.2291 -0.5831
15371TIP3   OH267527   2.537   2.362  11.467  0.5855  0.4757 -0.0693
15371TIP3    H167528   2.578   2.391  11.548 -1.5188  3.4475  0.0049
15371TIP3    H267529   2.449   2.334  11.494  0.6352 -0.6278 -1.0174
15372TIP3   OH267530   4.470   3.511   3.177 -0.4840  0.1474  0.0076
15372TIP3    H167531   4.516   3.578   3.227 -2.4743  1.4349  0.1729
15372TIP3    H267532   4.539   3.454   3.144  1.3027  2.6089 -0.6250
15373TIP3   OH267533   2.070   1.143   5.400  0.4456 -0.0939 -0.0143
15373TIP3    H167534   1.991   1.088   5.396  0.6302 -0.4840  1.4109
15373TIP3    H267535   2.037   1.230   5.422  0.2227  0.2373 -1.5644
15374TIP3   OH267536   0.207   0.923   5.344 -0.2646  0.0511 -0.1415
15374TIP3    H167537   0.281   0.903   5.286 -0.5228 -0.3081 -0.3487
15374TIP3    H267538   0.192   0.842   5.392  1.4947  1.0436  2.2005
15375TIP3   OH267539   2.145   6.675   5.793 -0.4788  0.2439  0.1007
15375TIP3    H167540   2.240   6.671   5.787 -0.5279  0.0072 -0.5428
15375TIP3    H267541   2.127   6.765   5.821 -0.0537  0.1940  0.5373
15376TIP3   OH267542   0.933   0.501   3.217  0.4649  0.6429 -0.3364
15376TIP3    H167543   0.922   0.407   3.231 -0.6659  0.9040  0.6789
15376TIP3    H267544   0.851   0.528   3.174 -0.1236  1.5100  1.2841
15377TIP3   OH267545   4.433   1.678  16.243  0.0703  0.3827  0.0003
15377TIP3    H167546   4.477   1.762  16.228 -1.1262  0.9603 -0.3566
15377TIP3    H267547   4.474   1.618  16.181  0.0187  1.0263 -0.6616
15378TIP3   OH267548   4.535   0.724   4.523  0.4347 -0.2471  0.4675
15378TIP3    H167549   4.543   0.636   4.561  0.1001  0.8745  3.2507
15378TIP3    H267550   4.626   0.752   4.510  0.5404 -1.1195 -0.7604
15379TIP3   OH267551   5.115   4.844   1.393 -0.2812 -0.0343 -0.1130
15379TIP3    H167552   5.082   4.930   1.417  0.9137  0.7872 -1.4157
15379TIP3    H267553   5.090   4.788   1.467 -2.3108  1.1013  0.1041
15380TIP3   OH267554   2.748   4.972  12.577 -0.2126  0.0743  0.2658
15380TIP3    H167555   2.729   4.986  12.670 -0.0639  0.1960  0.2782
15380TIP3    H267556   2.756   4.877  12.568  0.1722  0.0870  0.4551
15381TIP3   OH267557   1.630   5.504  15.129  0.3120 -0.3165  0.0484
15381TIP3    H167558   1.723   5.482  15.117  0.8231  2.1658 -1.0467
15381TIP3    H267559   1.609   5.558  15.052 -1.4158  0.9912  1.3972
15382TIP3   OH267560   6.493   2.800  11.569 -0.4384 -0.1994  0.6059
15382TIP3    H167561   6.498   2.737  11.640 -0.6941 -1.1937 -0.2523
15382TIP3    H267562   6.467   2.749  11.492 -0.1983  0.8610 -0.2012
15383TIP3   OH267563   4.139   1.831  15.191 -0.0616  0.2435  0.0177
15383TIP3    H167564   4.234   1.836  15.181 -0.0780  1.5356  0.4464
15383TIP3    H267565   4.118   1.897  15.257 -1.1492 -0.7682  0.7030
15384TIP3   OH267566   1.772   2.804  11.794  0.7508 -0.3547 -0.0889
15384TIP3    H167567   1.771   2.880  11.852  2.3055 -0.9570  0.7541
15384TIP3    H267568   1.699   2.819  11.734  1.1144  1.8515 -0.0197
15385TIP3   OH267569   0.688   0.614  16.903  0.0361  0.0219  0.0629
15385TIP3    H167570   0.765   0.667  16.923  0.2822 -0.4631  0.3986
15385TIP3    H267571   0.697   0.536  16.958 -0.1615 -0.5137 -0.6579
15386TIP3   OH267572   3.374   5.840   5.894 -0.0504 -0.1810 -0.3059
15386TIP3    H167573   3.301   5.788   5.927  0.8020 -1.5975 -0.6149
15386TIP3    H267574   3.334   5.898   5.829 -0.9308 -0.8082 -0.3407
15387TIP3   OH267575   0.559   1.614   5.094 -0.4439 -0.0409  0.6334
15387TIP3    H167576   0.596   1.527   5.082  0.1542  0.3152 -0.1773
15387TIP3    H267577   0.626   1.663   5.142 -0.0362  0.4636 -0.4197
15388TIP3   OH267578   0.539   5.545  13.782 -0.2434  0.2442  0.0101
15388TIP3    H167579   0.452   5.584  13.795  0.6416  1.6253  2.0801
15388TIP3    H267580   0.566   5.517  13.870  2.1129  1.3603 -0.3328
15389TIP3   OH267581   0.022   5.079   4.510  0.4132 -0.4572  0.4184
15389TIP3    H167582   0.068   5.018   4.568  1.1240  0.6131  0.9931
15389TIP3    H267583   0.079   5.086   4.434  0.7933  0.2110  0.7611
15390TIP3   OH267584   5.017   5.305   5.675 -0.0357 -0.0930  0.2039
15390TIP3    H167585   4.931   5.270   5.654 -1.1673  1.7088  1.6828
15390TIP3    H267586   5.005   5.400   5.677  1.8845  0.1699  0.9223
15391TIP3   OH267587   0.805   2.397  14.178  0.1506 -0.2651  0.3192
15391TIP3    H167588   0.759   2.315  14.196 -1.4388  0.4246 -0.5405
15391TIP3    H267589   0.747   2.445  14.119  0.4110  2.0780  1.8990
15392TIP3   OH267590   2.986   3.343  13.534  0.1531  0.5417 -0.1767
15392TIP3    H167591   2.955   3.390  13.456  2.0203  1.2980 -0.4949
15392TIP3    H267592   3.033   3.410  13.584  1.6872 -0.6666  0.0379
15393TIP3   OH267593   0.626   0.700   4.883  0.2450 -0.3022  0.0579
15393TIP3    H167594   0.643   0.625   4.826  3.9193 -0.1928  0.8619
15393TIP3    H267595   0.670   0.677   4.965 -2.9167  0.5859  2.0589
15394TIP3   OH267596   3.463   0.810  15.095  0.0765 -0.0447 -0.2968
15394TIP3    H167597   3.538   0.782  15.043 -0.2143 -1.9410  0.2716
15394TIP3    H267598   3.454   0.742  15.162 -1.2248  0.9469  0.5471
15395TIP3   OH267599   3.286   2.698  12.895  0.2353 -0.5641 -0.2681
15395TIP3    H167600   3.290   2.749  12.815  0.6999 -0.2199 -0.0336
15395TIP3    H267601   3.308   2.608  12.869  1.0360 -0.3259 -0.4172
15396TIP3   OH267602   3.462   4.155  14.710 -0.2232  0.2011  0.3079
15396TIP3    H167603   3.408   4.120  14.639  1.4075 -2.1677  0.1856
15396TIP3    H267604   3.460   4.088  14.778 -0.4236  1.7186  1.8563
15397TIP3   OH267605   4.358   4.729   6.110 -0.1436  0.5368  0.2411
15397TIP3    H167606   4.298   4.802   6.098 -3.1141 -1.6927  0.8447
15397TIP3    H267607   4.334   4.691   6.194  1.9713 -0.5788  0.3855
15398TIP3   OH267608   4.278   5.393  12.723 -0.3154  0.3904 -0.3715
15398TIP3    H167609   4.293   5.339  12.645  1.3117  0.1779  0.0688
15398TIP3    H267610   4.276   5.483  12.691  0.0305  0.2785 -0.7095
15399TIP3   OH267611   5.675   4.175  12.950  0.2645  0.1663 -0.0283
15399TIP3    H167612   5.769   4.188  12.938 -0.2031  2.7097 -1.2334
15399TIP3    H267613   5.653   4.228  13.026 -0.3171  0.0830 -0.1339
15400TIP3   OH267614   1.270   4.937   0.331  0.9105  0.1244 -0.3156
15400TIP3    H167615   1.332   4.925   0.403  1.2093  3.0523 -0.0249
15400TIP3    H267616   1.209   5.004   0.362 -1.2744 -1.3324 -1.3414
15401TIP3   OH267617   3.043   0.052  14.412  0.1343 -0.3184 -0.3655
15401TIP3    H167618   3.077   0.034  14.500 -0.9186  0.6955  0.2751
15401TIP3    H267619   3.057  -0.029  14.363  1.9167 -0.4624  0.3591
15402TIP3   OH267620   5.517   3.271  14.025  0.0177  0.0073  0.8157
15402TIP3    H167621   5.547   3.362  14.019  0.7474 -0.2916 -0.0507
15402TIP3    H267622   5.586   3.226  14.073  1.1987 -0.7806 -1.5883
15403TIP3   OH267623   0.842   6.437  10.871 -0.1113 -0.1449 -0.4491
15403TIP3    H167624   0.871   6.371  10.808 -0.2475  0.6470 -1.3350
15403TIP3    H267625   0.757   6.467  10.838  0.0388  0.6200 -0.1484
15404TIP3   OH267626   3.843   4.000  13.081 -0.6750 -0.6842 -0.1717
15404TIP3    H167627   3.783   3.930  13.054 -1.7232 -0.8134  2.4245
15404TIP3    H267628   3.930   3.962  13.070 -1.1735 -1.7475 -0.4997
15405TIP3   OH267629   6.644   1.197  16.641  0.2233  0.0556  0.1714
15405TIP3    H167630   6.623   1.178  16.732 -0.4018 -0.6488 -0.1079
15405TIP3    H267631   6.629   1.291  16.632 -1.8630 -0.2330  0.2534
15406TIP3   OH267632   2.248   2.753   6.185 -0.1449  0.0174 -0.2527
15406TIP3    H167633   2.244   2.828   6.245  0.4110  0.5197 -0.8393
15406TIP3    H267634   2.339   2.751   6.155  0.1094 -1.5169  0.5407
15407TIP3   OH267635   2.107   1.902  14.336 -0.1675 -0.3401 -0.3187
15407TIP3    H167636   2.135   1.990  14.363 -2.9511  0.6266 -0.4463
15407TIP3    H267637   2.092   1.910  14.242  1.0800 -1.3902 -0.6157
15408TIP3   OH267638   4.437   0.661  14.442 -0.0951  1.0639 -0.5198
15408TIP3    H167639   4.420   0.718  14.516 -1.8184  1.2054 -1.0027
15408TIP3    H267640   4.446   0.720  14.367  2.9828  1.0208 -0.2401
15409TIP3   OH267641   5.729   5.418   4.849  0.3685 -0.7980 -0.2384
15409TIP3    H167642   5.721   5.368   4.930  1.1137  0.0050  0.3354
15409TIP3    H267643   5.822   5.411   4.826  0.4468  0.1936 -0.2340
15410TIP3   OH267644   1.935   3.420   3.310 -0.4815  0.5192 -0.1925
15410TIP3    H167645   1.932   3.458   3.222  2.9784 -1.5072 -1.3045
15410TIP3    H267646   2.011   3.462   3.351 -0.6400 -0.3087  0.9723
15411TIP3   OH267647   0.511   0.198   0.974  0.2549 -0.2108 -0.4418
15411TIP3    H167648   0.480   0.109   0.961  1.6697 -0.5764 -1.3960
15411TIP3    H267649   0.599   0.188   1.011  0.6823  0.7698 -1.1700
15412TIP3   OH267650   5.768   6.408   2.025 -0.1103 -0.4365  0.1694
15412TIP3    H167651   5.710   6.434   2.097 -0.2883  0.7142 -0.3891
15412TIP3    H267652   5.843   6.466   2.032  0.5264 -1.2629  0.2724
15413TIP3   OH267653   0.258   3.382   4.318  0.1506  0.7026  0.6605
15413TIP3    H167654   0.288   3.458   4.269 -0.0426 -0.1776 -0.8366
15413TIP3    H267655   0.290   3.306   4.269 -2.6976 -0.2308  0.1357
15414TIP3   OH267656   4.982   5.293   2.478  0.0040  0.7194  0.3984
15414TIP3    H167657   4.917   5.259   2.416 -0.0323  0.7641  0.4111
15414TIP3    H267658   4.992   5.223   2.542  1.5596 -0.1780 -0.7879
15415TIP3   OH267659   1.950   4.436   4.856  0.0906  0.2573 -0.0974
15415TIP3    H167660   1.916   4.433   4.946 -1.7215  0.4077 -0.7558
15415TIP3    H267661   1.871   4.440   4.801  1.1925  0.6505 -1.6693
15416TIP3   OH267662   6.440   4.026   0.163 -0.6884  0.1701 -0.7089
15416TIP3    H167663   6.362   4.052   0.212 -0.7080 -0.3117 -0.4799
15416TIP3    H267664   6.503   4.096   0.178 -1.3512  0.9583 -1.5424
15417TIP3   OH267665   4.536   5.167  16.909 -0.2409  0.3158 -0.0317
15417TIP3    H167666   4.563   5.094  16.852  0.2250  1.6618 -1.5674
15417TIP3    H267667   4.552   5.135  16.998  0.0186 -1.4346 -0.6899
15418TIP3   OH267668   1.537   4.135  16.931 -0.2273  0.4965  0.2379
15418TIP3    H167669   1.596   4.157  16.859 -0.2983  0.1877  0.0796
15418TIP3    H267670   1.461   4.095  16.887  0.1112 -0.5127  0.5413
15419TIP3   OH267671   0.448   5.298  13.081 -0.0154 -0.1988 -0.1253
15419TIP3    H167672   0.408   5.329  13.162  0.9740 -0.2971  0.4109
15419TIP3    H267673   0.463   5.205  13.096 -1.8685 -0.7033 -1.2729
15420TIP3   OH267674   3.657   2.016   4.297  0.0049  0.0879  0.2020
15420TIP3    H167675   3.744   1.987   4.272 -0.6772 -1.1866 -0.7598
15420TIP3    H267676   3.636   2.086   4.235 -0.0595 -0.3017 -0.2179
15421TIP3   OH267677   4.768   1.056   4.003 -0.3392 -0.3312 -0.0719
15421TIP3    H167678   4.726   0.998   3.939  0.9792 -0.6099 -0.7065
15421TIP3    H267679   4.811   1.123   3.949 -0.0722  0.0217  0.5715
15422TIP3   OH267680   2.320   3.314  12.370  0.1987 -0.2352  0.3803
15422TIP3    H167681   2.288   3.371  12.439  1.0071  1.4084 -0.5842
15422TIP3    H267682   2.396   3.360  12.333 -1.4251 -0.0799 -2.9802
15423TIP3   OH267683   6.675   5.558  14.278  0.7517  0.3565  0.2967
15423TIP3    H167684   6.595   5.508  14.294  0.8405 -0.5171 -1.7679
15423TIP3    H267685   6.742   5.492  14.260  1.2602  1.1447 -0.7973
15424TIP3   OH267686   2.426   6.057  16.887 -0.4480 -0.5747  0.3360
15424TIP3    H167687   2.482   6.130  16.863 -1.8113 -0.1614 -1.7220
15424TIP3    H267688   2.380   6.086  16.966 -1.2394  0.9248 -0.6773
15425TIP3   OH267689   4.743   5.320  12.793 -0.3355 -0.1720 -0.0429
15425TIP3    H167690   4.772   5.382  12.860 -0.4351 -0.3335  0.1496
15425TIP3    H267691   4.755   5.367  12.710  1.4805 -0.6311 -0.0499
15426TIP3   OH267692   3.440   5.472   2.074 -0.3757 -0.3775 -0.4258
15426TIP3    H167693   3.454   5.378   2.064 -0.0961 -0.2173 -1.7208
15426TIP3    H267694   3.415   5.501   1.986 -0.0952  0.8154 -0.1187
15427TIP3   OH267695   2.092   3.158  15.076  0.0382 -0.1368  0.6736
15427TIP3    H167696   2.178   3.200  15.076 -0.2802  0.5342 -0.0604
15427TIP3    H267697   2.105   3.077  15.026  0.9078 -1.4755  3.0206
15428TIP3   OH267698   1.949   1.215   1.057  0.0691  0.5855  0.4382
15428TIP3    H167699   1.920   1.268   0.982 -0.6807  1.7901  1.5581
15428TIP3    H267700   1.886   1.143   1.061  1.4372 -0.7945 -1.4569
15429TIP3   OH267701   2.043   3.685  12.238  1.1906 -0.2324  0.1769
15429TIP3    H167702   2.051   3.754  12.172 -0.6281  0.8919  1.0861
15429TIP3    H267703   2.094   3.717  12.312 -0.0437  0.3960  0.7772
15430TIP3   OH267704   4.814   5.966  16.939 -0.2401  0.2435  0.6288
15430TIP3    H167705   4.877   5.971  16.868 -2.1465 -3.4150 -1.5051
15430TIP3    H267706   4.740   6.019  16.910 -0.3537  0.0839  0.6239
15431TIP3   OH267707   6.649   1.964  14.277  0.2505 -0.2561 -0.7720
15431TIP3    H167708   6.574   2.019  14.253 -0.1733 -0.7008 -0.4810
15431TIP3    H267709   6.614   1.904  14.343  0.7002 -0.8935 -1.1121
15432TIP3   OH267710   5.847   0.093   3.731  0.0609  0.4249 -0.5957
15432TIP3    H167711   5.896   0.062   3.808  0.6461  0.6811 -0.8669
15432TIP3    H267712   5.815   0.012   3.690 -1.2853  0.3297  0.5825
15433TIP3   OH267713   3.223   5.143   3.222 -0.2230 -0.1595 -0.1745
15433TIP3    H167714   3.223   5.181   3.134 -1.8267  0.9183  0.2757
15433TIP3    H267715   3.216   5.219   3.280  3.4666 -0.6283  1.0182
15434TIP3   OH267716   5.690   4.429   3.280 -0.4915  0.0478  0.1249
15434TIP3    H167717   5.756   4.383   3.332  0.1918  2.0008  1.0100
15434TIP3    H267718   5.709   4.406   3.190  0.9769  0.0640  0.4289
15435TIP3   OH267719   1.540   4.899   0.470  0.1184  0.0303 -0.0395
15435TIP3    H167720   1.501   4.818   0.504  2.0266 -0.2140  1.6736
15435TIP3    H267721   1.592   4.871   0.395  0.9144 -0.3688  0.6553
15436TIP3   OH267722   1.440   3.328  11.461 -0.4917  0.1711  0.0813
15436TIP3    H167723   1.523   3.281  11.452 -0.6553 -0.5055  1.8291
15436TIP3    H267724   1.434   3.346  11.555 -2.7050 -0.4912  0.0808
15437TIP3   OH267725   4.936   0.138   0.758 -0.7331 -0.1887 -0.0055
15437TIP3    H167726   5.007   0.075   0.771  0.6889  0.9723 -1.7865
15437TIP3    H267727   4.929   0.185   0.840 -0.2199 -1.0935  0.5607
15438TIP3   OH267728   5.254   2.749   6.867  0.4373 -0.2901 -0.1323
15438TIP3    H167729   5.250   2.764   6.773  1.6402 -1.6315 -0.4211
15438TIP3    H267730   5.266   2.836   6.905  3.0769 -0.0339 -1.4423
15439TIP3   OH267731   0.069   4.028   0.799  0.1276 -0.1278  0.4428
15439TIP3    H167732   0.030   4.068   0.721 -0.4019 -1.9409 -0.2560
15439TIP3    H267733   0.020   4.065   0.872 -2.3075 -1.6472 -0.3750
15440TIP3   OH267734   3.009   6.394   0.062  0.4522  0.0893 -0.3382
15440TIP3    H167735   3.013   6.332  -0.011  0.5457  0.5439 -0.7217
15440TIP3    H267736   2.917   6.395   0.087  0.5509 -0.6756  0.0819
15441TIP3   OH267737   0.178   4.958  16.682 -0.1435 -0.3317  0.2570
15441TIP3    H167738   0.192   5.033  16.624  0.5422 -0.2248  0.5410
15441TIP3    H267739   0.245   4.895  16.656 -1.0489 -1.0507 -0.3128
15442TIP3   OH267740   1.181   2.792   5.103  0.2999 -0.1137 -0.1626
15442TIP3    H167741   1.094   2.830   5.092 -0.6491 -2.8034 -2.5520
15442TIP3    H267742   1.170   2.700   5.080  3.3864 -0.9405  1.3899
15443TIP3   OH267743   6.312   1.802  14.305 -0.2354  0.0375  0.1980
15443TIP3    H167744   6.287   1.886  14.343 -0.3087  0.4171 -0.6795
15443TIP3    H267745   6.318   1.743  14.380 -1.2997  0.5474  0.6959
15444TIP3   OH267746   0.149   1.147  11.585  0.3960 -0.4147 -0.0354
15444TIP3    H167747   0.242   1.143  11.604  0.8085 -0.2374 -1.9374
15444TIP3    H267748   0.144   1.149  11.489 -1.5567 -0.5340  0.0485
15445TIP3   OH267749   5.857   6.385   4.922 -0.2809 -0.4829  0.1547
15445TIP3    H167750   5.777   6.333   4.924 -0.0108 -0.8822  0.6689
15445TIP3    H267751   5.921   6.333   4.971  0.0693  0.2092  0.4365
15446TIP3   OH267752   2.709   1.871   3.602 -0.7953 -0.4569 -0.1193
15446TIP3    H167753   2.761   1.930   3.657 -2.0281  0.4680  0.0818
15446TIP3    H267754   2.722   1.904   3.513 -1.2374 -0.0769 -0.0420
15447TIP3   OH267755   2.826   2.591   0.173 -0.4195  0.1848  0.3552
15447TIP3    H167756   2.821   2.559   0.083 -2.8023 -1.6081  1.0879
15447TIP3    H267757   2.900   2.653   0.172 -1.1225  1.0846 -3.0643
15448TIP3   OH267758   5.854   0.379   4.156 -0.6960  0.0972 -0.3164
15448TIP3    H167759   5.916   0.318   4.196 -1.9004  0.0625  1.5138
15448TIP3    H267760   5.848   0.451   4.219 -2.2296  0.2727 -0.6562
15449TIP3   OH267761   4.275   3.806   3.077 -0.2215  0.2563 -0.1015
15449TIP3    H167762   4.338   3.875   3.100 -0.0617 -0.0162  0.2723
15449TIP3    H267763   4.192   3.853   3.066 -0.6562  0.1891  2.6053
15450TIP3   OH267764   2.017   5.426   2.306 -0.2775 -0.4533 -0.4212
15450TIP3    H167765   1.998   5.516   2.334 -0.4811 -0.3237 -0.9671
15450TIP3    H267766   1.951   5.372   2.349  0.2525 -0.4239  0.4379
15451TIP3   OH267767   5.662   5.440   1.648 -0.2605  0.0634 -0.0067
15451TIP3    H167768   5.668   5.375   1.718  1.9932  0.8604  0.5829
15451TIP3    H267769   5.639   5.521   1.694 -0.9272  0.1457 -0.4753
15452TIP3   OH267770   3.483   4.974   2.179 -0.1135  0.2658  0.3661
15452TIP3    H167771   3.400   4.929   2.197 -1.0793  1.4497 -0.9455
15452TIP3    H267772   3.525   4.919   2.113 -0.5814  0.4575 -0.1011
15453TIP3   OH267773   6.405   3.661   0.423 -0.1790 -0.6565 -0.3972
15453TIP3    H167774   6.433   3.616   0.344 -0.0365 -0.6548 -0.3467
15453TIP3    H267775   6.319   3.624   0.443 -0.1075 -0.8272 -0.4148
15454TIP3   OH267776   1.232   6.768  15.525 -0.2924  0.8879 -0.0589
15454TIP3    H167777   1.235   6.864  15.524 -0.0781  0.9063  1.0996
15454TIP3    H267778   1.323   6.741  15.527 -0.3576  0.6682  0.0040
15455TIP3   OH267779   3.684   0.869  13.337  0.7160  0.1647 -0.1429
15455TIP3    H167780   3.645   0.854  13.423  3.2568 -0.8479  0.8723
15455TIP3    H267781   3.728   0.953  13.345 -0.6351  0.9705 -1.0611
15456TIP3   OH267782   3.474   5.775   1.322  0.2135 -0.2109  0.1912
15456TIP3    H167783   3.451   5.757   1.413  0.1971 -2.1231 -0.1703
15456TIP3    H267784   3.484   5.688   1.282  0.4306  0.6067 -1.5756
15457TIP3   OH267785   2.785   1.668   0.264 -0.2410  0.0861 -0.4434
15457TIP3    H167786   2.750   1.750   0.300 -0.4456  1.0050 -2.5995
15457TIP3    H267787   2.863   1.650   0.316 -0.2132  1.6394  0.0896
15458TIP3   OH267788   3.634   5.345  11.879  0.1147  0.2764 -0.1271
15458TIP3    H167789   3.728   5.352  11.863 -0.0679 -2.0796 -2.4966
15458TIP3    H267790   3.612   5.425  11.928  2.9247  1.9624 -1.4749
15459TIP3   OH267791   5.038   5.068  12.171 -0.0609  0.2288  0.4700
15459TIP3    H167792   5.093   4.990  12.182  0.1390  0.2494 -0.3074
15459TIP3    H267793   4.949   5.033  12.164  0.0281  0.0598  0.1209
15460TIP3   OH267794   4.568   2.741   3.624 -0.2954  0.4856  0.0087
15460TIP3    H167795   4.605   2.828   3.639  1.3673  0.0062 -1.1018
15460TIP3    H267796   4.589   2.692   3.703  0.6615  0.4911 -0.2329
15461TIP3   OH267797   4.106   2.437  13.476 -0.1555 -0.3559  0.2300
15461TIP3    H167798   4.026   2.394  13.447 -0.1401 -0.8535  0.9287
15461TIP3    H267799   4.162   2.439  13.397 -1.7673  2.2009 -0.9325
15462TIP3   OH267800   0.107   5.954   3.672  0.5744 -0.3566 -0.2432
15462TIP3    H167801   0.145   6.024   3.724 -1.5881  0.8667 -0.2473
15462TIP3    H267802   0.149   5.875   3.703  0.1657  0.4884  2.5593
15463TIP3   OH267803   5.770   1.298  12.387 -0.1157 -0.0532 -0.4620
15463TIP3    H167804   5.827   1.374  12.398 -0.3164  0.1491 -0.8058
15463TIP3    H267805   5.816   1.227  12.431  0.1621  0.2250 -0.2973
15464TIP3   OH267806   1.659   5.698  14.597 -0.4818  0.5077 -0.4622
15464TIP3    H167807   1.703   5.691  14.682 -0.9244  0.4712 -0.2341
15464TIP3    H267808   1.580   5.645  14.607 -1.1254  1.4521 -0.5211
15465TIP3   OH267809   1.220   4.388  15.924 -0.5319  0.2175 -0.2076
15465TIP3    H167810   1.276   4.368  15.849 -1.6398 -0.0457 -0.9755
15465TIP3    H267811   1.133   4.360  15.897 -1.1292  1.0928  0.7872
15466TIP3   OH267812   5.630   6.703  14.409 -0.4430 -0.2940 -0.2612
15466TIP3    H167813   5.653   6.623  14.455  2.0071  0.3460 -0.2608
15466TIP3    H267814   5.588   6.673  14.328  0.8105 -1.6073 -0.4494
15467TIP3   OH267815   4.538   5.096  15.804  0.1693 -0.3637 -0.5202
15467TIP3    H167816   4.482   5.158  15.852  0.7139 -0.8538  0.7724
15467TIP3    H267817   4.622   5.142  15.795  0.3857 -0.6683 -0.0913
15468TIP3   OH267818   0.394   2.869  14.271 -0.3525 -0.1845  0.2528
15468TIP3    H167819   0.352   2.890  14.354 -1.5330 -0.9082 -0.1530
15468TIP3    H267820   0.432   2.952  14.242 -2.3194  0.7069  0.1602
15469TIP3   OH267821   6.286   5.527  14.727  0.5243  0.1247  0.4640
15469TIP3    H167822   6.377   5.523  14.755  0.0341 -1.4430  1.9451
15469TIP3    H267823   6.237   5.546  14.806 -0.5751 -0.7828  0.0247
15470TIP3   OH267824   5.776   4.580   4.061  0.2330 -0.7618  0.7735
15470TIP3    H167825   5.824   4.609   3.983 -0.6005  0.4191  0.6870
15470TIP3    H267826   5.841   4.582   4.131  0.4118  0.4004  0.5742
15471TIP3   OH267827   5.949   5.291  17.098  0.0398 -0.3003 -0.3373
15471TIP3    H167828   5.963   5.293  17.003 -2.0749 -0.4148 -0.6861
15471TIP3    H267829   5.910   5.376  17.118  2.1338  0.4401  0.7372
15472TIP3   OH267830   4.229   5.060   4.906 -0.4811 -0.3001 -0.5756
15472TIP3    H167831   4.288   5.127   4.939 -0.7601 -0.1001 -0.4892
15472TIP3    H267832   4.278   5.019   4.834  0.3890 -1.1736  0.4867
15473TIP3   OH267833   3.126   0.803  13.798 -0.2644  0.4533  0.1644
15473TIP3    H167834   3.139   0.783  13.891 -2.9192  2.2674  0.9997
15473TIP3    H267835   3.214   0.823  13.765  1.0715 -2.7479  1.5964
15474TIP3   OH267836   5.282   0.427   0.738 -0.3292 -0.5326 -0.2485
15474TIP3    H167837   5.317   0.432   0.649  2.3344  0.0866  0.7722
15474TIP3    H267838   5.285   0.333   0.759  1.6682 -0.4207  0.1248
15475TIP3   OH267839   4.020   3.500   2.104 -0.0100  0.8824 -0.0199
15475TIP3    H167840   3.997   3.494   2.197  0.2434  0.2922  0.0040
15475TIP3    H267841   3.956   3.561   2.068 -1.5678 -0.6450  0.0748
15476TIP3   OH267842   1.220   2.321   1.266 -0.7933 -0.2339 -0.1688
15476TIP3    H167843   1.235   2.307   1.359 -1.2250 -0.1258 -0.0818
15476TIP3    H267844   1.245   2.238   1.225  0.5704  0.1216 -0.0943
15477TIP3   OH267845   0.808   6.320   1.062  0.9172  0.1070  0.1318
15477TIP3    H167846   0.830   6.234   1.099 -0.5747  0.2052  1.3024
15477TIP3    H267847   0.847   6.383   1.123 -1.2166  0.2641  1.4195
15478TIP3   OH267848   1.147   3.653   2.903 -0.1746  0.2642 -0.1314
15478TIP3    H167849   1.180   3.690   2.984  0.7276  1.3755 -0.9875
15478TIP3    H267850   1.100   3.725   2.861  1.8107  0.5945 -1.9243
15479TIP3   OH267851   1.023   3.091   0.884 -0.0452  0.1212  0.3054
15479TIP3    H167852   0.955   3.041   0.839  1.9704 -2.2035 -0.2651
15479TIP3    H267853   0.977   3.164   0.925 -2.7881 -1.1447 -0.4667
15480TIP3   OH267854   5.709   3.730   0.605  0.0992  0.0332  0.1563
15480TIP3    H167855   5.760   3.657   0.570 -0.4352 -0.3745  0.2317
15480TIP3    H267856   5.713   3.718   0.700 -0.8319 -0.4625  0.1298
15481TIP3   OH267857   3.969   2.055   3.372 -0.1218 -0.8411 -0.1158
15481TIP3    H167858   3.924   2.139   3.379 -2.1567 -2.0538  2.0302
15481TIP3    H267859   4.044   2.063   3.430 -2.0308 -1.5192  2.5426
15482TIP3   OH267860   2.897   0.795   4.484 -0.1088  0.3769  0.0194
15482TIP3    H167861   2.878   0.766   4.395  1.5395 -1.9077  0.3708
15482TIP3    H267862   2.992   0.802   4.487 -0.2334  1.6144  1.2573
15483TIP3   OH267863   4.263   4.535   5.525  0.6772 -0.0052  0.0985
15483TIP3    H167864   4.241   4.512   5.616  0.8919  1.0671  0.4330
15483TIP3    H267865   4.186   4.582   5.493 -0.0770 -1.8574 -0.8357
15484TIP3   OH267866   5.983   4.773  13.063  1.1480 -0.4081 -1.0408
15484TIP3    H167867   5.963   4.825  13.141  1.8399  0.8195 -1.6697
15484TIP3    H267868   5.897   4.752  13.026  0.8677  0.2063 -0.7413
15485TIP3   OH267869   4.364   4.166   5.077  0.3069  0.4162 -0.1001
15485TIP3    H167870   4.441   4.197   5.125 -1.7639  0.6778  3.2200
15485TIP3    H267871   4.389   4.078   5.047  2.1791  0.8008  0.2474
15486TIP3   OH267872   0.659   1.197  17.092  0.1680  0.1446  0.4541
15486TIP3    H167873   0.666   1.187  16.997  2.1005 -0.8978  0.6757
15486TIP3    H267874   0.694   1.284  17.110 -1.7257  1.0088  0.0758
15487TIP3   OH267875   0.025   2.785  15.815  0.6047 -0.2001  0.2967
15487TIP3    H167876  -0.024   2.704  15.824  0.9983 -0.6514 -1.3820
15487TIP3    H267877  -0.023   2.835  15.749  3.1874 -1.3219 -2.5862
15488TIP3   OH267878   4.650   2.018   5.380  0.9104 -0.1764  0.1586
15488TIP3    H167879   4.704   2.031   5.302  1.2336  0.7555  0.5273
15488TIP3    H267880   4.699   1.954   5.432  0.0234 -1.8591 -1.0032
15489TIP3   OH267881   2.613   5.762  11.291 -0.0068 -0.2578 -0.3837
15489TIP3    H167882   2.529   5.800  11.267  0.9968  2.6623  0.4568
15489TIP3    H267883   2.601   5.732  11.381  0.2842  1.6727  0.3274
15490TIP3   OH267884   5.678   1.548  16.520  0.6184 -0.7919  0.4855
15490TIP3    H167885   5.698   1.481  16.455 -1.3044 -0.4810 -0.4731
15490TIP3    H267886   5.604   1.596  16.483  1.3492  1.2372  1.6005
15491TIP3   OH267887   5.775   6.272   1.771  0.4361 -0.6563 -0.3315
15491TIP3    H167888   5.861   6.252   1.734  0.5044 -1.3456  0.1852
15491TIP3    H267889   5.792   6.329   1.845  0.7433 -3.2695  1.6961
15492TIP3   OH267890   4.003   2.396   4.365  0.0656  0.0228 -0.1969
15492TIP3    H167891   3.951   2.472   4.337 -0.1749 -0.9982 -2.6182
15492TIP3    H267892   4.053   2.371   4.287  0.7506 -1.8126  0.8110
15493TIP3   OH267893   3.588   6.185   5.872  0.0340  0.0268  0.5144
15493TIP3    H167894   3.588   6.100   5.916 -0.1750 -0.0376  0.3874
15493TIP3    H267895   3.518   6.234   5.915  2.0314  1.1724  2.5995
15494TIP3   OH267896   1.644   1.619   5.848 -0.5391 -0.4511 -0.0434
15494TIP3    H167897   1.678   1.560   5.916 -1.2713 -1.0052 -0.1468
15494TIP3    H267898   1.549   1.608   5.853 -0.5388 -1.8124 -2.3140
15495TIP3   OH267899   5.104   1.485   0.683  0.1465  0.4666  0.0355
15495TIP3    H167900   5.147   1.430   0.617 -1.2267 -0.2515 -0.2786
15495TIP3    H267901   5.023   1.514   0.641 -0.5803  0.2818  1.2784
15496TIP3   OH267902   0.929   4.687   4.709 -0.0414  0.2674  0.5203
15496TIP3    H167903   0.955   4.749   4.642  2.2956 -0.9615  0.2499
15496TIP3    H267904   0.853   4.642   4.672  0.7199  0.1814 -0.9707
15497TIP3   OH267905   4.481   3.556   5.092  0.1846  0.2037  0.5127
15497TIP3    H167906   4.521   3.586   5.010  0.3833  0.5694  0.7370
15497TIP3    H267907   4.553   3.557   5.155  0.7935 -3.2312 -0.0492
15498TIP3   OH267908   0.679   5.568  16.742 -0.4078 -0.1678 -0.6008
15498TIP3    H167909   0.733   5.583  16.664  1.1137 -1.1876  0.2350
15498TIP3    H267910   0.740   5.532  16.807 -1.6632  0.6473  1.0605
15499TIP3   OH267911   3.600   6.146  10.714  0.6388  0.1699 -0.0393
15499TIP3    H167912   3.606   6.085  10.787  0.6523 -0.9963 -1.0067
15499TIP3    H267913   3.547   6.102  10.648  2.3423  0.3191 -1.5911
15500TIP3   OH267914   6.494   0.570  10.913 -0.4239 -0.0582 -0.1719
15500TIP3    H167915   6.444   0.592  10.834 -0.7981  0.3313  0.1764
15500TIP3    H267916   6.433   0.585  10.985  0.0395 -0.0619  0.2184
15501TIP3   OH267917   1.942   4.715  16.729  0.1807 -0.1741  0.2278
15501TIP3    H167918   1.991   4.738  16.650  1.0293 -1.1910  0.4509
15501TIP3    H267919   1.889   4.639  16.702 -0.1119 -0.0357  0.4193
15502TIP3   OH267920   1.519   6.359  16.869 -0.2995 -0.7250  0.6826
15502TIP3    H167921   1.520   6.408  16.787  0.7907  0.0781  1.1569
15502TIP3    H267922   1.498   6.269  16.843  0.4141 -0.5589 -0.5303
15503TIP3   OH267923   3.499   6.721  14.447  0.0423 -0.3880  0.6432
15503TIP3    H167924   3.486   6.754  14.358 -1.5576 -1.3356  0.5042
15503TIP3    H267925   3.587   6.685  14.447  0.2562  0.1132 -0.3984
15504TIP3   OH267926   2.070   5.375   3.545  0.0141 -0.4784 -0.6420
15504TIP3    H167927   2.001   5.324   3.588 -0.6662  1.0167  0.0649
15504TIP3    H267928   2.054   5.363   3.452 -1.6442  0.4404 -0.4931
15505TIP3   OH267929   6.750   5.801   4.369  0.3566  0.0698  0.4056
15505TIP3    H167930   6.689   5.755   4.426 -0.3360  0.5165  0.0345
15505TIP3    H267931   6.771   5.739   4.300 -0.8017  0.4046 -0.2545
15506TIP3   OH267932   2.224   1.133   0.649  0.0953  0.2850  0.6676
15506TIP3    H167933   2.274   1.058   0.618  0.4008  0.6611  0.2401
15506TIP3    H267934   2.217   1.120   0.744  1.2634  0.3820  0.7732
15507TIP3   OH267935   4.593   6.542  14.166 -0.0613  0.2906 -0.1518
15507TIP3    H167936   4.548   6.626  14.175  0.8974  0.8030 -0.1420
15507TIP3    H267937   4.651   6.554  14.091 -0.1910 -0.4885 -0.3833
15508TIP3   OH267938   1.988   2.413  14.552 -0.2024 -0.9300  0.2822
15508TIP3    H167939   2.034   2.396  14.469  0.9391  0.2065  0.6509
15508TIP3    H267940   1.903   2.447  14.525  0.3878  0.0210 -0.4500
15509TIP3   OH267941   5.050   6.534   5.711 -0.8088  0.0532 -0.0565
15509TIP3    H167942   4.999   6.613   5.693  0.2135  0.4971 -1.0261
15509TIP3    H267943   5.118   6.561   5.772 -1.4986 -0.4669  0.9661
15510TIP3   OH267944   1.325   4.891  14.903  0.6835 -0.2338  0.2056
15510TIP3    H167945   1.362   4.856  14.984  0.4409  1.3740  1.0311
15510TIP3    H267946   1.264   4.824  14.874  1.8309 -1.4586  0.5800
15511TIP3   OH267947   5.174   0.953   0.965 -0.5771  0.3355 -0.0554
15511TIP3    H167948   5.263   0.956   0.932 -0.0711  1.4231  1.3380
15511TIP3    H267949   5.152   1.045   0.983 -1.4944 -0.0446  0.8387
15512TIP3   OH267950   5.462   5.270  15.447  0.7120  0.2629 -0.3762
15512TIP3    H167951   5.375   5.253  15.481  1.0551  0.9276  0.8751
15512TIP3    H267952   5.502   5.183  15.438  0.9096  0.1171  1.7374
15513TIP3   OH267953   5.643   2.596  16.552  0.1228 -0.0261  0.2920
15513TIP3    H167954   5.563   2.564  16.593  0.7994 -2.6445 -0.3368
15513TIP3    H267955   5.622   2.685  16.524 -1.7619  0.2098  2.3170
15514TIP3   OH267956   1.073   5.571   3.731  0.1389 -0.4930 -0.1474
15514TIP3    H167957   1.124   5.624   3.669 -0.0422  0.9316  0.9039
15514TIP3    H267958   1.139   5.522   3.780  0.3008 -1.3626 -1.1912
15515TIP3   OH267959   4.649   0.318   0.944  0.3909 -0.7867  0.2439
15515TIP3    H167960   4.740   0.309   0.971  0.3697 -1.7847  0.0227
15515TIP3    H267961   4.606   0.365   1.015  1.3545  0.8600 -0.2415
15516TIP3   OH267962   1.806   5.945  14.633 -0.1715 -0.1464 -0.1353
15516TIP3    H167963   1.780   5.854  14.615 -0.9538 -0.2338  1.3695
15516TIP3    H267964   1.862   5.968  14.559 -0.7174 -1.5440 -1.0175
15517TIP3   OH267965   5.710   3.164   0.334 -0.4443  0.1080  0.4154
15517TIP3    H167966   5.744   3.235   0.388 -1.2234  2.0222 -1.5383
15517TIP3    H267967   5.623   3.193   0.307  0.1092 -0.5112 -2.2823
15518TIP3   OH267968   4.510   4.646  11.277 -0.6132  0.1543 -0.4353
15518TIP3    H167969   4.554   4.584  11.336 -2.8907 -1.5729 -0.4443
15518TIP3    H267970   4.448   4.692  11.334 -0.6441  0.6746 -0.8950
15519TIP3   OH267971   4.307   3.026   6.240 -0.1520  0.2073 -0.0549
15519TIP3    H167972   4.315   2.951   6.182  0.6310 -0.5890  1.0494
15519TIP3    H267973   4.384   3.021   6.297 -0.2882  1.6222  0.2952
15520TIP3   OH267974   1.237   2.671  14.367 -0.1069  0.1742  0.1976
15520TIP3    H167975   1.256   2.746  14.309 -0.0640 -0.4464 -0.6057
15520TIP3    H267976   1.322   2.646  14.403  0.4265 -1.5870 -2.1450
15521TIP3   OH267977   1.978   6.697   4.128 -0.3805  0.1572  0.0045
15521TIP3    H167978   1.887   6.714   4.103 -0.0299 -0.1521 -1.5393
15521TIP3    H267979   2.030   6.736   4.057  0.7135  0.8550  1.1670
15522TIP3   OH267980   2.026   5.408   3.021  0.3481  0.7914 -0.0261
15522TIP3    H167981   1.993   5.493   3.050 -1.4777 -1.0044  3.5294
15522TIP3    H267982   1.982   5.392   2.938 -3.0480  1.2551  1.5852
15523TIP3   OH267983   4.532   6.016   5.630  0.0230  0.3142 -0.0991
15523TIP3    H167984   4.493   6.056   5.552 -0.6086 -0.9379 -0.4389
15523TIP3    H267985   4.457   5.989   5.683  0.4358 -0.9227 -0.1338
15524TIP3   OH267986   0.434   1.013  16.752 -0.6528 -0.2595 -0.6015
15524TIP3    H167987   0.349   0.969  16.761 -0.9728  0.2206 -1.1943
15524TIP3    H267988   0.427   1.090  16.809  0.1533 -1.3158  0.9576
15525TIP3   OH267989   5.357   5.807  12.762 -0.5910 -0.2431 -0.0558
15525TIP3    H167990   5.266   5.838  12.762 -0.5629 -0.1006 -1.3279
15525TIP3    H267991   5.360   5.741  12.831 -1.0418  1.4653  1.6300
15526TIP3   OH267992   2.784   2.504   1.346 -0.1235 -0.0364  0.0190
15526TIP3    H167993   2.802   2.563   1.272 -0.4575 -2.6102 -2.1766
15526TIP3    H267994   2.690   2.486   1.339  0.3081 -2.1966 -0.4027
15527TIP3   OH267995   0.287   1.149  12.400  0.1505  0.2857  0.0938
15527TIP3    H167996   0.293   1.061  12.364  3.7761  0.5004 -0.0039
15527TIP3    H267997   0.314   1.140  12.492 -0.3038  1.1337  0.3122
15528TIP3   OH267998   3.265   2.325   3.343 -0.5274 -0.2412 -0.2026
15528TIP3    H167999   3.282   2.418   3.329  0.0986  0.2633  3.4156
15528TIP3    H268000   3.326   2.280   3.285 -1.4016  1.5695 -2.6005
15529TIP3   OH268001   0.844   1.059   1.492 -0.8998 -0.0076  0.3238
15529TIP3    H168002   0.877   0.981   1.535 -0.2421 -0.1911 -0.5035
15529TIP3    H268003   0.864   1.130   1.552  0.3371 -0.2121  0.1693
15530TIP3   OH268004   3.135   5.105  13.166 -0.4578  0.1142  0.2342
15530TIP3    H168005   3.181   5.152  13.096 -1.3391  2.9113  1.4796
15530TIP3    H268006   3.108   5.022  13.125  1.3644  0.5356 -1.9347
15531TIP3   OH268007   3.015   1.162  14.249 -0.0168  0.0782 -0.0049
15531TIP3    H168008   3.023   1.075  14.210 -2.4793  0.5619 -1.6716
15531TIP3    H268009   3.105   1.187  14.270  0.8595 -2.2486 -0.8691
15532TIP3   OH268010   2.605   5.917   3.736 -0.1494  0.4139  0.0371
15532TIP3    H168011   2.549   5.994   3.747  1.6779  1.6737  0.6730
15532TIP3    H268012   2.610   5.879   3.824 -1.7333 -0.9610 -0.4270
15533TIP3   OH268013   1.373   1.153   6.575 -0.5034 -0.3641  0.3271
15533TIP3    H168014   1.449   1.098   6.556  0.1410  1.1058 -1.5324
15533TIP3    H268015   1.361   1.146   6.670  3.1452  0.8855  0.9586
15534TIP3   OH268016   5.822   6.617   0.165  0.0315  0.0087  0.7210
15534TIP3    H168017   5.899   6.643   0.114 -0.8892  1.0428 -0.1682
15534TIP3    H268018   5.858   6.570   0.241  1.3675 -2.5635 -1.4322
15535TIP3   OH268019   1.437   0.599  16.775  0.2794  0.0597  0.6094
15535TIP3    H168020   1.506   0.533  16.771 -0.1951 -0.3012 -1.7434
15535TIP3    H268021   1.484   0.679  16.800  1.3367 -0.4525  0.3183
15536TIP3   OH268022   4.697   6.433  14.418  0.5360 -0.0064 -0.1096
15536TIP3    H168023   4.627   6.495  14.397 -0.2631 -1.1329 -0.8915
15536TIP3    H268024   4.734   6.410  14.332  0.4215 -1.0545  0.1201
15537TIP3   OH268025   0.819   2.966  12.356  0.8922  0.3431 -0.4240
15537TIP3    H168026   0.772   2.894  12.314  2.4710 -1.7135  1.2144
15537TIP3    H268027   0.751   3.017  12.400 -0.1320 -0.7460 -0.7269
15538TIP3   OH268028   2.795   2.863   5.299  0.4036 -0.6017 -0.0741
15538TIP3    H168029   2.835   2.777   5.314 -1.7034 -1.4150  0.9996
15538TIP3    H268030   2.712   2.844   5.255  0.6680  0.9907 -1.3098
15539TIP3   OH268031   4.458   1.177   1.877  0.7635  0.0950 -0.3467
15539TIP3    H168032   4.536   1.154   1.927  0.8631 -0.3253 -0.6891
15539TIP3    H268033   4.484   1.163   1.786  0.0779 -0.6765 -0.4286
15540TIP3   OH268034   1.852   5.865  17.105 -0.1344 -0.1727  0.2463
15540TIP3    H168035   1.928   5.877  17.047 -1.0998  2.2384 -0.5858
15540TIP3    H268036   1.777   5.877  17.048 -1.1237  0.4346  1.6561
15541TIP3   OH268037   1.501   4.317  11.729  0.2737  0.2069  0.3985
15541TIP3    H168038   1.572   4.362  11.776  2.8802 -0.9081 -2.3498
15541TIP3    H268039   1.501   4.355  11.642 -1.8622 -0.5466  0.0306
15542TIP3   OH268040   1.856   2.935   5.837 -0.4650 -0.0303 -0.4886
15542TIP3    H168041   1.788   2.894   5.890  1.1941  0.2959  1.9639
15542TIP3    H268042   1.876   2.869   5.770 -0.9881 -1.3974  0.6639
15543TIP3   OH268043   1.253   5.944  15.446  0.0615  0.2402  0.4724
15543TIP3    H168044   1.262   5.855  15.411  0.2069  0.2546  0.4734
15543TIP3    H268045   1.191   5.935  15.518  0.8102 -0.0250  1.0838
15544TIP3   OH268046   2.859   5.659   5.768  0.2514 -0.0646  0.2059
15544TIP3    H168047   2.822   5.572   5.782  0.4216 -0.2179 -0.3042
15544TIP3    H268048   2.824   5.688   5.684  0.8140  0.0352  0.0037
15545TIP3   OH268049   3.242   5.992  11.535  0.0264 -0.2776 -0.8830
15545TIP3    H168050   3.192   6.010  11.455  1.3564 -0.6941 -1.8211
15545TIP3    H268051   3.318   6.050  11.529  0.3465 -0.6190 -0.1232
15546TIP3   OH268052   3.779   2.663  15.007  0.0604  0.8045  0.1315
15546TIP3    H168053   3.759   2.675  14.915  1.5268 -0.2086 -0.3378
15546TIP3    H268054   3.863   2.617  15.008  0.5555  1.6843  1.9746
15547TIP3   OH268055   2.728   0.695   0.028 -0.2067 -0.0253 -0.4256
15547TIP3    H168056   2.767   0.717   0.112 -2.0930  2.2985 -0.1062
15547TIP3    H268057   2.757   0.605   0.011  0.1370 -0.5768  2.7362
15548TIP3   OH268058   4.666   6.179  11.265  0.3611  0.8860  0.0665
15548TIP3    H168059   4.655   6.267  11.301  1.0353  1.7332 -1.7254
15548TIP3    H268060   4.673   6.122  11.342 -0.9148  2.2807  1.2447
15549TIP3   OH268061   4.740   1.809  12.049  0.4556  0.2007  0.5224
15549TIP3    H168062   4.746   1.857  12.131  0.5818 -0.6266  0.9995
15549TIP3    H268063   4.646   1.811  12.028  0.1220 -1.3667  1.7693
15550TIP3   OH268064   1.355   1.491   1.879  0.5015  0.8042 -0.6792
15550TIP3    H168065   1.304   1.439   1.941  0.2874 -0.0084 -1.5210
15550TIP3    H268066   1.356   1.579   1.917  0.4674  0.2977  0.5217
15551TIP3   OH268067   4.448   0.743  11.616  0.1057  0.1087 -0.1156
15551TIP3    H168068   4.357   0.772  11.624 -0.0005 -0.5211  0.9537
15551TIP3    H268069   4.480   0.738  11.706  1.5598  1.4614 -0.5360
15552TIP3   OH268070   2.978   1.960   4.792  0.6364 -0.1205 -0.1649
15552TIP3    H168071   2.955   1.940   4.883  1.5944 -4.5744 -0.7688
15552TIP3    H268072   2.900   1.936   4.742  1.2177 -0.7744 -0.7770
15553TIP3   OH268073   4.210   1.707   2.097  0.5821  0.1363  0.2537
15553TIP3    H168074   4.233   1.786   2.048 -0.3433  0.4803  0.3646
15553TIP3    H268075   4.125   1.681   2.061 -0.4620  0.8113  2.1552
15554TIP3   OH268076   5.117   2.934   6.343  0.4036 -0.1656  0.2267
15554TIP3    H168077   5.200   2.938   6.389  0.5003  1.4890 -0.0821
15554TIP3    H268078   5.080   3.022   6.351 -3.2251 -1.8485  3.8525
15555TIP3   OH268079   3.175   2.921  16.797 -0.5276  0.0222  0.1100
15555TIP3    H168080   3.263   2.883  16.803  0.0596  1.4390  0.6595
15555TIP3    H268081   3.150   2.908  16.705 -1.3207 -3.7793  0.8049
15556TIP3   OH268082   1.875   1.667  17.149  0.8494 -0.0920  0.3024
15556TIP3    H168083   1.905   1.579  17.168  0.6714 -0.1688  0.2230
15556TIP3    H268084   1.819   1.658  17.072 -0.0233 -0.0679  0.9232
15557TIP3   OH268085   2.046   1.626   0.318  0.7424  0.1670 -0.5049
15557TIP3    H168086   2.117   1.657   0.263  1.0659 -1.8139 -1.2545
15557TIP3    H268087   2.062   1.532   0.327 -1.1010 -0.0967  0.3138
15558TIP3   OH268088   1.176   5.156   1.280 -0.1817  0.3202 -0.1210
15558TIP3    H168089   1.151   5.220   1.213  0.6028  1.1260  0.3599
15558TIP3    H268090   1.191   5.075   1.230  1.4811  1.1898 -1.0786
15559TIP3   OH268091   1.095   4.019  14.566 -0.0810 -0.3427  0.4214
15559TIP3    H168092   1.159   4.038  14.635 -0.3970  1.2598  0.2854
15559TIP3    H268093   1.022   4.078  14.583 -0.6311 -0.6897 -0.6564
15560TIP3   OH268094   1.993   5.987  14.045 -0.4321  0.4382  0.0966
15560TIP3    H168095   2.048   5.912  14.070 -0.1968  0.3492 -0.6857
15560TIP3    H268096   1.982   5.978  13.951 -0.8169  1.1188  0.0767
15561TIP3   OH268097   5.160   2.140  12.247  0.0182 -0.0017  0.3475
15561TIP3    H168098   5.208   2.060  12.228 -1.2090 -0.6191 -0.1865
15561TIP3    H268099   5.087   2.140  12.185  1.0431  2.4559 -0.9508
15562TIP3   OH268100   0.399   4.215  16.158 -0.2208 -0.0524 -0.4122
15562TIP3    H168101   0.494   4.230  16.159 -0.0443 -1.1133 -1.1174
15562TIP3    H268102   0.365   4.285  16.102  0.0576  0.7296  0.3610
15563TIP3   OH268103   6.280   6.267   3.718  0.3875 -0.8444  0.0236
15563TIP3    H168104   6.213   6.226   3.663  0.7832  0.8420 -1.7694
15563TIP3    H268105   6.232   6.333   3.769  0.4952 -0.4758 -0.3567
15564TIP3   OH268106   5.564   4.594   4.464 -0.0677  0.2439 -0.3829
15564TIP3    H168107   5.469   4.599   4.474 -0.1859 -0.5426 -1.1270
15564TIP3    H268108   5.584   4.501   4.473  0.5103  0.2800 -1.3165
15565TIP3   OH268109   0.257   4.033   5.062  0.1347  0.2248 -0.2455
15565TIP3    H168110   0.300   3.955   5.097 -0.3409  0.5346  1.0426
15565TIP3    H268111   0.178   3.999   5.018 -0.6155  0.0641  1.2006
15566TIP3   OH268112   6.263   0.870  13.647 -0.7636 -0.5813 -0.5054
15566TIP3    H168113   6.170   0.868  13.672 -1.0603  2.1375 -1.2876
15566TIP3    H268114   6.310   0.878  13.730 -1.2174 -1.7179 -0.1241
15567TIP3   OH268115   4.672   4.106   0.805  0.0652  0.3048  0.2516
15567TIP3    H168116   4.685   4.093   0.711  1.0432  2.0822  0.1212
15567TIP3    H268117   4.745   4.061   0.847  0.6441  1.0694  0.0648
15568TIP3   OH268118   5.662   2.935  15.210 -0.9312  0.0985 -0.3270
15568TIP3    H168119   5.631   2.936  15.120 -2.2893  1.2171  0.1183
15568TIP3    H268120   5.646   3.024  15.242 -0.4433 -0.2704  1.0062
15569TIP3   OH268121   0.682   1.439   2.233 -0.4303  0.0620 -0.2507
15569TIP3    H168122   0.735   1.517   2.215  0.3490  0.2354  2.6027
15569TIP3    H268123   0.746   1.370   2.251 -1.1383 -0.1932  1.3473
15570TIP3   OH268124   3.206   3.531   2.903 -0.2788 -0.0830  0.2713
15570TIP3    H168125   3.287   3.483   2.918  0.0336  0.6878  1.0918
15570TIP3    H268126   3.143   3.492   2.963 -0.1387  0.2461  0.6335
15571TIP3   OH268127   3.288   2.836  13.494 -0.1436 -0.2181 -0.0420
15571TIP3    H168128   3.236   2.792  13.426  1.2528 -1.6860 -0.1754
15571TIP3    H268129   3.368   2.863  13.450  0.1733  0.0615  0.6930
15572TIP3   OH268130   6.504   5.838   3.162  0.6438 -0.6839 -0.5494
15572TIP3    H168131   6.513   5.842   3.067  0.2512 -0.2725 -0.5688
15572TIP3    H268132   6.448   5.912   3.184 -1.2178 -2.1559 -0.2263
15573TIP3   OH268133   1.056   2.700  12.147 -0.4016 -0.3487  0.1384
15573TIP3    H168134   1.053   2.651  12.065 -0.8212 -0.4038  0.1825
15573TIP3    H268135   0.985   2.662  12.199 -1.5457  1.1320 -0.2971
15574TIP3   OH268136   3.138   1.790   2.687  0.2560  0.5445 -0.1673
15574TIP3    H168137   3.103   1.867   2.643  1.5002  0.7452 -0.8280
15574TIP3    H268138   3.201   1.754   2.625  1.9566  0.7668  1.3860
15575TIP3   OH268139   6.449   2.495   3.526 -0.2007  0.0450 -0.0845
15575TIP3    H168140   6.448   2.486   3.431  0.6546  2.8755 -0.4125
15575TIP3    H268141   6.356   2.499   3.550 -0.4089  0.3852 -0.9222
15576TIP3   OH268142   1.425   2.730   3.958 -0.1492  0.3504  0.2733
15576TIP3    H168143   1.458   2.642   3.976 -1.7354 -0.6297 -1.4474
15576TIP3    H268144   1.496   2.774   3.913  0.0427 -0.6094 -0.3685
15577TIP3   OH268145   0.515   5.929   3.401  0.2228  0.1328  0.0245
15577TIP3    H168146   0.450   5.867   3.367 -0.8009  1.0890  0.1824
15577TIP3    H268147   0.553   5.968   3.322  0.6555 -0.4888 -0.0712
15578TIP3   OH268148   1.096   1.851  10.785  0.5108  0.5304 -0.4389
15578TIP3    H168149   1.054   1.937  10.786  0.1527  0.3595  0.5657
15578TIP3    H268150   1.066   1.810  10.867 -1.1262 -1.4169 -1.9726
15579TIP3   OH268151   4.364   0.406   3.354  0.7457 -0.1192  0.7966
15579TIP3    H168152   4.358   0.395   3.449  0.4777 -1.7182  0.5968
15579TIP3    H268153   4.285   0.456   3.331 -0.6797 -2.2097  1.0452
15580TIP3   OH268154   3.457   1.777  15.435 -0.1200  0.4003  0.7492
15580TIP3    H168155   3.541   1.730  15.429 -0.5875 -0.2478 -0.8362
15580TIP3    H268156   3.477   1.865  15.403 -0.0516  0.2400  0.3507
15581TIP3   OH268157   4.003   0.022  17.005  0.2718  0.3353  0.0684
15581TIP3    H168158   4.061  -0.053  17.020 -1.7560 -1.0251  1.3615
15581TIP3    H268159   4.019   0.047  16.914  2.0651 -0.7092  0.0790
15582TIP3   OH268160   5.964   3.112   5.959  0.1851 -0.2277  0.4308
15582TIP3    H168161   5.927   3.152   6.037 -2.5057  0.1438 -0.9904
15582TIP3    H268162   6.016   3.181   5.918 -1.0181  0.5513  0.2093
15583TIP3   OH268163   1.950   4.187  15.968  0.4613 -0.0553 -0.5242
15583TIP3    H168164   1.961   4.129  15.893 -1.9821 -1.1207 -0.1135
15583TIP3    H268165   1.907   4.133  16.034  0.2437  1.5914  0.7201
15584TIP3   OH268166   6.717   6.072  13.963  0.5411 -0.1471 -0.1658
15584TIP3    H168167   6.646   6.083  13.899  0.6209 -0.4719 -0.3101
15584TIP3    H268168   6.777   6.144  13.944 -1.8054  2.6992  2.7045
15585TIP3   OH268169   3.633   5.612  14.167 -0.2719 -0.1177  0.1905
15585TIP3    H168170   3.725   5.640  14.175 -0.5577  0.4549  1.6739
15585TIP3    H268171   3.619   5.554  14.242 -1.1605 -0.0948  0.0456
15586TIP3   OH268172   6.382   0.020   1.513 -0.1146 -0.1251  0.1743
15586TIP3    H168173   6.451   0.043   1.575  0.4183  1.5880 -1.0340
15586TIP3    H268174   6.307  -0.003   1.568  0.7588  0.0430  1.4611
15587TIP3   OH268175   4.814   4.996  13.270  0.7821  0.0212 -0.5816
15587TIP3    H168176   4.854   5.077  13.303 -0.7869 -0.7302  3.5235
15587TIP3    H268177   4.722   5.004  13.292  0.2361 -2.0154 -2.0222
15588TIP3   OH268178   5.257   6.451   3.855 -0.3301 -0.1299  0.1730
15588TIP3    H168179   5.320   6.453   3.927  1.0938  0.4104 -1.0449
15588TIP3    H268180   5.229   6.542   3.846 -0.1450 -0.1135 -0.2480
15589TIP3   OH268181   3.393   1.958  14.107 -0.4110 -0.0936  0.7997
15589TIP3    H168182   3.335   1.936  14.033 -0.2700 -0.5732  0.8300
15589TIP3    H268183   3.372   2.049  14.128  0.8954  0.6668 -1.0640
15590TIP3   OH268184   0.318   4.874  11.205 -0.1696  0.0930  0.1030
15590TIP3    H168185   0.339   4.945  11.145  0.3893 -0.4909 -0.4118
15590TIP3    H268186   0.223   4.874  11.211 -0.3335 -0.7632 -1.9486
15591TIP3   OH268187   2.271   5.594   2.758  0.8062 -0.9386 -0.0321
15591TIP3    H168188   2.210   5.656   2.798  0.1904 -1.8972  0.5048
15591TIP3    H268189   2.297   5.637   2.676  1.2531  0.5357  0.8730
15592TIP3   OH268190   1.193   3.574   5.258 -0.6133  0.1076  0.6972
15592TIP3    H168191   1.270   3.558   5.313 -0.0088  0.9243  0.0871
15592TIP3    H268192   1.120   3.575   5.320  0.0967  1.3006  1.5255
15593TIP3   OH268193   6.040   5.277   1.553 -0.1165  0.1646  0.3406
15593TIP3    H168194   5.976   5.228   1.604  1.6816 -0.4194  2.1095
15593TIP3    H268195   6.004   5.366   1.549 -2.0036 -0.6289 -0.4317
15594TIP3   OH268196   6.777   1.771   6.842  0.6988 -0.3103 -0.0215
15594TIP3    H168197   6.723   1.813   6.776  1.3602  1.3883  0.4913
15594TIP3    H268198   6.743   1.803   6.925  1.0173 -1.0319  0.3960
15595TIP3   OH268199   5.533   6.674  17.134 -0.5621 -0.5797  0.1951
15595TIP3    H168200   5.600   6.607  17.124  0.8152  0.4576  2.0973
15595TIP3    H268201   5.532   6.694  17.228 -1.2656  1.7072 -0.2600
15596TIP3   OH268202   0.640   6.148  13.606 -0.0433  0.3240  0.5747
15596TIP3    H168203   0.733   6.139  13.628  0.1706  0.3705 -0.3192
15596TIP3    H268204   0.621   6.240  13.624 -0.1478  0.0962  1.6482
15597TIP3   OH268205   1.995   5.503  10.760  0.0286  0.1988  0.3100
15597TIP3    H168206   1.955   5.449  10.692 -2.5807  1.7984  0.5022
15597TIP3    H268207   2.031   5.440  10.822 -0.0067 -1.2843 -1.1286
15598TIP3   OH268208   3.061   5.611   3.997  0.4017  0.0587  0.0329
15598TIP3    H168209   3.058   5.516   3.990  0.0831  0.0937 -0.2824
15598TIP3    H268210   2.981   5.635   4.044  0.7215  0.1329  0.5493
15599TIP3   OH268211   5.095   3.498  12.484 -0.5604 -0.0547  0.3333
15599TIP3    H168212   5.093   3.418  12.537 -0.3739  0.2234  0.7634
15599TIP3    H268213   5.170   3.486  12.426 -1.4225 -0.8422 -0.6340
15600TIP3   OH268214   3.190   5.731   2.368  0.7640 -0.5674  0.2055
15600TIP3    H168215   3.161   5.810   2.322  1.9106  0.1431  0.6935
15600TIP3    H268216   3.187   5.754   2.461  1.8261 -0.8309  0.3146
15601TIP3   OH268217   4.383   6.054  11.335 -0.0611 -0.2670 -0.2522
15601TIP3    H168218   4.458   6.052  11.394  0.2980  1.2416 -0.6322
15601TIP3    H268219   4.409   6.002  11.259  0.7864  0.6419 -0.5924
15602TIP3   OH268220   4.873   6.057   4.624 -0.4080  0.3202 -0.3958
15602TIP3    H168221   4.882   6.038   4.531  1.0591 -1.1471  0.0159
15602TIP3    H268222   4.870   6.153   4.629  0.7847  0.4559 -1.8595
15603TIP3   OH268223   0.156   0.786  13.979 -0.1591  0.6760  0.0634
15603TIP3    H168224   0.197   0.855  14.031  1.0264 -0.8849  1.2363
15603TIP3    H268225   0.176   0.810  13.888 -0.1863  2.1128  0.4106
15604TIP3   OH268226   1.952   2.753   0.024  0.0430 -0.3335  0.3351
15604TIP3    H168227   1.866   2.712   0.012  0.5617 -1.6061  0.8332
15604TIP3    H268228   1.933   2.842   0.053 -1.1268 -1.1881  2.3230
15605TIP3   OH268229   6.440   2.829   4.660 -0.9409  0.4765 -0.2717
15605TIP3    H168230   6.404   2.757   4.608  1.1147 -0.4661 -0.4322
15605TIP3    H268231   6.365   2.861   4.711 -2.4753 -0.0656 -2.0979
15606TIP3   OH268232   2.907   6.602   4.063  0.2298 -0.0645  0.0407
15606TIP3    H168233   2.823   6.625   4.103  0.8431 -0.8597  1.8315
15606TIP3    H268234   2.968   6.669   4.096  0.8577 -1.0423  0.8751
15607TIP3   OH268235   4.458   6.262   2.867 -0.2683  0.4735  0.1184
15607TIP3    H168236   4.385   6.320   2.891 -0.0110  1.0709 -0.5043
15607TIP3    H268237   4.457   6.261   2.771  0.0952 -0.0908  0.1191
15608TIP3   OH268238   2.516   2.806   6.065  0.3405  0.2991  0.0965
15608TIP3    H168239   2.455   2.878   6.082  0.9126  0.5797  0.9953
15608TIP3    H268240   2.580   2.844   6.003 -1.2029 -0.4370 -2.0074
15609TIP3   OH268241   3.679   0.644   4.282 -0.3350 -0.2221 -0.2381
15609TIP3    H168242   3.716   0.659   4.194 -0.6418  0.6961 -0.2151
15609TIP3    H268243   3.685   0.549   4.294 -1.4589 -0.5035 -1.7721
15610TIP3   OH268244   0.944   6.121  13.862  0.0285  0.1853 -0.4147
15610TIP3    H168245   0.877   6.117  13.931  0.5590  0.4750  0.1207
15610TIP3    H268246   1.021   6.081  13.902  0.4672  0.7538 -0.6933
15611TIP3   OH268247   6.240   2.338   1.847  0.2811 -0.0913  0.0206
15611TIP3    H168248   6.173   2.342   1.779 -0.1360  1.6205  0.5189
15611TIP3    H268249   6.321   2.316   1.800 -0.1043  0.5744 -0.9552
15612TIP3   OH268250   2.207   4.722   0.431  0.4388  0.3848 -0.6285
15612TIP3    H168251   2.209   4.702   0.337  0.4960  1.8039 -0.9395
15612TIP3    H268252   2.179   4.814   0.435 -0.0041  0.1937  0.7648
15613TIP3   OH268253   0.785   5.876   1.350  0.0220 -0.0720 -0.0735
15613TIP3    H168254   0.726   5.832   1.289 -0.3163 -0.3681  0.4634
15613TIP3    H268255   0.820   5.950   1.300 -0.8567  0.1529 -0.3709
15614TIP3   OH268256   5.080   1.996   2.709 -0.0338 -0.3767  0.1696
15614TIP3    H168257   5.074   2.040   2.624 -3.3971 -2.1470 -0.6186
15614TIP3    H268258   5.141   1.924   2.694 -0.3565 -0.4842 -0.6996
15615TIP3   OH268259   6.647   5.520  16.693 -0.8510 -0.1752  0.7240
15615TIP3    H168260   6.685   5.432  16.686 -0.9214 -0.1184 -0.5459
15615TIP3    H268261   6.568   5.515  16.640 -0.0599  1.0759 -0.6125
15616TIP3   OH268262   4.740   5.721   5.064 -0.2243  0.2712  0.0203
15616TIP3    H168263   4.782   5.801   5.030 -2.9610  0.3139 -3.6573
15616TIP3    H268264   4.654   5.751   5.094 -1.3244 -1.2845 -1.5195
15617TIP3   OH268265   4.932   2.705  12.192 -0.0149 -0.4044  0.0251
15617TIP3    H168266   4.963   2.796  12.184 -1.1114 -0.2103 -2.5262
15617TIP3    H268267   5.011   2.652  12.187  0.5415  0.3615  0.5812
15618TIP3   OH268268   6.469   3.574  13.674  0.3265 -0.3035  0.0489
15618TIP3    H168269   6.478   3.598  13.582  1.2343  2.0575  0.7016
15618TIP3    H268270   6.379   3.542  13.682  0.8299 -2.3125 -2.0020
15619TIP3   OH268271   0.951   1.584  12.422  0.1954 -0.5301  0.5786
15619TIP3    H168272   0.946   1.586  12.518 -0.1621 -0.5565  0.5600
15619TIP3    H268273   0.977   1.494  12.402 -1.4509 -1.0265  0.5765
15620TIP3   OH268274   4.078   6.384   6.343  0.0388 -0.4279 -0.4992
15620TIP3    H168275   4.160   6.363   6.297 -1.3250 -1.1453 -2.7106
15620TIP3    H268276   4.009   6.350   6.285 -1.7992 -0.4845  1.6699
15621TIP3   OH268277   5.480   2.343  13.710 -0.0230  0.4520  0.0982
15621TIP3    H168278   5.538   2.367  13.783 -2.2492 -0.1509  2.1388
15621TIP3    H268279   5.461   2.251  13.724 -0.0376  0.1915 -1.5956
15622TIP3   OH268280   4.315   5.160  10.981  0.0943  0.7239 -0.2844
15622TIP3    H168281   4.378   5.169  11.052  0.3094 -0.5689 -0.3007
15622TIP3    H268282   4.349   5.216  10.911 -0.0371  1.8715  0.5608
15623TIP3   OH268283   4.600   3.568  16.996 -0.2481 -0.2744  0.5594
15623TIP3    H168284   4.625   3.660  17.005 -1.0548  0.1152 -1.0132
15623TIP3    H268285   4.530   3.556  17.062  1.0540 -0.2474  1.9739
15624TIP3   OH268286   0.248   2.573  16.936  0.1901  0.1679 -0.1934
15624TIP3    H168287   0.158   2.544  16.952  0.2363  1.2585  2.1564
15624TIP3    H268288   0.256   2.656  16.983  1.7493  1.2679 -2.2812
15625TIP3   OH268289   4.022   2.679   3.586 -0.0741 -0.3116 -0.3934
15625TIP3    H168290   3.970   2.693   3.666  0.9685 -1.4327  0.4968
15625TIP3    H268291   4.089   2.747   3.589  0.1891 -0.5815 -0.1196
15626TIP3   OH268292   5.294   3.226  11.424 -0.8358  0.5301  0.1540
15626TIP3    H168293   5.350   3.302  11.412 -0.8309  0.6633  1.0018
15626TIP3    H268294   5.323   3.164  11.358 -0.8595  1.2726 -0.5600
15627TIP3   OH268295   1.684   0.520  13.452  0.2176 -0.3389 -0.9885
15627TIP3    H168296   1.649   0.451  13.397 -0.1449 -0.1227 -1.0277
15627TIP3    H268297   1.776   0.495  13.466  0.2206 -0.5611 -1.4140
15628TIP3   OH268298   2.930   2.687   4.798 -0.3561 -0.1043  0.3247
15628TIP3    H168299   2.945   2.775   4.764 -0.1581 -0.3820 -0.3143
15628TIP3    H268300   2.841   2.665   4.769 -0.8815  0.3633  1.5403
15629TIP3   OH268301   3.123   0.266  11.199  0.1442 -0.3499  0.0555
15629TIP3    H168302   3.116   0.294  11.290  0.5386  0.0945 -0.0468
15629TIP3    H268303   3.033   0.273  11.165  0.0546 -0.2046  0.3220
15630TIP3   OH268304   6.298   3.996  17.183 -0.3161 -0.2616  0.4464
15630TIP3    H168305   6.358   3.998  17.257  1.0338  0.1866 -0.6364
15630TIP3    H268306   6.325   4.070  17.128 -0.4429 -1.3859 -1.1566
15631TIP3   OH268307   2.410   0.693  11.189 -0.9334 -0.1905 -0.0356
15631TIP3    H168308   2.392   0.629  11.121  0.2915 -1.1350  0.5000
15631TIP3    H268309   2.490   0.661  11.232 -0.2730  1.7087  0.2156
15632TIP3   OH268310   5.323   2.912   4.278  0.1954  0.2816 -0.0414
15632TIP3    H168311   5.318   2.971   4.353  1.7617  1.9421 -1.2094
15632TIP3    H268312   5.263   2.950   4.214  0.5498  0.1196 -0.4718
15633TIP3   OH268313   4.846   4.255  14.104  0.4628 -0.0662 -0.1363
15633TIP3    H168314   4.816   4.343  14.081  0.5569  0.4496  1.6678
15633TIP3    H268315   4.923   4.270  14.159 -0.4943 -1.2455  1.5328
15634TIP3   OH268316   4.481   5.333  10.826 -0.0240  0.3998  0.6131
15634TIP3    H168317   4.423   5.399  10.787 -0.7439  0.1055  1.1659
15634TIP3    H268318   4.569   5.360  10.801 -0.4394  0.5034 -0.7690
15635TIP3   OH268319   3.288   0.548   3.652  0.2421 -0.2299 -0.5166
15635TIP3    H168320   3.298   0.464   3.608  1.4320  0.2074 -1.1110
15635TIP3    H268321   3.295   0.613   3.582  1.2794  0.4412  0.1922
15636TIP3   OH268322   6.324   5.853  10.175  0.0853 -1.1329 -0.1621
15636TIP3    H168323   6.267   5.888  10.107 -1.5584 -1.7352  0.8786
15636TIP3    H268324   6.371   5.930  10.208 -2.5470 -0.0517  1.2078
15637TIP3   OH268325   6.618   0.626  12.682 -0.4039  0.0904 -0.3638
15637TIP3    H168326   6.549   0.685  12.710 -0.3131  0.8876 -1.7830
15637TIP3    H268327   6.682   0.629  12.753 -1.1376  0.4689  0.2898
15638TIP3   OH268328   4.229   2.382  17.140  0.1326  0.5792  0.5612
15638TIP3    H168329   4.163   2.399  17.072 -1.4076 -2.0719  1.3533
15638TIP3    H268330   4.295   2.329  17.096 -0.1736  0.0164  0.7859
15639TIP3   OH268331   2.646   0.154   0.251  0.1514 -0.4522  0.3222
15639TIP3    H168332   2.614   0.075   0.293  1.2374 -0.3355  1.3902
15639TIP3    H268333   2.741   0.147   0.256  0.2694  0.3743 -0.6069
15640TIP3   OH268334   5.289   5.360  13.203  0.5052 -0.4988 -0.0160
15640TIP3    H168335   5.229   5.293  13.171  1.5626 -1.2739 -0.3905
15640TIP3    H268336   5.370   5.346  13.154  0.9397  0.6478  0.3548
15641TIP3   OH268337   0.902   3.489  12.900  0.2193 -0.8047 -0.1816
15641TIP3    H168338   0.859   3.467  12.817 -2.1789  2.0679  0.2463
15641TIP3    H268339   0.987   3.525  12.874 -0.2559 -0.5022 -1.3590
15642TIP3   OH268340   0.569   3.019  16.003  0.2995 -0.0052 -0.4830
15642TIP3    H168341   0.629   3.063  15.942  2.0525  1.4698  2.1713
15642TIP3    H268342   0.609   3.032  16.089 -1.1290 -3.5957  0.8321
15643TIP3   OH268343   4.860   1.053   0.445  0.3124  0.2440 -0.0916
15643TIP3    H168344   4.934   1.041   0.505  0.7490  1.2267 -0.4302
15643TIP3    H268345   4.819   1.134   0.474 -0.9911 -0.6057  0.4642
15644TIP3   OH268346   6.311   0.818   5.093  0.3000 -0.0713  0.2222
15644TIP3    H168347   6.236   0.866   5.129  0.2051 -0.4967  0.5915
15644TIP3    H268348   6.375   0.819   5.164 -0.0644 -1.3178  0.5758
15645TIP3   OH268349   2.030   2.554   2.038 -0.1851  0.4211 -0.6152
15645TIP3    H168350   2.096   2.495   2.076 -0.8051  0.5691  0.6913
15645TIP3    H268351   2.065   2.641   2.052 -0.6816  0.5014  0.1050
15646TIP3   OH268352   1.074   3.395  14.320  0.0371 -0.1036  0.2717
15646TIP3    H168353   1.039   3.451  14.389 -1.2645 -0.1100 -0.3714
15646TIP3    H268354   1.165   3.424  14.310 -0.0550  0.5720  1.2883
15647TIP3   OH268355   0.397   1.031  14.383  0.1368  0.0371 -0.2382
15647TIP3    H168356   0.338   1.047  14.456 -0.5185  1.2476 -1.0214
15647TIP3    H268357   0.478   1.001  14.424 -0.6771 -0.6773  0.8959
15648TIP3   OH268358   0.528   6.462   2.645  0.3556 -0.5800  0.2586
15648TIP3    H168359   0.545   6.494   2.556  1.2371 -0.2164  0.5553
15648TIP3    H268360   0.570   6.526   2.702 -1.2679 -0.1288  0.9866
15649TIP3   OH268361   0.497   5.851  16.505  0.1320  0.4160  0.0281
15649TIP3    H168362   0.490   5.877  16.597  1.6772  0.1428  0.2386
15649TIP3    H268363   0.473   5.930  16.456  3.7169  2.0139  0.6592
15650TIP3   OH268364   6.037   5.047   3.784 -0.3711  0.0131 -0.1837
15650TIP3    H168365   6.045   4.957   3.752  1.9141  0.1490 -0.0818
15650TIP3    H268366   6.092   5.098   3.725  1.8844  0.6557  2.3559
15651TIP3   OH268367   2.052   0.202  12.508 -0.2616 -0.4991 -0.1876
15651TIP3    H168368   1.997   0.248  12.572 -1.3602 -0.1195 -1.3941
15651TIP3    H268369   2.117   0.267  12.481 -1.5297  0.2290 -1.5449
15652TIP3   OH268370   0.647   4.445  13.863  0.3580 -0.0464 -0.0467
15652TIP3    H168371   0.571   4.410  13.909  1.4001 -0.6261  1.2629
15652TIP3    H268372   0.672   4.375  13.802  0.7545 -0.4632  0.5946
15653TIP3   OH268373   4.785   1.342   5.398 -0.5911 -0.0381 -0.3863
15653TIP3    H168374   4.837   1.265   5.375 -0.1365 -0.0034  0.4924
15653TIP3    H268375   4.838   1.387   5.464 -2.0148 -0.3352  1.0050
15654TIP3   OH268376   0.384   0.260   1.208 -0.6270  0.0214 -0.0674
15654TIP3    H168377   0.304   0.282   1.161 -0.2438 -0.7684 -1.1174
15654TIP3    H268378   0.454   0.289   1.150 -0.1532  0.1584  0.5763
15655TIP3   OH268379   1.978   4.983  17.040 -0.1346 -0.4584 -0.2185
15655TIP3    H168380   1.971   5.072  17.074 -2.9091 -0.1418 -1.5252
15655TIP3    H268381   1.974   4.927  17.118 -0.4515  0.4629  0.4327
15656TIP3   OH268382   1.270   0.705   6.596  0.1194 -0.6957  0.2888
15656TIP3    H168383   1.337   0.759   6.554  1.0657 -1.9633  0.1530
15656TIP3    H268384   1.231   0.654   6.525 -0.5964 -0.3972  0.4563
15657TIP3   OH268385   5.612   0.677   1.607  0.0616  0.4140  0.1476
15657TIP3    H168386   5.575   0.671   1.519  1.9725 -0.2867 -0.6397
15657TIP3    H268387   5.702   0.708   1.593  0.2686  0.6385  1.8861
15658TIP3   OH268388   0.591   3.104  12.354 -0.1135  0.3909  0.4772
15658TIP3    H168389   0.499   3.111  12.328 -0.0803  1.6782  0.6818
15658TIP3    H268390   0.599   3.162  12.429  1.0208  0.7912  0.0524
15659TIP3   OH268391   5.679   1.390  13.228  0.1533 -0.3272 -0.3697
15659TIP3    H168392   5.692   1.301  13.195 -0.5671  0.1798 -2.0553
15659TIP3    H268393   5.608   1.425  13.175  1.0396  1.5745 -0.3186
15660TIP3   OH268394   5.611   6.256  13.969 -0.0777  0.1657 -0.3080
15660TIP3    H168395   5.652   6.188  14.022  0.7379  1.5411  0.8884
15660TIP3    H268396   5.684   6.296  13.922 -0.2104  1.6884  0.7372
15661TIP3   OH268397   5.418   1.453  15.077 -0.0812  0.5081  0.2854
15661TIP3    H168398   5.471   1.529  15.054 -0.7207  0.3047 -1.9844
15661TIP3    H268399   5.341   1.460  15.021  1.0801 -3.1873 -1.9538
15662TIP3   OH268400   0.468   2.095   0.235  0.3594  0.1569  0.4574
15662TIP3    H168401   0.484   2.061   0.324  2.0168  0.4534  0.2944
15662TIP3    H268402   0.549   2.140   0.212 -0.0294  0.0188 -1.2476
15663TIP3   OH268403   4.549   4.900   4.230 -0.2216  0.4292 -0.4099
15663TIP3    H168404   4.566   4.991   4.207  1.7205  0.5305  1.2803
15663TIP3    H268405   4.561   4.852   4.148  0.6691  1.4647 -0.9014
15664TIP3   OH268406   5.616   3.255  14.354 -0.2754 -0.1154 -0.5083
15664TIP3    H168407   5.684   3.283  14.415  0.5736 -2.0846 -0.5064
15664TIP3    H268408   5.546   3.320  14.364  0.8653  0.9320  0.7820
15665TIP3   OH268409   3.401   5.835  11.694 -0.0774 -0.6735 -0.4210
15665TIP3    H168410   3.369   5.797  11.776 -1.4603 -0.1637 -0.7175
15665TIP3    H268411   3.327   5.886  11.661  0.8635  0.0597 -1.4037
15666TIP3   OH268412   0.331   5.664   3.614 -0.1558  0.0513 -0.0368
15666TIP3    H168413   0.402   5.686   3.674  1.3797 -0.4238 -1.6278
15666TIP3    H268414   0.310   5.573   3.635  1.5365 -0.6686 -1.2917
15667TIP3   OH268415   0.079   0.288  13.471  0.1369  0.3302  0.5824
15667TIP3    H168416   0.058   0.349  13.401 -0.2573  1.4360  1.6529
15667TIP3    H268417   0.173   0.270  13.460 -0.1956 -0.5681 -1.0320
15668TIP3   OH268418   6.749   2.328  12.213  0.0923  0.4165  0.1102
15668TIP3    H168419   6.756   2.403  12.155  0.1338 -0.2734 -0.7815
15668TIP3    H268420   6.671   2.346  12.266  0.9679  1.8155  0.9700
15669TIP3   OH268421   1.988   1.913  14.070  0.1804 -0.3825  0.3811
15669TIP3    H168422   1.894   1.922  14.082  0.3472  1.4031  0.5579
15669TIP3    H268423   2.015   1.998  14.033  1.8818 -0.4210  1.5009
15670TIP3   OH268424   3.854   5.865   4.136  0.1787 -0.3754 -0.2960
15670TIP3    H168425   3.815   5.947   4.167 -0.2606 -0.7535  0.1677
15670TIP3    H268426   3.942   5.865   4.174 -0.1672 -0.5808  0.5278
15671TIP3   OH268427   6.198   1.672  16.264  0.1304  0.5052 -0.0551
15671TIP3    H168428   6.275   1.679  16.321 -0.1414  0.6185  0.3014
15671TIP3    H268429   6.190   1.578  16.246 -0.3021  0.3645  0.8176
15672TIP3   OH268430   5.106   6.473  15.342 -0.4448  0.0986  0.1035
15672TIP3    H168431   5.147   6.388  15.360 -0.2132  0.1964  0.0378
15672TIP3    H268432   5.145   6.532  15.407 -0.8415  0.0845  0.3562
15673TIP3   OH268433   3.503   5.844  15.554 -0.9814  0.2407 -0.1879
15673TIP3    H168434   3.586   5.819  15.594 -1.5138 -1.6869 -0.2750
15673TIP3    H268435   3.485   5.931  15.590  0.3453  0.0604  0.9459
15674TIP3   OH268436   2.072   5.578  15.003 -0.0479  0.6481  0.0895
15674TIP3    H168437   2.163   5.601  14.982 -0.0843 -0.8496 -1.8732
15674TIP3    H268438   2.075   5.486  15.027 -1.1000  0.4516 -0.4829
15675TIP3   OH268439   6.028   0.333  11.865  0.6005 -0.1970  0.0413
15675TIP3    H168440   6.092   0.329  11.795  1.1360 -2.7887  0.6069
15675TIP3    H268441   6.058   0.268  11.929 -2.1851 -0.9706  0.6491
15676TIP3   OH268442   3.519   0.473  11.172  0.4511 -0.1772 -0.2720
15676TIP3    H168443   3.472   0.514  11.100  1.1529 -1.4296 -1.4601
15676TIP3    H268444   3.604   0.518  11.174  0.4169 -0.1158 -0.1977
15677TIP3   OH268445   4.972   3.754  15.767  0.2428 -0.1097 -0.0550
15677TIP3    H168446   4.988   3.848  15.765 -1.3100  0.1613 -2.1685
15677TIP3    H268447   5.017   3.720  15.689 -0.4069 -0.8863 -0.1032
15678TIP3   OH268448   4.186   5.654  15.297  0.2167 -0.4738  0.3229
15678TIP3    H168449   4.167   5.578  15.242  1.5269 -0.7994  0.3026
15678TIP3    H268450   4.193   5.618  15.386  0.7329 -0.3626  0.3282
15679TIP3   OH268451   2.541   4.086   1.696 -0.0808  0.7872  0.4095
15679TIP3    H168452   2.594   4.133   1.632  0.2389  1.4810  1.1772
15679TIP3    H268453   2.451   4.110   1.676 -0.2468 -1.3954 -1.7218
15680TIP3   OH268454   5.637   4.004   0.617  0.3095  0.1583 -0.2896
15680TIP3    H168455   5.663   3.920   0.579 -1.4749 -0.1703 -0.8352
15680TIP3    H268456   5.707   4.026   0.678  1.4031 -1.1138 -1.0853
15681TIP3   OH268457   0.928   6.760   4.040  0.7193 -0.3631  0.6824
15681TIP3    H168458   1.024   6.762   4.050  0.5487 -0.2387  2.4392
15681TIP3    H268459   0.899   6.847   4.069  0.1594 -0.0337 -0.8534
15682TIP3   OH268460   3.023   5.474  16.061  0.1128 -0.0723 -0.2226
15682TIP3    H168461   3.047   5.384  16.040  1.3387  0.2729 -0.3527
15682TIP3    H268462   3.033   5.522  15.979  0.8565  0.4603  0.1733
15683TIP3   OH268463   3.774   1.255   1.098  0.0942  0.5777 -0.2634
15683TIP3    H168464   3.752   1.347   1.087 -2.8763  0.1501  1.6654
15683TIP3    H268465   3.690   1.210   1.106  1.3328 -2.7767 -4.2532
15684TIP3   OH268466   3.091   1.605   4.706  0.1859 -0.4380  0.0945
15684TIP3    H168467   3.145   1.527   4.704  2.4603  0.9470  3.3462
15684TIP3    H268468   3.055   1.608   4.794 -1.2385  1.3230 -0.4896
15685TIP3   OH268469   3.106   4.475   0.305 -0.1099 -0.2297  0.2778
15685TIP3    H168470   3.052   4.484   0.383  0.0711 -0.4282  0.4233
15685TIP3    H268471   3.179   4.420   0.331 -0.0730 -0.3373 -0.0429
15686TIP3   OH268472   6.125   0.350  14.218  0.1740 -0.1090  0.3821
15686TIP3    H168473   6.081   0.410  14.157 -0.4511 -1.2015 -0.2567
15686TIP3    H268474   6.113   0.263  14.179  1.1761 -0.6398  1.2373
15687TIP3   OH268475   3.190   3.964  14.529  0.3694 -0.2329 -0.0072
15687TIP3    H168476   3.279   3.973  14.494 -0.0915  0.4373 -1.0652
15687TIP3    H268477   3.181   4.037  14.590  0.4418 -0.0887 -0.1659
15688TIP3   OH268478   6.047   5.599   4.357 -0.6218 -0.1917 -0.1319
15688TIP3    H168479   6.082   5.515   4.387  0.8037  0.6825  0.7260
15688TIP3    H268480   5.952   5.591   4.366 -0.3423 -0.6302  2.9429
15689TIP3   OH268481   3.808   3.658   5.188 -0.2864  0.3725  0.0745
15689TIP3    H168482   3.880   3.710   5.222 -1.1234  1.3846  0.3428
15689TIP3    H268483   3.754   3.638   5.265 -0.4719 -0.0696 -0.1705
15690TIP3   OH268484   3.747   2.146  15.202  0.1245 -0.0505 -0.5695
15690TIP3    H168485   3.779   2.067  15.158  0.0391  0.5584 -1.7413
15690TIP3    H268486   3.826   2.187  15.238  0.0605 -1.1529  0.8620
15691TIP3   OH268487   4.363   5.225  13.159  0.4266 -0.3463 -0.3718
15691TIP3    H168488   4.299   5.296  13.170 -0.8579 -1.4719 -0.4859
15691TIP3    H268489   4.447   5.270  13.146 -0.3312  1.1461 -0.1793
15692TIP3   OH268490   1.644   2.827   4.328 -0.2851  0.1078 -1.1935
15692TIP3    H168491   1.638   2.893   4.397 -0.5726 -0.4414 -0.6884
15692TIP3    H268492   1.666   2.876   4.249  1.6143  0.5677 -0.4053
15693TIP3   OH268493   5.037   4.408   5.923  0.0243  0.1809 -0.7532
15693TIP3    H168494   5.132   4.411   5.931  0.3980 -0.4733 -4.1877
15693TIP3    H268495   5.015   4.315   5.926 -0.5679  0.3483  0.4280
15694TIP3   OH268496   3.934   2.359   2.881  0.3040  0.1117  0.2394
15694TIP3    H168497   3.908   2.404   2.961  1.0467  1.2798 -0.1606
15694TIP3    H268498   3.914   2.267   2.897  0.4167  0.3392  1.7548
15695TIP3   OH268499   4.419   5.531  13.419  0.1739 -0.4488  0.4938
15695TIP3    H168500   4.470   5.607  13.448  1.0383 -0.0949 -1.8572
15695TIP3    H268501   4.478   5.484  13.361 -1.3818 -1.3260 -0.3870
15696TIP3   OH268502   6.117   6.650   0.790 -0.5247 -0.3799  0.5767
15696TIP3    H168503   6.163   6.608   0.862 -1.1801 -0.4150  0.9729
15696TIP3    H268504   6.060   6.582   0.755  1.4966 -1.0764 -1.4939
15697TIP3   OH268505   2.609   4.901  11.448  0.0830  0.1331 -0.9427
15697TIP3    H168506   2.518   4.875  11.430 -0.9618  1.7845  1.7210
15697TIP3    H268507   2.636   4.949  11.369 -0.8604 -1.5450 -2.3248
15698TIP3   OH268508   6.662   3.396  12.640  0.2519  0.5825 -0.6656
15698TIP3    H168509   6.719   3.445  12.700  0.1713 -1.1248  0.8463
15698TIP3    H268510   6.573   3.413  12.673  0.1717  0.0741 -0.6216
15699TIP3   OH268511   6.214   3.129  12.565  0.1213 -0.1171 -0.6590
15699TIP3    H168512   6.277   3.100  12.499  2.1663 -0.1375  1.2455
15699TIP3    H268513   6.223   3.224  12.567 -0.9690  0.0192 -1.3743
15700TIP3   OH268514   3.783   4.745   1.571  0.3728  0.2077  0.2013
15700TIP3    H168515   3.781   4.681   1.642  0.9822  0.3484  0.3417
15700TIP3    H268516   3.707   4.801   1.587 -1.3646 -1.7113 -1.0617
15701TIP3   OH268517   2.018   4.686   6.805 -0.0165  0.4545  0.1207
15701TIP3    H168518   2.053   4.770   6.778  0.4127  0.1534 -0.2608
15701TIP3    H268519   2.075   4.621   6.764 -1.4331 -0.0590 -1.1189
15702TIP3   OH268520   3.146   2.793   6.432 -0.9312 -0.1000  0.4681
15702TIP3    H168521   3.052   2.774   6.439 -0.5846 -1.5353  1.5458
15702TIP3    H268522   3.172   2.820   6.520 -0.2706  0.0014  0.2460
15703TIP3   OH268523   3.463   4.623  14.656 -0.2550 -0.3897  0.2200
15703TIP3    H168524   3.479   4.606  14.564 -1.9896  2.1042 -0.6096
15703TIP3    H268525   3.380   4.579  14.675  1.4065 -3.1459  1.3331
15704TIP3   OH268526   3.010   0.272   2.175  0.1083 -0.0541 -0.1767
15704TIP3    H168527   2.966   0.304   2.097 -1.0651  0.5561  0.7214
15704TIP3    H268528   2.942   0.271   2.243  0.9060 -1.3475  0.6377
15705TIP3   OH268529   4.947   6.475   0.527  0.3007  0.0332 -0.1482
15705TIP3    H168530   4.921   6.486   0.619  1.1013  1.2679 -0.0578
15705TIP3    H268531   5.032   6.431   0.532  0.5111  0.4226 -0.2849
15706TIP3   OH268532   3.556   5.441  15.278 -0.2151  0.0504 -0.4084
15706TIP3    H168533   3.609   5.439  15.199 -0.7737  2.0526 -0.8665
15706TIP3    H268534   3.487   5.505  15.259 -0.5638  0.3016  1.5705
15707TIP3   OH268535   2.530   1.292  14.269 -0.1066  0.1922 -0.5530
15707TIP3    H168536   2.625   1.301  14.281  0.0272 -0.1882 -1.2597
15707TIP3    H268537   2.493   1.305  14.356  0.5633  0.7918 -0.3545
15708TIP3   OH268538   0.415   4.518  12.625 -0.0155  0.7639  0.3169
15708TIP3    H168539   0.468   4.589  12.590 -1.9310  0.8514 -2.5576
15708TIP3    H268540   0.403   4.458  12.552  0.2997 -1.8008  2.3012
15709TIP3   OH268541   4.042   4.840   3.823 -0.5779  0.0769 -0.3607
15709TIP3    H168542   4.046   4.826   3.728  0.7431 -1.6494 -0.0554
15709TIP3    H268543   4.023   4.754   3.859  0.4338  0.4427  1.0604
15710TIP3   OH268544   1.576   4.139   5.110 -0.2496 -0.2015 -0.1199
15710TIP3    H168545   1.586   4.227   5.075 -1.0926 -0.5312 -1.2066
15710TIP3    H268546   1.525   4.150   5.190 -0.7366  0.2442 -0.4936
15711TIP3   OH268547   1.211   5.097  15.390 -0.2497 -0.3711 -0.0186
15711TIP3    H168548   1.235   5.112  15.481  0.1427  1.5425 -0.4126
15711TIP3    H268549   1.133   5.151  15.377 -0.3514 -0.6990 -0.7889
15712TIP3   OH268550   3.428   0.695   5.322 -0.3565 -0.1185  0.9397
15712TIP3    H168551   3.349   0.749   5.328 -1.8917 -2.1338 -0.6208
15712TIP3    H268552   3.473   0.710   5.405 -2.1404  1.4359  1.6619
15713TIP3   OH268553   6.075   5.313   5.588 -0.3925 -0.1942 -0.7931
15713TIP3    H168554   6.088   5.260   5.666 -1.3096  1.7099  0.6863
15713TIP3    H268555   6.160   5.352   5.570 -0.4121  0.1693 -0.1246
15714TIP3   OH268556   1.514   0.484  13.051  0.3750 -0.1087  0.4535
15714TIP3    H168557   1.558   0.569  13.044  1.7723 -0.7859  0.9054
15714TIP3    H268558   1.476   0.470  12.964  1.5952  0.2124 -0.1529
15715TIP3   OH268559   5.202   3.642  10.750  0.3413  0.2355 -0.5257
15715TIP3    H168560   5.149   3.714  10.717 -0.2743 -0.2309 -0.5653
15715TIP3    H268561   5.289   3.680  10.764 -0.1758  1.1587  0.1727
15716TIP3   OH268562   2.728   5.767   6.410 -0.6951 -0.0421 -0.2188
15716TIP3    H168563   2.642   5.748   6.374 -0.0687 -0.2267 -1.6690
15716TIP3    H268564   2.765   5.833   6.350  0.9825 -1.4872 -0.8314
15717TIP3   OH268565   6.496   0.761   0.576  0.4827 -0.5742  0.3740
15717TIP3    H168566   6.513   0.672   0.544  2.3812 -1.1176  2.7230
15717TIP3    H268567   6.412   0.754   0.621  0.5715 -1.1786  0.4573
15718TIP3   OH268568   4.390   0.080  17.042  0.1017 -0.3998  0.5290
15718TIP3    H168569   4.481   0.051  17.031  0.4213  0.9501 -0.5403
15718TIP3    H268570   4.351   0.069  16.955 -0.5528 -0.2936  0.8062
15719TIP3   OH268571   0.425   5.968   5.275  0.1741  0.6051  0.4003
15719TIP3    H168572   0.331   5.986   5.279 -0.0124 -0.2274 -0.0802
15719TIP3    H268573   0.442   5.911   5.349 -0.2795 -1.7095 -1.2235
15720TIP3   OH268574   0.320   1.547   1.356 -0.8375  0.0896 -0.2547
15720TIP3    H168575   0.378   1.556   1.432 -0.7215  1.2333 -0.4758
15720TIP3    H268576   0.303   1.453   1.351 -0.4226 -0.0617  0.8748
15721TIP3   OH268577   2.694   0.187   2.492 -0.3933  0.1828 -0.0765
15721TIP3    H168578   2.741   0.267   2.515  0.8985 -0.6295  0.1708
15721TIP3    H268579   2.606   0.199   2.528  0.9414 -0.1475  3.4842
15722TIP3   OH268580   4.804   3.266  11.073 -0.7348 -0.1666 -0.4622
15722TIP3    H168581   4.789   3.174  11.052 -0.2684 -0.5557  0.8891
15722TIP3    H268582   4.852   3.300  10.997  0.6792 -1.4801 -0.1673
15723TIP3   OH268583   5.749   2.698  13.291 -0.1590 -0.4446 -0.0270
15723TIP3    H168584   5.720   2.648  13.367  0.0426 -0.2214  0.1972
15723TIP3    H268585   5.801   2.770  13.327  0.6058 -0.7924 -0.4126
15724TIP3   OH268586   5.159   5.903  14.165 -0.3905 -0.5029  0.2323
15724TIP3    H168587   5.136   5.810  14.160 -0.5994 -0.4682  0.5406
15724TIP3    H268588   5.253   5.906  14.146 -0.1984 -0.8682  1.0893
15725TIP3   OH268589   1.111   3.452  15.644 -0.3622  0.0749  0.1787
15725TIP3    H168590   1.059   3.372  15.647  0.3558 -0.4472 -1.2257
15725TIP3    H268591   1.201   3.423  15.635 -0.1174  1.0433 -0.6158
15726TIP3   OH268592   2.157   3.206  13.911 -0.3974  0.0507  0.1714
15726TIP3    H168593   2.223   3.182  13.976  0.3896  0.9869 -0.2684
15726TIP3    H268594   2.080   3.155  13.935  0.9596 -2.2960 -0.2567
15727TIP3   OH268595   2.612   3.538  12.467  0.2405 -0.2250  0.1353
15727TIP3    H168596   2.640   3.477  12.399 -0.1154  1.2359 -1.3608
15727TIP3    H268597   2.694   3.570  12.505  0.4978  0.1152 -0.6799
15728TIP3   OH268598   3.899   1.917   2.067  0.5243  0.2346 -0.2104
15728TIP3    H168599   3.946   2.000   2.075  0.5743  0.1634  0.2436
15728TIP3    H268600   3.856   1.921   1.982 -0.3458  1.1712  0.2614
15729TIP3   OH268601   0.792   4.287   0.624 -0.1541 -0.0827 -0.1886
15729TIP3    H168602   0.750   4.228   0.687 -0.1815 -1.5079 -1.5026
15729TIP3    H268603   0.839   4.350   0.678 -1.2476 -0.4851  1.2648
15730TIP3   OH268604   0.788   2.119  16.708 -0.0967  0.4806 -0.1557
15730TIP3    H168605   0.784   2.027  16.733 -0.6591  0.3325 -0.7649
15730TIP3    H268606   0.830   2.163  16.782 -2.3147  0.1642  1.3478
15731TIP3   OH268607   4.519   5.392   5.540  0.3059  0.0108 -0.6257
15731TIP3    H168608   4.425   5.411   5.543  0.5512  1.3119 -0.9558
15731TIP3    H268609   4.528   5.331   5.467 -0.1678  0.6249 -1.2069
15732TIP3   OH268610   3.130   2.624  11.924 -0.2102 -0.7451  0.3645
15732TIP3    H168611   3.096   2.696  11.976 -3.0166 -0.1564 -2.1124
15732TIP3    H268612   3.181   2.666  11.855 -0.1733 -1.2335  0.0898
15733TIP3   OH268613   2.784   6.569  15.050 -0.0460  0.5485  0.7017
15733TIP3    H168614   2.694   6.571  15.019  0.4824  0.3146 -0.8647
15733TIP3    H268615   2.793   6.651  15.100 -0.3269  1.9453 -1.4501
15734TIP3   OH268616   3.928   0.349   4.382 -0.4681 -0.1552 -0.1505
15734TIP3    H168617   3.867   0.279   4.402 -0.1071 -0.8422 -1.4571
15734TIP3    H268618   3.890   0.395   4.308  1.2612 -1.4601 -1.9040
15735TIP3   OH268619   1.718   1.533   2.625 -0.0416  0.1679  0.4043
15735TIP3    H168620   1.624   1.526   2.639 -0.0895 -0.7543 -0.3660
15735TIP3    H268621   1.756   1.518   2.712 -0.6365  1.6536  0.9395
15736TIP3   OH268622   4.908   4.805  12.563 -0.2911  0.1287 -0.7888
15736TIP3    H168623   4.970   4.735  12.546 -0.3372 -0.1604  0.2504
15736TIP3    H268624   4.840   4.765  12.617  0.7155  1.4491  1.5341
15737TIP3   OH268625   0.249   5.098   0.024 -0.0227  0.3422 -0.1772
15737TIP3    H168626   0.295   5.180   0.006 -0.7913  0.9962  0.7075
15737TIP3    H268627   0.269   5.079   0.116  1.3492 -1.2638 -0.7988
15738TIP3   OH268628   0.652   3.097   0.641 -0.4776 -0.0300 -0.0980
15738TIP3    H168629   0.725   3.048   0.679  0.9866  1.1119 -1.3583
15738TIP3    H268630   0.587   3.030   0.618 -0.1160 -0.9954  1.6190
15739TIP3   OH268631   4.728   1.972  14.156  0.1374 -0.2809  0.6820
15739TIP3    H168632   4.709   1.961  14.063  0.8240 -0.0509  0.5055
15739TIP3    H268633   4.711   1.887  14.195 -0.5472 -0.2656  0.4115
15740TIP3   OH268634   5.535   3.765  12.211 -0.2580 -0.1892  0.0047
15740TIP3    H168635   5.448   3.752  12.249  0.1417 -1.3202  0.5671
15740TIP3    H268636   5.530   3.722  12.126 -0.2283 -0.3193  0.0686
15741TIP3   OH268637   6.691   4.378  11.528  0.2328  0.7948  0.5201
15741TIP3    H168638   6.639   4.330  11.464  1.0202  0.9850 -0.2728
15741TIP3    H268639   6.638   4.377  11.608  0.8192 -2.6389  0.9683
15742TIP3   OH268640   0.346   0.850  15.466  0.3759  0.3182  0.0625
15742TIP3    H168641   0.316   0.877  15.380  1.1320  0.7909 -0.0663
15742TIP3    H268642   0.268   0.854  15.521  0.1085  1.0851 -0.3562
15743TIP3   OH268643   6.230   0.693  16.111  0.8371  0.6344  0.0452
15743TIP3    H168644   6.204   0.677  16.020  2.8891 -0.3244 -0.3971
15743TIP3    H268645   6.209   0.785  16.126 -0.8725  0.4352 -0.9183
15744TIP3   OH268646   4.252   3.498  11.361  0.2366 -0.0605 -0.2293
15744TIP3    H168647   4.300   3.497  11.277 -1.1067 -0.1335 -1.0101
15744TIP3    H268648   4.195   3.421  11.356  0.7010 -0.4980  1.0962
15745TIP3   OH268649   2.798   1.801  13.950 -0.1092  0.1063  0.0176
15745TIP3    H168650   2.891   1.792  13.969 -0.0674  0.2748 -0.1009
15745TIP3    H268651   2.795   1.844  13.865 -0.2962  1.6617  0.7906
15746TIP3   OH268652   0.849   6.019   3.931 -0.0706  0.6281  0.0433
15746TIP3    H168653   0.774   6.079   3.926 -1.5905 -1.2989 -0.7605
15746TIP3    H268654   0.818   5.946   3.984  0.8768 -0.7357 -1.2631
15747TIP3   OH268655   5.833   3.331   5.121  0.1121 -0.3591 -0.2356
15747TIP3    H168656   5.855   3.411   5.168  0.3054  0.1663 -1.2200
15747TIP3    H268657   5.893   3.265   5.157  0.6445  0.1731 -0.1435
15748TIP3   OH268658   0.524   2.719   3.649  0.3098 -0.5566  0.5807
15748TIP3    H168659   0.612   2.681   3.657  1.3615  1.5514 -0.2452
15748TIP3    H268660   0.478   2.691   3.727  1.9014 -1.3125  1.2756
15749TIP3   OH268661   6.411   0.109   0.582 -0.6320 -0.0185 -0.3818
15749TIP3    H168662   6.317   0.090   0.587 -0.7289 -0.1049 -2.1307
15749TIP3    H268663   6.415   0.201   0.555 -0.2137  0.0241 -0.1786
15750TIP3   OH268664   2.624   2.436  14.673 -0.5683 -0.5438  0.8194
15750TIP3    H168665   2.689   2.506  14.673 -0.6932 -0.4261  0.6682
15750TIP3    H268666   2.664   2.366  14.621  0.1269 -1.1295  2.1167
15751TIP3   OH268667   3.464   1.893   5.157  0.5761  0.8033  0.5035
15751TIP3    H168668   3.373   1.867   5.142  0.5021  0.9541  0.7013
15751TIP3    H268669   3.495   1.834   5.226  1.0534 -0.1970 -0.5429
15752TIP3   OH268670   1.465   6.494  12.289  0.4470 -0.0148  0.3926
15752TIP3    H168671   1.505   6.450  12.364 -0.4349  0.1336  0.9510
15752TIP3    H268672   1.491   6.585  12.298 -0.3685  0.1547  0.9802
15753TIP3   OH268673   1.886   6.201   4.830 -0.0153 -0.1456 -0.0859
15753TIP3    H168674   1.835   6.228   4.754 -1.0421 -0.7895  0.3632
15753TIP3    H268675   1.827   6.215   4.904  1.4961  1.9334  0.7742
15754TIP3   OH268676   2.223   3.542   0.770  0.1029 -0.3373  0.2307
15754TIP3    H168677   2.132   3.544   0.740  0.5568 -0.4108 -1.2009
15754TIP3    H268678   2.256   3.458   0.741  1.2330  0.5586 -1.1480
15755TIP3   OH268679   6.774   6.146  16.884 -0.2255 -0.1615 -0.2686
15755TIP3    H168680   6.812   6.093  16.953 -1.2830 -1.2765 -0.5149
15755TIP3    H268681   6.705   6.090  16.846  0.2817  0.4569 -2.1554
15756TIP3   OH268682   6.021   5.404   4.796  0.2807 -0.0537  0.5944
15756TIP3    H168683   6.071   5.431   4.873  2.8194 -2.2559 -0.2003
15756TIP3    H268684   6.080   5.420   4.722 -1.9745  1.6753 -0.9079
15757TIP3   OH268685   0.570   3.218  11.380  0.3168 -0.0013  0.0426
15757TIP3    H168686   0.634   3.147  11.391  1.4994  0.9621 -0.4880
15757TIP3    H268687   0.540   3.209  11.289  0.3980  0.1269  0.0032
15758TIP3   OH268688   6.334   4.256   2.631  0.2412  0.4454 -0.5833
15758TIP3    H168689   6.280   4.199   2.577 -0.7568 -0.5954  1.4510
15758TIP3    H268690   6.343   4.337   2.580 -2.6627  0.3782 -1.2513
15759TIP3   OH268691   1.595   5.143  16.820  0.1542  0.8294 -0.7361
15759TIP3    H168692   1.529   5.093  16.773 -0.6810 -0.4415  1.6945
15759TIP3    H268693   1.650   5.076  16.862  1.3250  1.9126 -0.4955
15760TIP3   OH268694   3.048   2.544   2.933  0.3672 -0.8183  0.3443
15760TIP3    H168695   3.112   2.496   2.881  0.4378 -2.4730  1.9057
15760TIP3    H268696   2.968   2.491   2.928 -1.0651  1.4480 -1.9534
15761TIP3   OH268697   1.228   1.484   6.560 -0.0757  0.3585 -0.3350
15761TIP3    H168698   1.241   1.578   6.573 -2.2306  1.1419 -3.1433
15761TIP3    H268699   1.192   1.453   6.643 -1.5338  2.5016 -0.1307
15762TIP3   OH268700   4.573   2.821   0.872  0.2062 -0.0819  0.0559
15762TIP3    H168701   4.557   2.800   0.780  2.2271  2.5598 -0.9452
15762TIP3    H268702   4.610   2.740   0.908  1.2608 -0.5255 -1.9318
15763TIP3   OH268703   4.922   0.351  15.703 -0.1427  0.4126 -0.1770
15763TIP3    H168704   4.866   0.375  15.629  2.1154  0.4558 -1.9383
15763TIP3    H268705   4.927   0.256  15.699 -0.1274  0.4072 -0.0149
15764TIP3   OH268706   5.152   2.940  14.774 -0.0450 -0.8937 -0.4138
15764TIP3    H168707   5.214   2.961  14.704  1.3395 -3.6039 -0.0566
15764TIP3    H268708   5.131   2.848  14.761 -2.0393 -0.6668  1.0150
15765TIP3   OH268709   3.087   2.702   0.197  0.6365  0.4232  0.1721
15765TIP3    H168710   3.159   2.727   0.139 -0.7047  0.8236 -1.3858
15765TIP3    H268711   3.119   2.625   0.244  1.1021 -1.1142 -2.5270
15766TIP3   OH268712   2.091   5.734  14.013 -0.2850 -0.6120 -0.8219
15766TIP3    H168713   2.077   5.653  13.965 -0.7447 -0.7065 -0.5254
15766TIP3    H268714   2.082   5.710  14.105  1.0966 -0.5364 -0.6530
15767TIP3   OH268715   0.712   5.994  13.360 -0.2777 -0.2743 -0.4770
15767TIP3    H168716   0.790   5.969  13.410  0.1252  0.0920 -0.9118
15767TIP3    H268717   0.675   6.068  13.407 -0.1033 -0.1590 -0.5192
15768TIP3   OH268718   3.154   6.045  14.276 -0.4613 -0.2552 -0.1462
15768TIP3    H168719   3.092   6.116  14.261 -1.1669 -0.8669 -0.1887
15768TIP3    H268720   3.239   6.088  14.284 -1.1226  0.7410  1.6337
15769TIP3   OH268721   4.186   4.027   2.207 -0.1804 -0.3824 -0.3266
15769TIP3    H168722   4.191   3.933   2.193 -1.5796 -0.4785 -0.2356
15769TIP3    H268723   4.192   4.038   2.302 -0.4018 -0.4066 -0.3097
15770TIP3   OH268724   0.671   4.313  11.747  0.1260  0.2233 -0.0734
15770TIP3    H168725   0.639   4.238  11.697  0.5602 -0.2156  0.2959
15770TIP3    H268726   0.614   4.386  11.720 -0.8346 -0.4204  0.1789
15771TIP3   OH268727   4.384   6.141   0.236  0.1938  0.0250  0.0896
15771TIP3    H168728   4.389   6.055   0.278 -2.1015  0.4748  1.4026
15771TIP3    H268729   4.409   6.202   0.306 -0.1421  0.5415 -0.2400
15772TIP3   OH268730   0.277   3.046  17.202 -0.1968  0.7374 -0.1018
15772TIP3    H168731   0.258   3.075  17.291 -1.7735 -0.2471 -0.1074
15772TIP3    H268732   0.227   3.105  17.146 -0.2347  0.5359 -0.2821
15773TIP3   OH268733   6.114   4.279  11.417  0.4001  0.6645 -0.2589
15773TIP3    H168734   6.126   4.258  11.324 -0.1957  2.8340 -0.8558
15773TIP3    H268735   6.040   4.224  11.444  0.5829  0.0118 -1.0641
15774TIP3   OH268736   6.217   1.311   2.140 -0.0823 -0.3096  0.3615
15774TIP3    H168737   6.230   1.299   2.234  0.4642  0.3500  0.3709
15774TIP3    H268738   6.305   1.302   2.103 -0.6556 -3.2374 -0.3835
15775TIP3   OH268739   0.348   3.732  16.294 -0.0990 -0.0088 -0.1390
15775TIP3    H168740   0.343   3.827  16.285 -1.3469 -0.1277 -0.8396
15775TIP3    H268741   0.259   3.701  16.276 -0.1531 -1.1727  1.9065
15776TIP3   OH268742   2.013   0.204   1.470 -0.0546  0.2214  0.0088
15776TIP3    H168743   2.046   0.188   1.382  0.0237 -3.1488  0.5812
15776TIP3    H268744   2.087   0.244   1.517  0.3567  0.7274 -1.0658
15777TIP3   OH268745   3.197   4.472  12.164  0.3285  0.0996  0.0623
15777TIP3    H168746   3.291   4.468  12.146  0.1952  0.0888 -0.6564
15777TIP3    H268747   3.179   4.395  12.217  1.2896  1.7457  2.9108
15778TIP3   OH268748   2.297   3.579  13.006 -0.2072 -0.5109 -0.2424
15778TIP3    H168749   2.219   3.613  12.962 -0.2212 -1.0144 -0.6174
15778TIP3    H268750   2.371   3.616  12.957 -0.2035  0.3191  0.3823
15779TIP3   OH268751   0.937   5.714   3.167 -0.3337 -0.5070 -0.2176
15779TIP3    H168752   0.878   5.643   3.191  0.2420 -1.0354 -0.3610
15779TIP3    H268753   0.998   5.675   3.104 -0.0552  0.1228 -0.3428
15780TIP3   OH268754   4.945   2.547  12.912  0.7624 -0.1760 -0.2380
15780TIP3    H168755   4.888   2.481  12.951  2.9323 -2.6446 -1.0274
15780TIP3    H268756   4.944   2.620  12.974 -2.6054 -0.4263  0.1087
15781TIP3   OH268757   0.196   3.829   0.941 -0.4909  0.0984  0.0760
15781TIP3    H168758   0.235   3.752   0.901 -2.5275 -0.9003 -0.0670
15781TIP3    H268759   0.136   3.863   0.873  0.4221  1.8310  0.1134
15782TIP3   OH268760   4.572   6.706  11.895 -0.0099  1.0558 -0.6728
15782TIP3    H168761   4.504   6.763  11.859  0.3899  2.0878  0.1716
15782TIP3    H268762   4.594   6.647  11.823 -1.7304  0.7603 -0.9841
15783TIP3   OH268763   1.786   1.926  16.951  0.0923  0.3769 -0.2293
15783TIP3    H168764   1.711   1.934  16.892 -0.1114 -2.8375 -0.5054
15783TIP3    H268765   1.749   1.930  17.039 -0.4390 -1.1008 -0.3683
15784TIP3   OH268766   1.678   2.424  11.776 -0.3157 -0.1946 -0.1513
15784TIP3    H168767   1.745   2.486  11.747 -0.1172  0.5069  1.7595
15784TIP3    H268768   1.727   2.352  11.816 -0.6806  1.2588  3.1033
15785TIP3   OH268769   4.352   2.183  16.953  0.1109  0.6624 -0.3165
15785TIP3    H168770   4.432   2.131  16.956  0.2008  0.8016 -0.3129
15785TIP3    H268771   4.291   2.131  16.901  0.2136  0.5705 -0.3439
15786TIP3   OH268772   4.178   3.700  11.505 -0.1734 -0.0151 -0.0728
15786TIP3    H168773   4.211   3.623  11.458 -0.1947 -1.3280  2.0154
15786TIP3    H268774   4.105   3.667  11.557  0.5630  1.1579  1.7534
15787TIP3   OH268775   6.235   4.637   5.617  0.2777 -0.0849 -0.4633
15787TIP3    H168776   6.246   4.679   5.703 -0.2381 -1.5513  0.3436
15787TIP3    H268777   6.142   4.648   5.597  0.4426  0.4418 -0.9386
15788TIP3   OH268778   3.367   3.470   6.674  0.0171  0.3824  0.6239
15788TIP3    H168779   3.377   3.387   6.627  1.2607  0.8493  0.0309
15788TIP3    H268780   3.272   3.485   6.678 -0.0863  0.8428 -2.6568
15789TIP3   OH268781   6.643   3.459   5.752 -0.2768  0.2701  0.3511
15789TIP3    H168782   6.709   3.527   5.765  0.3688  0.6132 -3.9917
15789TIP3    H268783   6.581   3.498   5.690 -0.5804 -2.6286 -1.2264
15790TIP3   OH268784   0.838   1.449   5.503  0.3312  0.1734  0.0787
15790TIP3    H168785   0.932   1.445   5.520  0.5467 -2.2561 -1.4289
15790TIP3    H268786   0.801   1.375   5.551 -0.9629  1.6175  1.3689
15791TIP3   OH268787   5.155   3.375  11.819 -0.1900  0.1839 -0.2405
15791TIP3    H168788   5.154   3.315  11.894  0.0382  0.4319 -0.0344
15791TIP3    H268789   5.072   3.358  11.773 -0.3949  0.1281  0.1468
15792TIP3   OH268790   4.069   2.924  15.780 -0.2241  0.1412  0.1520
15792TIP3    H168791   4.049   2.883  15.695  1.3623 -1.2601  0.4232
15792TIP3    H268792   4.153   2.886  15.805 -1.0835 -0.0968  2.7660
15793TIP3   OH268793   1.838   6.653   5.317  0.0764  0.1952 -0.7858
15793TIP3    H168794   1.852   6.606   5.235  0.8458 -2.6081  0.9127
15793TIP3    H268795   1.888   6.604   5.382  0.0641  2.7846  1.2564
15794TIP3   OH268796   2.067   0.983  16.165  0.0515 -0.5085  0.1468
15794TIP3    H168797   2.034   1.011  16.080 -0.3607  0.5108  0.6313
15794TIP3    H268798   2.032   0.895  16.178 -0.5460 -0.3421 -0.3727
15795TIP3   OH268799   4.298   0.911   4.967 -0.0201 -0.6478 -0.5067
15795TIP3    H168800   4.353   0.974   4.920 -2.5574  2.1475  0.0983
15795TIP3    H268801   4.292   0.835   4.909  2.5012 -0.0613 -1.6040
15796TIP3   OH268802   5.490   3.538  11.129 -0.4093 -0.4187  0.0186
15796TIP3    H168803   5.531   3.486  11.060  1.4573  2.3446 -1.0483
15796TIP3    H268804   5.402   3.558  11.096 -1.3483 -3.2399  0.6750
15797TIP3   OH268805   2.222   0.952   4.975 -0.5306 -1.1376  0.2072
15797TIP3    H168806   2.166   0.930   4.900  2.3203  0.0960 -2.3890
15797TIP3    H268807   2.208   1.045   4.990 -0.4749 -1.2023  0.6675
15798TIP3   OH268808   2.319   6.433  10.715  0.6408  0.0302 -0.2811
15798TIP3    H168809   2.373   6.468  10.644 -0.1758  1.0689 -0.4135
15798TIP3    H268810   2.381   6.412  10.784  1.2792  0.6023 -0.6693
15799TIP3   OH268811   5.418   5.287  12.019  0.2232  0.3198  0.0267
15799TIP3    H168812   5.399   5.339  12.097 -1.2993  1.7991 -1.2990
15799TIP3    H268813   5.371   5.331  11.949 -3.1675 -4.1986 -0.7570
15800TIP3   OH268814   5.086   6.676   3.354 -0.0771  0.5976 -0.0092
15800TIP3    H168815   5.115   6.633   3.274 -0.3150  1.2500 -0.4477
15800TIP3    H268816   5.114   6.767   3.345 -1.1435  0.9536  0.1020
15801TIP3   OH268817   1.505   4.397   5.031 -0.0523  0.4924 -0.2685
15801TIP3    H168818   1.478   4.454   4.959 -0.4723  0.1392 -0.3914
15801TIP3    H268819   1.445   4.418   5.102 -0.6711 -0.3078 -0.5488
15802TIP3   OH268820   3.089   2.876  15.066 -0.4247 -0.3324  0.2617
15802TIP3    H168821   3.119   2.828  15.143 -1.4410  0.1934  0.9940
15802TIP3    H268822   3.096   2.968  15.091 -0.7629 -0.1588 -0.2748
15803TIP3   OH268823   5.136   5.933  11.574 -0.0488  0.0703  0.1517
15803TIP3    H168824   5.124   5.936  11.479 -2.0570 -2.3936  0.2704
15803TIP3    H268825   5.118   6.022  11.603 -2.2839  0.2007 -1.4925
15804TIP3   OH268826   1.481   2.991  12.153  0.5969 -0.5209  0.0129
15804TIP3    H168827   1.453   2.953  12.236  2.0477 -1.3828  0.1360
15804TIP3    H268828   1.516   2.917  12.104 -0.6308 -0.0977 -1.5475
15805TIP3   OH268829   4.826   5.114  10.702 -0.0638  0.1583  0.5553
15805TIP3    H168830   4.817   5.024  10.670  0.4970 -0.4903  2.1570
15805TIP3    H268831   4.763   5.164  10.651 -0.4327 -1.1620 -0.3080
15806TIP3   OH268832   4.415   6.117  12.019 -0.0552 -0.0183 -0.0312
15806TIP3    H168833   4.441   6.185  12.081  0.9607 -1.3574  1.0478
15806TIP3    H268834   4.445   6.150  11.934  2.2976 -0.0296  0.7549
15807TIP3   OH268835   2.721   4.438  15.900  0.4078 -0.2661  0.2296
15807TIP3    H168836   2.750   4.351  15.928 -2.6329 -0.8003  2.0221
15807TIP3    H268837   2.627   4.428  15.887 -0.0372  2.8218  0.7828
15808TIP3   OH268838   4.424   4.151  12.513  0.2518  0.0244  0.6035
15808TIP3    H168839   4.436   4.168  12.420  0.2726 -0.7226  0.4671
15808TIP3    H268840   4.400   4.236  12.550 -0.1842  0.2356 -0.1548
15809TIP3   OH268841   4.043   0.777   4.552  0.4091 -0.0038 -0.2402
15809TIP3    H168842   3.950   0.770   4.530  0.2241 -1.2360  0.8540
15809TIP3    H268843   4.080   0.692   4.527  0.9367 -0.0445  0.6409
15810TIP3   OH268844   3.926   0.860  15.424  0.5395 -0.2932  0.5469
15810TIP3    H168845   4.008   0.845  15.377  1.1469  0.6153  1.3050
15810TIP3    H268846   3.858   0.839  15.360  1.3526 -1.8349  0.1581
15811TIP3   OH268847   6.026   1.821  14.008  0.2920  0.5935 -0.3068
15811TIP3    H168848   6.018   1.903  13.959  0.5768  0.4967 -0.5171
15811TIP3    H268849   5.956   1.766  13.973  0.6246  0.4494 -0.7590
15812TIP3   OH268850   4.567   1.218  13.695 -0.1567  0.8153 -0.6624
15812TIP3    H168851   4.566   1.252  13.606  1.6584  0.5609 -0.8124
15812TIP3    H268852   4.581   1.124  13.684  0.3088  0.8163 -0.1224
15813TIP3   OH268853   4.600   2.099   2.456  0.0935  0.4982 -0.1531
15813TIP3    H168854   4.692   2.099   2.427 -0.2102  2.9873 -1.2209
15813TIP3    H268855   4.597   2.033   2.525  2.7976  0.7004  0.2181
15814TIP3   OH268856   1.709   3.379  14.680  0.0791 -0.0946  0.5567
15814TIP3    H168857   1.632   3.410  14.727  0.4438  0.8304  0.5555
15814TIP3    H268858   1.761   3.458  14.664  1.0985 -0.7312  0.6873
15815TIP3   OH268859   6.602   0.370  16.861  0.0098 -0.5343  0.4069
15815TIP3    H168860   6.633   0.309  16.794  0.9177  0.8209 -0.4216
15815TIP3    H268861   6.658   0.353  16.936  0.8967 -0.0570 -0.1432
15816TIP3   OH268862   3.671   0.446  13.068  0.4730  0.4247 -0.5034
15816TIP3    H168863   3.586   0.456  13.025 -0.6445 -1.2521  1.2515
15816TIP3    H268864   3.705   0.363  13.034  0.1919 -0.2272  0.7690
15817TIP3   OH268865   1.970   5.367   1.846  0.1611  0.0656 -0.3268
15817TIP3    H168866   2.066   5.370   1.852  0.2801  0.8764 -2.1779
15817TIP3    H268867   1.941   5.343   1.934  1.9591  1.9653  0.8454
15818TIP3   OH268868   4.514   1.312  15.899  0.1901  0.6270  0.5345
15818TIP3    H168869   4.577   1.289  15.831 -2.8670 -0.0064 -2.1995
15818TIP3    H268870   4.524   1.244  15.965  2.0574  0.3121 -0.0394
15819TIP3   OH268871   1.031   2.924   1.487 -0.2861 -0.1239 -0.4609
15819TIP3    H168872   0.993   2.971   1.562 -1.1014 -0.9982 -0.3079
15819TIP3    H268873   1.023   2.831   1.511 -1.9757 -0.4906 -2.2649
15820TIP3   OH268874   4.397   1.189  13.112  0.3950  0.1398  0.2914
15820TIP3    H168875   4.389   1.108  13.164 -1.2334  0.1357  0.0665
15820TIP3    H268876   4.343   1.172  13.034  1.8239  0.6156 -0.8069
15821TIP3   OH268877   2.181   4.117  16.565  0.2178  0.2516 -0.1102
15821TIP3    H168878   2.219   4.122  16.653 -2.4568  1.5895  1.0032
15821TIP3    H268879   2.153   4.206  16.546 -1.2525 -0.4747 -1.3832
15822TIP3   OH268880   1.134   0.144  10.643  0.1827 -0.5506 -0.6070
15822TIP3    H168881   1.218   0.102  10.662  0.0978 -1.2964 -1.8209
15822TIP3    H268882   1.083   0.135  10.724  2.1467  2.1527  1.0312
15823TIP3   OH268883   2.233   4.176   1.667  0.5034  0.0477 -0.2757
15823TIP3    H168884   2.199   4.106   1.612  0.8497 -0.8987  0.6856
15823TIP3    H268885   2.223   4.255   1.615 -2.6063 -0.2853 -0.2310
15824TIP3   OH268886   4.682   1.770   0.139 -0.4937  0.3349  0.9336
15824TIP3    H168887   4.630   1.757   0.059  0.2409  0.4085  0.4453
15824TIP3    H268888   4.730   1.851   0.123 -0.3936  0.3820  1.4805
15825TIP3   OH268889   4.127   5.731   5.596 -0.0884 -0.9778 -0.6771
15825TIP3    H168890   4.221   5.742   5.581  0.2084  0.5000  1.7947
15825TIP3    H268891   4.121   5.658   5.658 -0.2861  0.7766  1.4547
15826TIP3   OH268892   5.802   2.668  13.869  0.4767 -0.4563  0.0950
15826TIP3    H168893   5.805   2.716  13.786  0.0843 -0.7824 -0.1102
15826TIP3    H268894   5.894   2.654  13.891  0.5861 -0.4243 -0.3212
15827TIP3   OH268895   5.492   4.998  13.238 -0.1832  0.1315 -0.2412
15827TIP3    H168896   5.485   5.044  13.154  2.0337 -0.5798 -0.8573
15827TIP3    H268897   5.562   5.042  13.284  2.3089 -2.8181 -1.0343
15828TIP3   OH268898   1.923   6.554   1.440  0.1724 -0.0793 -0.0601
15828TIP3    H168899   1.966   6.612   1.503  1.6422 -0.2688 -0.8657
15828TIP3    H268900   1.995   6.508   1.397 -0.8486 -0.4662 -1.3803
15829TIP3   OH268901   3.673   1.759   1.500 -0.4558  0.2234  0.5834
15829TIP3    H168902   3.695   1.839   1.453 -2.0019 -0.2909 -1.0820
15829TIP3    H268903   3.636   1.789   1.583  0.8818  1.1685  0.8626
15830TIP3   OH268904   4.808   0.543   4.915 -0.3218 -0.2300  0.6092
15830TIP3    H168905   4.793   0.482   4.988 -3.0756 -1.0306 -0.5514
15830TIP3    H268906   4.830   0.487   4.841 -2.8269  0.1351 -0.4552
15831TIP3   OH268907   6.213   0.942   4.705  0.0309 -0.8443  0.2277
15831TIP3    H168908   6.241   0.971   4.792  4.1007  2.6321 -2.0070
15831TIP3    H268909   6.292   0.902   4.667 -1.5095 -1.8357 -2.0295
15832TIP3   OH268910   0.660   5.292  13.960 -0.5506 -0.1885  0.1715
15832TIP3    H168911   0.593   5.358  13.974 -0.5293 -0.6070  2.4813
15832TIP3    H268912   0.719   5.301  14.035  0.7244 -1.3027 -0.6671
15833TIP3   OH268913   2.242   0.578  13.154 -0.6950 -0.4525 -0.2003
15833TIP3    H168914   2.214   0.528  13.078  1.5890 -0.1626 -1.2672
15833TIP3    H268915   2.304   0.520  13.199  0.1778  0.4807 -0.1689
15834TIP3   OH268916   3.925   4.287  15.504 -0.1744  0.7431  0.4904
15834TIP3    H168917   3.863   4.345  15.459 -0.1171  0.9464  0.6706
15834TIP3    H268918   3.947   4.334  15.585  0.8916  1.0636  0.0079
15835TIP3   OH268919   2.449   0.688   5.422 -0.1864  0.5884  0.7788
15835TIP3    H168920   2.470   0.769   5.374  3.0534  0.1338  1.3310
15835TIP3    H268921   2.469   0.618   5.360 -1.9631  0.1366  0.6867
15836TIP3   OH268922   1.081   2.128  16.216 -0.0707 -0.2211  0.3421
15836TIP3    H168923   1.160   2.141  16.270  0.0337  0.7063 -0.0177
15836TIP3    H268924   1.022   2.078  16.272  0.6143 -0.5518  0.7755
15837TIP3   OH268925   5.867   5.869  17.228 -0.1439 -0.9593  0.2366
15837TIP3    H168926   5.880   5.880  17.134  1.1607 -0.1245  0.4962
15837TIP3    H268927   5.828   5.782  17.237 -4.0430  0.5111 -1.3483
15838TIP3   OH268928   5.084   3.091   0.325 -0.5992  0.0506 -0.0460
15838TIP3    H168929   5.010   3.067   0.380  0.3972 -2.0576  0.3959
15838TIP3    H268930   5.052   3.165   0.273 -2.1279  0.8848  2.0479
15839TIP3   OH268931   2.472   4.116   4.719  0.0099  0.2981 -0.1902
15839TIP3    H168932   2.435   4.177   4.656  0.0196  1.0023  0.4807
15839TIP3    H268933   2.464   4.160   4.804  1.3140 -0.0217  0.1154
15840TIP3   OH268934   6.374   0.886   2.302 -0.1892 -0.1767 -0.2667
15840TIP3    H168935   6.415   0.953   2.247  0.6088 -0.4687 -0.0341
15840TIP3    H268936   6.290   0.925   2.329 -1.6942 -0.9275 -3.5772
15841TIP3   OH268937   4.078   2.013  15.396 -0.3271 -0.2406 -0.4986
15841TIP3    H168938   4.126   1.967  15.464 -0.5412 -2.0036 -1.5089
15841TIP3    H268939   4.007   2.057  15.443  0.7126  0.2316  0.6625
15842TIP3   OH268940   2.967   4.790   0.212 -0.1900 -0.5098  0.3358
15842TIP3    H168941   2.987   4.740   0.291 -0.4367 -1.9304 -0.4870
15842TIP3    H268942   3.006   4.739   0.140 -2.2688 -0.6509 -0.7424
15843TIP3   OH268943   2.073   1.167   1.646  0.3245 -0.9116  0.4869
15843TIP3    H168944   2.003   1.151   1.709 -0.0745  0.9897  0.5467
15843TIP3    H268945   2.070   1.261   1.629  1.6634 -1.0943 -0.9281
15844TIP3   OH268946   3.605   4.369   3.472  0.5457  0.1240 -0.6009
15844TIP3    H168947   3.563   4.388   3.388 -0.0416 -1.1595 -0.6038
15844TIP3    H268948   3.540   4.393   3.538  0.2299 -0.8141 -0.5722
15845TIP3   OH268949   6.162   3.815  16.295 -0.0099  0.1823  0.1154
15845TIP3    H168950   6.214   3.743  16.329 -1.6259 -0.3094  1.6424
15845TIP3    H268951   6.099   3.834  16.365  0.1831  2.8620 -0.3788
15846TIP3   OH268952   3.180   5.943  11.826  0.2575 -0.1359 -0.5911
15846TIP3    H168953   3.191   5.982  11.913 -1.0343  0.0621 -0.5080
15846TIP3    H268954   3.130   6.008  11.777 -0.4029 -0.9383 -0.9933
15847TIP3   OH268955   6.348   5.250  14.651 -0.2852 -0.7898  0.2086
15847TIP3    H168956   6.403   5.238  14.728  1.9116  1.5461 -0.9594
15847TIP3    H268957   6.283   5.314  14.677 -0.3122 -0.9300  0.4878
15848TIP3   OH268958   6.308   2.258  14.947 -0.0163 -0.2679  0.4781
15848TIP3    H168959   6.380   2.210  14.906  0.2317 -0.2423  0.8838
15848TIP3    H268960   6.253   2.286  14.874  0.7933  0.3758  0.1110
15849TIP3   OH268961   0.571   4.747   0.056 -0.4307 -0.4893  0.4902
15849TIP3    H168962   0.638   4.705   0.111 -0.2513  0.8479  1.3032
15849TIP3    H268963   0.579   4.703  -0.029  1.1220 -0.7002  0.7296
15850TIP3   OH268964   1.074   6.512   4.863  0.4490  0.0288 -0.1198
15850TIP3    H168965   1.155   6.473   4.831 -0.3598 -1.0754 -0.8369
15850TIP3    H268966   1.015   6.438   4.876 -0.0070  0.6911  1.6950
15851TIP3   OH268967   4.782   5.360  14.744  0.4299  0.4011 -0.7580
15851TIP3    H168968   4.820   5.416  14.811 -0.2012  1.9873 -1.7160
15851TIP3    H268969   4.849   5.353  14.676 -0.4810  2.1903 -1.8735
15852TIP3   OH268970   4.841   5.966   5.003 -0.2301  0.1168  0.4321
15852TIP3    H168971   4.859   6.024   5.077  0.2972  2.2280 -1.2990
15852TIP3    H268972   4.759   6.000   4.966 -1.4934 -2.0722  1.1213
15853TIP3   OH268973   2.990   1.912  11.442 -0.1184 -0.2182  0.3353
15853TIP3    H168974   3.068   1.856  11.441 -0.1818 -0.3239  1.1860
15853TIP3    H268975   2.942   1.886  11.363 -0.4999 -1.8653  1.0750
15854TIP3   OH268976   0.867   4.098  12.111  0.0744 -0.2304  0.4216
15854TIP3    H168977   0.921   4.072  12.186 -0.6823 -0.2132  0.9900
15854TIP3    H268978   0.779   4.106  12.148 -0.0764  1.0437 -0.2038
15855TIP3   OH268979   4.135   6.138   0.993 -0.3188 -0.1448 -0.0265
15855TIP3    H168980   4.224   6.107   0.975 -0.3882 -1.2144  1.4714
15855TIP3    H268981   4.080   6.061   0.980 -0.8240  0.0744  0.8310
15856TIP3   OH268982   2.654   0.931   3.792  0.2141  0.2646 -0.2599
15856TIP3    H168983   2.707   1.010   3.794  1.3910 -0.4176 -2.3600
15856TIP3    H268984   2.644   0.911   3.699 -2.7327 -0.3093  0.1232
15857TIP3   OH268985   4.813   2.067  15.944  0.1506  0.0356  0.5955
15857TIP3    H168986   4.883   2.017  15.903 -0.8345 -0.2889 -0.7409
15857TIP3    H268987   4.796   2.023  16.027 -1.2213 -2.3250 -0.8923
15858TIP3   OH268988   6.478   3.533   3.419  0.7823  0.0231  0.8001
15858TIP3    H168989   6.389   3.558   3.395  1.2727  1.5945  0.5489
15858TIP3    H268990   6.520   3.509   3.336 -0.0161 -2.7663  1.1783
15859TIP3   OH268991   5.281   6.659  12.212 -0.7423  0.6232 -1.1062
15859TIP3    H168992   5.343   6.693  12.147 -0.4434  0.2462 -1.0208
15859TIP3    H268993   5.332   6.652  12.292 -0.9022  0.3286 -1.0297
15860TIP3   OH268994   3.206   5.422  15.600 -0.3653 -0.4772  0.0116
15860TIP3    H168995   3.257   5.341  15.596 -1.0885 -0.8765 -1.7645
15860TIP3    H268996   3.256   5.484  15.547 -0.9471 -0.4372 -0.4981
15861TIP3   OH268997   0.879   1.621  16.552 -0.2985  0.4255 -0.1136
15861TIP3    H168998   0.928   1.540  16.537  1.1055  1.3366 -0.4969
15861TIP3    H268999   0.790   1.591  16.572 -0.1328 -1.1594 -1.5909
15862TIP3   OH269000   4.847   0.247  11.797 -0.1057 -0.4118 -0.5143
15862TIP3    H169001   4.845   0.322  11.857  1.5826 -2.0454  1.6425
15862TIP3    H269002   4.939   0.237  11.773 -0.3689 -1.6082 -1.0590
15863TIP3   OH269003   3.140   3.514  14.708 -0.1133  0.8175  0.3270
15863TIP3    H169004   3.172   3.436  14.754  1.6798  1.3043 -0.0543
15863TIP3    H269005   3.163   3.498  14.617 -0.3763  1.4773  0.1463
15864TIP3   OH269006   3.455   4.480  13.090 -0.0275 -0.7120  0.5115
15864TIP3    H169007   3.424   4.541  13.157 -0.6446  0.6569 -0.9830
15864TIP3    H269008   3.427   4.394  13.120  2.7765 -0.5897  3.8050
15865TIP3   OH269009   0.975   0.379  11.139 -0.4032 -0.3126  0.1168
15865TIP3    H169010   0.922   0.372  11.060 -0.8107  4.2882 -0.1560
15865TIP3    H269011   1.065   0.364  11.109 -0.9485 -2.6588 -0.4182
15866TIP3   OH269012   0.524   2.773  13.436 -0.4034 -0.6338 -0.2441
15866TIP3    H169013   0.596   2.761  13.497 -0.4778  0.2416  0.0294
15866TIP3    H269014   0.470   2.842  13.476  0.7684  1.6001 -2.3964
15867TIP3   OH269015   4.340   2.877  12.603 -0.1613 -0.0057  0.3310
15867TIP3    H169016   4.434   2.861  12.597 -0.3759 -1.3377  0.3658
15867TIP3    H269017   4.332   2.969  12.631  1.1178  0.0757  0.4310
15868TIP3   OH269018   0.124   5.756  15.898  0.1918 -0.2285 -0.2588
15868TIP3    H169019   0.153   5.840  15.862  0.6897 -0.8765 -1.4172
15868TIP3    H269020   0.142   5.693  15.828 -0.3395 -1.2724  0.5320
15869TIP3   OH269021   0.184   3.930   6.466 -0.1283  0.5729 -0.2719
15869TIP3    H169022   0.267   3.960   6.429  0.5814 -0.7671  0.1723
15869TIP3    H269023   0.117   3.966   6.408  0.8862 -0.1188 -1.9256
15870TIP3   OH269024   4.462   3.038  10.842 -0.3647  0.0358  0.4036
15870TIP3    H169025   4.402   2.986  10.788  1.2628  0.2282 -1.6835
15870TIP3    H269026   4.406   3.105  10.882 -1.9014 -1.1624  0.3204
15871TIP3   OH269027   4.815   4.335   5.671 -0.0489  0.6735  0.0593
15871TIP3    H169028   4.903   4.348   5.707 -0.4421  1.5557  0.7084
15871TIP3    H269029   4.759   4.326   5.748 -0.5510  0.2370 -0.3552
15872TIP3   OH269030   0.621   6.634   3.419  0.1592 -0.3238  0.3666
15872TIP3    H169031   0.591   6.565   3.361 -0.9882  1.6653 -1.4874
15872TIP3    H269032   0.692   6.677   3.372 -0.5677  1.1075  0.5262
15873TIP3   OH269033   2.183   0.454   3.338 -0.5053 -0.1058 -0.2354
15873TIP3    H169034   2.131   0.530   3.311 -0.6208 -0.3108 -0.5857
15873TIP3    H269035   2.151   0.434   3.426  0.2566  0.9024  0.2754
15874TIP3   OH269036   6.723   4.686   5.683  0.3988  0.3237 -0.2026
15874TIP3    H169037   6.746   4.631   5.758 -0.0679 -0.3682 -0.5648
15874TIP3    H269038   6.799   4.679   5.625 -0.3146 -1.2353 -0.9821
15875TIP3   OH269039   5.750   1.248  16.135 -0.0629  0.6471  0.1495
15875TIP3    H169040   5.758   1.154  16.150  1.6714  0.4776 -1.6299
15875TIP3    H269041   5.656   1.262  16.121 -0.3914 -0.7440  0.8895
15876TIP3   OH269042   0.677   4.688   4.183  0.3843  0.3999  0.5514
15876TIP3    H169043   0.652   4.725   4.099 -1.2708 -1.9435 -0.0493
15876TIP3    H269044   0.764   4.650   4.168  0.2522  0.3171 -0.0105
15877TIP3   OH269045   1.770   6.534  14.610 -0.1695 -0.6958  0.1901
15877TIP3    H169046   1.702   6.592  14.575 -0.2857 -0.1287  1.3372
15877TIP3    H269047   1.799   6.577  14.690  0.8960 -1.4082  0.1888
15878TIP3   OH269048   4.417   1.125   4.860  0.3515  0.0071  0.7337
15878TIP3    H169049   4.429   1.187   4.788 -0.4868  0.0357  0.6193
15878TIP3    H269050   4.341   1.158   4.907  0.4304 -0.4508  1.1844
15879TIP3   OH269051   5.217   2.595   2.397 -0.4081  0.6504 -0.1936
15879TIP3    H169052   5.136   2.629   2.435 -0.0157  0.2971  0.9756
15879TIP3    H269053   5.194   2.571   2.308 -1.4624  1.0513 -0.0280
15880TIP3   OH269054   5.496   0.915   3.479 -0.3924  0.3905  0.2098
15880TIP3    H169055   5.475   0.934   3.570 -3.1615 -1.1012 -0.0650
15880TIP3    H269056   5.454   0.986   3.430 -0.8818 -0.0774 -0.0505
15881TIP3   OH269057   5.034   3.329  12.089 -0.6086 -0.1261 -0.3215
15881TIP3    H169058   5.076   3.244  12.075  0.7354  0.4122  0.3180
15881TIP3    H269059   4.942   3.308  12.109 -0.3580 -1.3992 -0.4967
15882TIP3   OH269060   2.220   1.755   4.512  0.4437 -0.5742 -0.1761
15882TIP3    H169061   2.179   1.669   4.502  1.6811 -1.0531 -1.4121
15882TIP3    H269062   2.147   1.816   4.521 -0.4242 -1.8545  1.6224
15883TIP3   OH269063   1.108   6.559  13.150 -0.0090  0.5548  0.4342
15883TIP3    H169064   1.013   6.554  13.161 -0.3334  2.2863 -1.3135
15883TIP3    H269065   1.125   6.648  13.120  2.0985  0.0620  0.0194
15884TIP3   OH269066   6.323   5.571  11.955  0.1267 -1.0891 -0.3472
15884TIP3    H169067   6.338   5.514  12.030  1.3757  0.1585  0.3949
15884TIP3    H269068   6.232   5.600  11.964  0.3560 -0.7158  0.8619
15885TIP3   OH269069   4.335   0.597   2.534 -0.0830 -0.1072  0.3066
15885TIP3    H169070   4.427   0.602   2.507 -0.2707 -0.6492 -0.4763
15885TIP3    H269071   4.330   0.519   2.589 -0.0721 -0.0771  0.3502
15886TIP3   OH269072   6.541   4.998   0.119 -0.0075 -0.1218 -0.3356
15886TIP3    H169073   6.594   5.039   0.051 -0.7283 -0.7777 -1.3005
15886TIP3    H269074   6.454   4.991   0.082 -0.0274 -2.0278 -0.0008
15887TIP3   OH269075   3.718   5.143  16.897  0.1982  0.2272 -0.4164
15887TIP3    H169076   3.643   5.197  16.920 -1.4818 -2.3700  0.3542
15887TIP3    H269077   3.766   5.130  16.979 -0.3876 -0.8869 -0.2332
15888TIP3   OH269078   5.854   3.197   0.005  0.2030 -0.2115 -0.6163
15888TIP3    H169079   5.778   3.249  -0.020  0.8889  0.9272 -0.3866
15888TIP3    H269080   5.868   3.218   0.098 -1.1003 -2.8396  0.1932
15889TIP3   OH269081   5.728   2.460  12.635  0.0139  0.6602 -0.4578
15889TIP3    H169082   5.652   2.403  12.642  0.1182  0.5606 -0.1074
15889TIP3    H269083   5.749   2.484  12.725  1.4463 -0.7071 -0.4110
15890TIP3   OH269084   5.724   5.278   2.628 -0.5766 -0.0838 -0.2203
15890TIP3    H169085   5.743   5.185   2.621  0.0929  0.0029  0.3703
15890TIP3    H269086   5.692   5.289   2.718 -0.5924  0.2637 -0.2670
15891TIP3   OH269087   3.749   1.307  12.742 -0.4129  0.0127  0.0062
15891TIP3    H169088   3.679   1.243  12.738 -0.2218 -0.1955  0.0236
15891TIP3    H269089   3.716   1.376  12.800 -0.0704 -0.7341  1.0930
15892TIP3   OH269090   6.570   1.611   2.544 -0.1302  0.0056  0.5914
15892TIP3    H169091   6.488   1.660   2.550 -1.6553 -2.4896  0.7100
15892TIP3    H269092   6.607   1.615   2.632  0.3253  1.8517  0.3337
15893TIP3   OH269093   0.129   5.871   6.534  0.2960 -0.1074 -0.9469
15893TIP3    H169094   0.043   5.831   6.545  1.1687 -1.2267  2.2306
15893TIP3    H269095   0.118   5.962   6.563  0.5649 -0.7106  1.0718
15894TIP3   OH269096   3.254   1.677   2.079  0.4774 -0.2203  0.2908
15894TIP3    H169097   3.284   1.745   2.139  0.7006 -0.8141  0.8533
15894TIP3    H269098   3.164   1.659   2.105  0.2325  0.2398 -0.2108
15895TIP3   OH269099   4.436   3.813  17.099 -0.0078 -0.3569  0.3680
15895TIP3    H169100   4.427   3.874  17.173  0.3337  1.6562 -1.1872
15895TIP3    H269101   4.352   3.819  17.054 -0.4983 -2.1819  1.0104
15896TIP3   OH269102   1.169   4.452  15.092  0.9260  0.4620  0.5805
15896TIP3    H169103   1.135   4.373  15.133 -0.0154 -0.0637 -1.1279
15896TIP3    H269104   1.259   4.431  15.069  0.3894 -0.4872 -0.7394
15897TIP3   OH269105   0.632   1.825  14.638 -0.5639 -0.4455 -0.0453
15897TIP3    H169106   0.708   1.806  14.583 -0.7496  1.6733 -1.0684
15897TIP3    H269107   0.589   1.740  14.650  0.5899 -1.2479 -1.5214
15898TIP3   OH269108   3.445   1.232   0.022 -0.1133  0.1459  0.6647
15898TIP3    H169109   3.358   1.240  -0.017  0.2678  0.5777 -0.1287
15898TIP3    H269110   3.500   1.198  -0.049  0.5056  0.5535  0.9396
15899TIP3   OH269111   0.948   6.708  16.003 -0.2944  0.3189  0.1371
15899TIP3    H169112   1.020   6.691  15.942  0.0765  1.0354  0.3795
15899TIP3    H269113   0.902   6.783  15.966 -0.6192  0.1737  0.2459
15900TIP3   OH269114   6.365   1.098  14.610 -0.0514  0.0933 -0.1518
15900TIP3    H169115   6.277   1.132  14.599 -0.7562 -1.8140 -0.4943
15900TIP3    H269116   6.386   1.055  14.527 -0.2589 -2.6912  1.1725
15901TIP3   OH269117   1.095   2.244   0.547  0.2750 -0.9919  0.6349
15901TIP3    H169118   1.190   2.239   0.539  0.2786  1.6723 -2.0885
15901TIP3    H269119   1.079   2.280   0.634  1.7954 -1.0917  0.9532
15902TIP3   OH269120   2.640   2.401   6.478 -0.1902  0.2693  0.3308
15902TIP3    H169121   2.689   2.320   6.464  0.0233  0.4520 -0.0104
15902TIP3    H269122   2.580   2.381   6.550 -1.6506 -0.8589 -1.1584
15903TIP3   OH269123   4.244   1.544  17.141 -0.4058  0.3811 -0.2160
15903TIP3    H169124   4.335   1.515  17.148 -0.4574  0.2618 -0.0399
15903TIP3    H269125   4.227   1.550  17.047 -0.7951 -1.3694 -0.2623
15904TIP3   OH269126   2.796   1.709   2.682  0.2994 -0.0334 -0.0992
15904TIP3    H169127   2.770   1.791   2.641  2.2032  0.3895 -0.4837
15904TIP3    H269128   2.773   1.641   2.618  0.3496  0.3473 -0.5178
15905TIP3   OH269129   2.865   1.034   5.405 -0.7276  0.1900  0.1492
15905TIP3    H169130   2.864   0.953   5.353  1.4537 -0.0187  0.3961
15905TIP3    H269131   2.933   1.087   5.365  0.3463  0.4106  2.2259
15906TIP3   OH269132   5.231   1.887  17.074 -0.3762  0.3127 -0.4746
15906TIP3    H169133   5.308   1.830  17.071 -0.8513 -0.5070  1.9711
15906TIP3    H269134   5.265   1.972  17.103  0.2341  1.1436 -3.5128
15907TIP3   OH269135   0.591   3.679  15.299 -0.3186  0.4408  0.1009
15907TIP3    H169136   0.606   3.680  15.205  1.0177  0.4423  0.2999
15907TIP3    H269137   0.498   3.657  15.309 -0.4207  0.2562 -1.1996
15908TIP3   OH269138   3.540   3.824  14.598  0.1243  0.3193  0.2199
15908TIP3    H169139   3.531   3.903  14.545  1.6230  0.8861  0.7723
15908TIP3    H269140   3.450   3.795  14.614 -0.4216  1.5876 -0.4631
15909TIP3   OH269141   2.785   2.719  10.659  0.0432  0.1586 -0.5060
15909TIP3    H169142   2.779   2.666  10.579 -0.6017  0.5677 -0.7430
15909TIP3    H269143   2.777   2.656  10.730 -3.7100  0.1903 -0.7852
15910TIP3   OH269144   1.926   2.745  13.537  0.3260 -0.3011  0.9278
15910TIP3    H169145   1.941   2.720  13.446  0.0624  0.4117  0.6853
15910TIP3    H269146   1.951   2.838  13.541 -0.4235 -0.1173  1.3939
15911TIP3   OH269147   0.380   5.185  14.899  0.2302 -0.1546  0.2248
15911TIP3    H169148   0.341   5.270  14.879 -0.6328 -0.6534 -0.2496
15911TIP3    H269149   0.409   5.151  14.814  0.4743 -0.3785  0.3962
15912TIP3   OH269150   5.516   2.436   3.703 -0.3398 -0.0775  0.1804
15912TIP3    H169151   5.437   2.387   3.681 -0.6187  0.8107 -0.8477
15912TIP3    H269152   5.506   2.458   3.796 -1.0642 -0.3934  0.1788
15913TIP3   OH269153   4.135   1.603   1.083 -0.1689 -0.1168 -0.3444
15913TIP3    H169154   4.141   1.542   1.009 -3.4084 -1.7185  0.6562
15913TIP3    H269155   4.139   1.548   1.161  2.7240  1.5266  0.7485
15914TIP3   OH269156   6.398   4.773  13.178  0.2378  0.1303  0.3161
15914TIP3    H169157   6.347   4.850  13.201 -1.1450 -0.5698 -0.3296
15914TIP3    H269158   6.335   4.714  13.136  1.0501 -1.7202  1.5846
15915TIP3   OH269159   2.453   3.535   1.317 -0.4254  0.7623  0.0105
15915TIP3    H169160   2.546   3.511   1.318 -0.0749  2.0977 -0.0911
15915TIP3    H269161   2.432   3.548   1.225 -0.9499 -0.4144 -0.0432
15916TIP3   OH269162   0.558   4.281  11.080  0.0038  0.3836  0.2711
15916TIP3    H169163   0.519   4.214  11.023  1.3964 -0.2803  0.0718
15916TIP3    H269164   0.587   4.350  11.020 -0.1624  0.5103  0.3384
15917TIP3   OH269165   1.891   4.861  14.851 -0.0124  0.1038 -0.0604
15917TIP3    H169166   1.893   4.786  14.791 -0.9944 -1.0043  1.2690
15917TIP3    H269167   1.983   4.881  14.866  0.2527  0.1157 -1.5743
15918TIP3   OH269168   5.999   5.450  16.323  0.3528 -0.1427 -0.1972
15918TIP3    H169169   6.045   5.494  16.395  1.1797 -0.1331 -0.7293
15918TIP3    H269170   6.056   5.461  16.248 -0.3382 -0.4852 -0.7756
15919TIP3   OH269171   5.579   2.182  14.713 -0.2569  0.0852 -0.6324
15919TIP3    H169172   5.644   2.129  14.760  0.1287 -0.7506 -2.0693
15919TIP3    H269173   5.496   2.137  14.727 -0.5543  1.1123  1.1427
15920TIP3   OH269174   0.919   0.010   5.230  0.1243  0.3322  0.4520
15920TIP3    H169175   0.852  -0.057   5.220  0.5791 -0.0592  0.0401
15920TIP3    H269176   0.947   0.031   5.141  1.6048 -0.5820  0.6826
15921TIP3   OH269177   4.541   0.691   2.754  0.1307  0.2246 -0.2221
15921TIP3    H169178   4.564   0.697   2.662 -0.8624 -1.0215 -0.5676
15921TIP3    H269179   4.448   0.668   2.754  0.6371 -1.9003  1.0658
15922TIP3   OH269180   0.916   6.277  11.374 -0.5407 -0.3887  0.0154
15922TIP3    H169181   0.899   6.213  11.305 -1.0365  1.2175 -1.4057
15922TIP3    H269182   0.831   6.291  11.415 -0.1466 -1.7343  1.3350
15923TIP3   OH269183   4.666   5.194  13.036 -0.1747 -0.2310 -0.3136
15923TIP3    H169184   4.702   5.209  12.948  0.3230 -2.0700 -0.4331
15923TIP3    H269185   4.618   5.112  13.028 -2.2722  0.8720  0.5076
15924TIP3   OH269186   1.149   5.583  13.730  0.3464 -0.1225 -0.6395
15924TIP3    H169187   1.228   5.541  13.764  0.6372  2.1366  1.5665
15924TIP3    H269188   1.162   5.676  13.745 -1.9052  0.4663 -2.0501
15925TIP3   OH269189   4.313   5.229   4.436 -0.5558  0.0738 -0.4213
15925TIP3    H169190   4.407   5.249   4.445 -0.7139  0.6428 -0.0162
15925TIP3    H269191   4.311   5.153   4.379  0.1483  0.2106 -0.6431
15926TIP3   OH269192   4.609   2.171   2.739  0.0187  0.1316  0.2405
15926TIP3    H169193   4.641   2.165   2.649 -1.3787 -2.5419 -0.1254
15926TIP3    H269194   4.677   2.130   2.792  0.7456  1.5218  0.4243
15927TIP3   OH269195   1.609   1.310   2.148 -0.3823  0.5425  0.1363
15927TIP3    H169196   1.646   1.387   2.105 -1.7150  1.4808  0.6138
15927TIP3    H269197   1.583   1.252   2.077  2.5986 -0.4743 -0.2094
15928TIP3   OH269198   5.129   6.506  11.767  0.0523  0.2077 -0.2414
15928TIP3    H169199   5.165   6.479  11.852 -3.9209  0.0626  1.4861
15928TIP3    H269200   5.125   6.602  11.772 -0.8711  0.1590  0.0524
15929TIP3   OH269201   4.426   2.951   3.122  0.3204 -0.1121 -0.6957
15929TIP3    H169202   4.342   2.935   3.165  0.7311  1.0481  0.5667
15929TIP3    H269203   4.484   2.979   3.192  1.8448 -1.1411 -1.5191
15930TIP3   OH269204   1.435   2.957   4.142  0.3983  0.6073  0.1741
15930TIP3    H169205   1.516   2.976   4.095 -0.1616  2.6066 -0.0432
15930TIP3    H269206   1.408   2.871   4.111  1.9407  0.3259 -0.4370
15931TIP3   OH269207   5.144   4.680  16.779 -0.5043  0.1579  0.2327
15931TIP3    H169208   5.147   4.705  16.871 -1.7113  0.3288  0.2268
15931TIP3    H269209   5.116   4.588  16.780  0.3173 -0.1058  0.0678
15932TIP3   OH269210   4.258   3.538   2.996  0.2413  0.9406 -0.3243
15932TIP3    H169211   4.325   3.520   3.062  1.1406  0.4982 -1.3488
15932TIP3    H269212   4.243   3.632   3.002 -0.6119  0.7290  1.3720
15933TIP3   OH269213   6.422   1.773  12.089  0.3527 -0.1132 -0.0149
15933TIP3    H169214   6.452   1.700  12.035 -3.0063 -1.1166 -0.6487
15933TIP3    H269215   6.396   1.732  12.172 -0.3706  0.5232  0.0770
15934TIP3   OH269216   5.338   2.379   3.472  0.0703  0.1531 -0.3563
15934TIP3    H169217   5.302   2.447   3.529  2.1966 -0.6714  2.1067
15934TIP3    H269218   5.293   2.390   3.389 -0.1668  4.0779  0.2110
15935TIP3   OH269219   0.924   4.679  16.325  0.3863 -0.0259 -0.4043
15935TIP3    H169220   0.911   4.659  16.232 -0.3769  1.9745 -0.7429
15935TIP3    H269221   1.018   4.690  16.334  0.6216 -1.7073 -0.6215
15936TIP3   OH269222   2.677   5.242  16.542  0.1840  0.7361 -0.8251
15936TIP3    H169223   2.612   5.274  16.604  0.4273  1.0425 -0.7283
15936TIP3    H269224   2.715   5.165  16.585 -2.3098 -1.3457 -2.2308
15937TIP3   OH269225   3.871   1.135  13.968 -0.0219 -0.2844 -0.9132
15937TIP3    H169226   3.816   1.169  13.898  2.5600  0.8942 -2.4183
15937TIP3    H269227   3.901   1.212  14.016  0.1686 -0.9296  0.0391
15938TIP3   OH269228   0.146   0.633  13.113 -0.3689 -0.3027  0.0812
15938TIP3    H169229   0.061   0.592  13.093  0.6802 -2.8632  0.6253
15938TIP3    H269230   0.129   0.689  13.188 -1.4910 -1.2821  0.5779
15939TIP3   OH269231   4.653   3.580   1.135  0.2347  0.4267 -0.0758
15939TIP3    H169232   4.565   3.552   1.110  0.4818  0.1172 -0.5963
15939TIP3    H269233   4.696   3.600   1.053  1.3173 -1.4009  0.0239
15940TIP3   OH269234   0.700   2.022   3.371  0.0289  0.5053 -0.0047
15940TIP3    H169235   0.628   2.080   3.395  0.7391  1.8314 -1.0520
15940TIP3    H269236   0.749   2.011   3.453 -1.1662 -0.1771  0.6486
15941TIP3   OH269237   4.606   5.618   2.396  0.3127 -0.1610 -0.1067
15941TIP3    H169238   4.547   5.693   2.390 -0.3676 -0.3941  2.8801
15941TIP3    H269239   4.550   5.544   2.418  1.4178 -0.8905  0.3149
15942TIP3   OH269240   6.602   3.954   0.957 -0.4402  0.0755 -0.1924
15942TIP3    H169241   6.568   3.880   1.007 -1.0988  0.3224 -0.2712
15942TIP3    H269242   6.687   3.973   0.996  0.0024 -1.1125 -0.5684
15943TIP3   OH269243   4.604   1.877   4.588 -0.4771  0.0651 -0.4016
15943TIP3    H169244   4.668   1.825   4.541  0.9161  0.4263  1.0629
15943TIP3    H269245   4.638   1.883   4.677 -1.4039  2.1669 -0.1653
15944TIP3   OH269246   3.874   2.856   4.285 -0.1202  0.4517 -0.2649
15944TIP3    H169247   3.948   2.911   4.310 -0.6030  0.5149  1.0623
15944TIP3    H269248   3.912   2.789   4.228  0.9900  0.3857  0.5235
15945TIP3   OH269249   1.174   4.770   1.884 -0.7293  0.0012 -0.0566
15945TIP3    H169250   1.237   4.799   1.950 -1.0487  0.1294  0.1928
15945TIP3    H269251   1.210   4.802   1.801 -2.0792  2.8908  0.4003
15946TIP3   OH269252   5.214   6.467   6.189 -0.0578 -0.1827 -0.6302
15946TIP3    H169253   5.150   6.397   6.206 -0.4318  0.8658  2.7320
15946TIP3    H269254   5.298   6.422   6.187 -0.4243 -0.9233  0.1888
15947TIP3   OH269255   4.501   1.576   4.702 -0.4059 -0.4223  0.0375
15947TIP3    H169256   4.592   1.567   4.731 -0.3901 -0.0801  0.0925
15947TIP3    H269257   4.450   1.563   4.782 -0.4676 -2.1105 -0.2613
15948TIP3   OH269258   6.344   3.197   4.024  0.6880 -0.1126  0.0105
15948TIP3    H169259   6.315   3.134   4.090  0.0535 -0.9429 -1.0346
15948TIP3    H269260   6.316   3.282   4.059 -0.0668 -0.5868  0.5906
15949TIP3   OH269261   4.167   3.152   5.263  0.4619 -0.0652  0.5860
15949TIP3    H169262   4.235   3.215   5.240 -0.3845  1.0119  0.9985
15949TIP3    H269263   4.084   3.199   5.249 -0.1646 -0.8938  1.4230
15950TIP3   OH269264   3.730   5.892  11.514  0.4089  0.2553  0.0362
15950TIP3    H169265   3.671   5.925  11.446  0.1829  0.0183  0.1211
15950TIP3    H269266   3.818   5.907  11.478  0.2788 -0.4126 -0.5587
15951TIP3   OH269267   1.433   6.302   0.190 -0.4907 -0.0781 -0.3856
15951TIP3    H169268   1.387   6.219   0.178 -0.7620  0.1337 -0.8716
15951TIP3    H269269   1.510   6.295   0.134  0.4940 -0.7446  1.0534
15952TIP3   OH269270   4.228   4.373  16.709  0.3303  0.3721 -0.4658
15952TIP3    H169271   4.322   4.388  16.712  0.1427  1.3701  1.0400
15952TIP3    H269272   4.194   4.443  16.654  0.4046  0.3131 -0.5876
15953TIP3   OH269273   2.504   3.857   3.110  0.1921  0.0547 -0.1478
15953TIP3    H169274   2.486   3.946   3.142  0.4522  0.0468  0.0253
15953TIP3    H269275   2.426   3.807   3.134  0.1567  0.1760 -0.0054
15954TIP3   OH269276   3.633   3.145   1.629 -0.0596 -0.5781  0.2004
15954TIP3    H169277   3.666   3.061   1.661 -0.8605  0.1352  3.0392
15954TIP3    H269278   3.710   3.201   1.624  0.2714 -1.0830 -0.4016
15955TIP3   OH269279   3.836   3.593   3.671  0.5901  0.1350  0.6994
15955TIP3    H169280   3.894   3.609   3.596 -1.5110  0.3850 -0.9227
15955TIP3    H269281   3.779   3.670   3.674 -0.0678 -0.3845  1.8894
15956TIP3   OH269282   4.678   1.594   5.342 -0.3291 -0.2937 -0.0827
15956TIP3    H169283   4.658   1.602   5.435 -1.7872  0.4092 -0.4513
15956TIP3    H269284   4.735   1.517   5.336 -2.0500 -1.6857  1.1316
15957TIP3   OH269285   3.903   2.606   4.170 -0.2275  0.0260 -0.2450
15957TIP3    H169286   3.912   2.551   4.092  1.4073  0.5576 -0.4505
15957TIP3    H269287   3.816   2.586   4.204 -0.4460 -1.1626 -1.4821
15958TIP3   OH269288   0.794   6.053   0.838  0.8124  0.7568 -0.1510
15958TIP3    H169289   0.809   5.996   0.762 -1.2931  0.9366 -0.7233
15958TIP3    H269290   0.716   6.018   0.880  1.3339  1.3263  1.3417
15959TIP3   OH269291   3.504   3.402  12.385 -0.1023 -0.3323 -0.1431
15959TIP3    H169292   3.512   3.486  12.430 -2.3982 -0.3848  0.4512
15959TIP3    H269293   3.469   3.424  12.299 -1.5366 -0.7153  0.3213
15960TIP3   OH269294   3.453   0.151   2.120  0.4972 -0.2406  0.2513
15960TIP3    H169295   3.434   0.067   2.161 -2.3219 -0.8417 -2.1712
15960TIP3    H269296   3.383   0.209   2.149  0.3067  0.2241 -1.0942
15961TIP3   OH269297   4.459   4.766   0.414 -0.2261 -0.7270  0.3777
15961TIP3    H169298   4.509   4.685   0.426 -1.5403 -1.3742  1.6555
15961TIP3    H269299   4.380   4.753   0.466 -1.4440  0.5249 -1.1128
15962TIP3   OH269300   5.436   2.487  16.726  0.5815 -0.1329  0.1631
15962TIP3    H169301   5.405   2.479  16.636 -0.3493  0.4946  0.4232
15962TIP3    H269302   5.453   2.397  16.754  1.7489 -0.2743 -0.9326
15963TIP3   OH269303   3.755   6.620  14.696  0.2121  0.0710 -0.3206
15963TIP3    H169304   3.758   6.708  14.659  0.0966  0.2373  0.0591
15963TIP3    H269305   3.847   6.593  14.701  0.1238 -0.8406 -2.7858
15964TIP3   OH269306   6.628   2.342   0.664  0.2378  0.4290  0.3854
15964TIP3    H169307   6.598   2.276   0.727 -0.9566  0.0008 -0.6043
15964TIP3    H269308   6.690   2.295   0.608 -0.9410  0.0158 -0.5900
15965TIP3   OH269309   0.494   3.534   1.346 -0.8306 -0.8048  0.2974
15965TIP3    H169310   0.585   3.528   1.376 -0.1821 -0.5112 -1.5586
15965TIP3    H269311   0.471   3.444   1.322 -0.0551 -0.4348 -1.9483
15966TIP3   OH269312   1.892   4.440  12.363  0.4868 -0.1679 -0.0362
15966TIP3    H169313   1.983   4.414  12.346  0.4243 -0.5337  0.1851
15966TIP3    H269314   1.846   4.418  12.282  1.0161  2.0566 -0.9699
15967TIP3   OH269315   0.397   5.035  16.348 -0.2543  0.2114  0.3591
15967TIP3    H169316   0.418   5.043  16.255 -1.3131 -2.7007 -0.2056
15967TIP3    H269317   0.464   4.975  16.382  0.1424  1.2823  1.4871
15968TIP3   OH269318   0.487   3.395  12.077  0.8600 -0.0190 -0.5334
15968TIP3    H169319   0.510   3.449  12.001 -0.2337  0.3230 -0.6225
15968TIP3    H269320   0.552   3.420  12.144  1.2146  0.3924 -1.0250
15969TIP3   OH269321   5.149   3.423  10.941 -0.0067 -0.4441  0.0397
15969TIP3    H169322   5.135   3.483  10.868 -3.1038  0.6589  1.4299
15969TIP3    H269323   5.086   3.352  10.927  2.4154 -2.5444 -0.6438
15970TIP3   OH269324   0.763   4.804  13.447  0.3406 -0.1055 -0.0114
15970TIP3    H169325   0.730   4.717  13.425  0.3089 -0.1659  0.2713
15970TIP3    H269326   0.707   4.864  13.397 -0.5838 -0.1761  0.9222
15971TIP3   OH269327   1.427   0.474   1.129 -0.2839 -0.1458 -0.3212
15971TIP3    H169328   1.490   0.543   1.109 -0.9358  0.6239  0.1922
15971TIP3    H269329   1.480   0.402   1.163  0.2750  0.7725  0.8336
15972TIP3   OH269330   6.338   5.128  14.420  0.1124  0.0532 -0.2452
15972TIP3    H169331   6.257   5.165  14.385 -0.2077  0.3433  0.7810
15972TIP3    H269332   6.343   5.162  14.510 -0.4762 -2.8293  0.9321
15973TIP3   OH269333   3.567   0.090   5.959  0.3007 -0.7919  0.2974
15973TIP3    H169334   3.557   0.182   5.933 -0.3149 -0.7165  0.7709
15973TIP3    H269335   3.619   0.094   6.039 -0.8980 -0.7400  1.0941
15974TIP3   OH269336   5.240   6.211   3.183  0.3855  0.1177  0.0504
15974TIP3    H169337   5.227   6.274   3.254 -0.6674 -0.1408  0.0984
15974TIP3    H269338   5.159   6.160   3.181  0.8642 -0.6309 -0.5919
15975TIP3   OH269339   0.693   1.269  14.247  0.2368 -0.7979 -1.0255
15975TIP3    H169340   0.661   1.215  14.319 -0.5542  0.4316 -0.4251
15975TIP3    H269341   0.673   1.359  14.274  2.5924 -0.1193 -1.4683
15976TIP3   OH269342   0.758   6.208  11.719  0.2924  0.0955 -0.0769
15976TIP3    H169343   0.835   6.254  11.752  1.1067 -0.1609 -1.5868
15976TIP3    H269344   0.719   6.268  11.656 -0.5017  0.0348  0.3419
15977TIP3   OH269345   1.699   5.333  12.577  0.1725 -0.4272  0.3613
15977TIP3    H169346   1.622   5.326  12.521 -0.3802  0.6044  0.9642
15977TIP3    H269347   1.713   5.427  12.587  0.4925 -0.6010  1.6338
15978TIP3   OH269348   2.572   1.450   3.923  0.1299 -0.1836 -0.0360
15978TIP3    H169349   2.610   1.455   3.835 -0.6215 -0.7288 -0.3972
15978TIP3    H269350   2.482   1.482   3.913  0.1195  0.0013  0.5898
15979TIP3   OH269351   2.218   1.469  15.769 -0.0450 -0.8640 -0.2281
15979TIP3    H169352   2.131   1.492  15.739  0.3854  1.2927  0.1403
15979TIP3    H269353   2.208   1.380  15.804 -1.7701 -1.1732 -1.4463
15980TIP3   OH269354   5.882   3.363  16.358 -0.7610 -0.2755  0.1894
15980TIP3    H169355   5.912   3.285  16.405  0.3875  0.5709  0.9028
15980TIP3    H269356   5.956   3.389  16.304 -1.9397 -0.9934 -1.8136
15981TIP3   OH269357   2.774   2.975   3.590  0.4550 -1.0510  0.5333
15981TIP3    H169358   2.721   3.035   3.643 -0.3482 -1.6490  0.4107
15981TIP3    H269359   2.780   2.896   3.644  2.1760 -0.6104  1.0494
15982TIP3   OH269360   6.323   5.812   3.876  0.5461  0.8298  0.0795
15982TIP3    H169361   6.234   5.785   3.853  0.3636  1.1853  0.3523
15982TIP3    H269362   6.311   5.875   3.948  0.9665  1.6014 -0.5161
15983TIP3   OH269363   3.929   3.277   4.289  0.1148  0.2991  0.0157
15983TIP3    H169364   4.004   3.336   4.295 -2.3149  3.3163  1.9294
15983TIP3    H269365   3.917   3.244   4.378 -1.4793  0.7128 -0.0270
15984TIP3   OH269366   5.306   4.245  14.197  0.4104  0.3832  0.4261
15984TIP3    H169367   5.398   4.247  14.221  0.4551 -0.0611  0.2845
15984TIP3    H269368   5.285   4.152  14.187  0.0356  0.4972  0.1291
15985TIP3   OH269369   4.322   4.337   4.395 -0.0752  0.0493 -0.0374
15985TIP3    H169370   4.258   4.408   4.396 -0.7588 -0.5617  0.4701
15985TIP3    H269371   4.270   4.258   4.376  0.5384 -0.4368  0.2812
15986TIP3   OH269372   2.618   2.571   2.685 -0.4434  0.9040  0.4071
15986TIP3    H169373   2.661   2.568   2.600 -2.1197  0.6138 -0.4511
15986TIP3    H269374   2.614   2.480   2.713 -1.3286  0.8238  0.0435
15987TIP3   OH269375   6.356   3.087   5.334 -0.0288 -1.1821  0.7148
15987TIP3    H169376   6.347   3.164   5.391  1.9514  0.0505 -0.5724
15987TIP3    H269377   6.435   3.043   5.365  1.4837 -0.0978 -1.4669
15988TIP3   OH269378   3.520   2.846  16.974 -0.2758 -0.2654 -0.9327
15988TIP3    H169379   3.590   2.798  16.929  0.5397  0.9024 -0.9078
15988TIP3    H269380   3.491   2.786  17.043  0.1840 -1.0486 -1.4089
15989TIP3   OH269381   4.588   5.253   2.948 -0.3383  0.0155 -0.0529
15989TIP3    H169382   4.582   5.186   2.880  0.4725 -0.2734  0.1466
15989TIP3    H269383   4.626   5.329   2.904 -1.2568  0.3503 -0.2791
15990TIP3   OH269384   0.826   0.523   2.820 -0.0032 -0.3114  0.3177
15990TIP3    H169385   0.774   0.453   2.858  0.2655 -0.2298  0.8370
15990TIP3    H269386   0.913   0.485   2.806  0.3136  0.0987  1.1693
15991TIP3   OH269387   0.423   4.984   2.885 -0.2901  0.6172 -0.1631
15991TIP3    H169388   0.403   4.986   2.978 -0.1129  1.0577 -0.1320
15991TIP3    H269389   0.344   5.020   2.843 -0.2063  0.8126 -0.1536
15992TIP3   OH269390   0.191   4.178   3.463 -0.0414 -0.0935  0.2403
15992TIP3    H169391   0.118   4.239   3.464  0.3021  0.3757 -1.4740
15992TIP3    H269392   0.161   4.103   3.411  0.1445 -0.6190  0.8716
15993TIP3   OH269393   2.687   3.244  12.403 -0.1801  0.1851 -0.0927
15993TIP3    H169394   2.637   3.162  12.408  0.5114 -0.2427 -0.1521
15993TIP3    H269395   2.647   3.292  12.330 -0.3947 -0.2307 -0.2484
15994TIP3   OH269396   2.083   6.722  14.612 -0.2588 -0.2745 -0.0158
15994TIP3    H169397   1.992   6.745  14.632 -0.1255  0.6386 -0.4319
15994TIP3    H269398   2.077   6.638  14.567 -0.8648 -0.4136  0.3140
15995TIP3   OH269399   2.028   6.033  13.146  0.0373  0.1882  0.1563
15995TIP3    H169400   1.964   5.991  13.088 -0.1432 -1.5405  1.5614
15995TIP3    H269401   2.109   6.034  13.096 -0.1754 -1.0577 -0.2268
15996TIP3   OH269402   0.175   0.163  16.245 -0.6012 -0.0641 -0.2614
15996TIP3    H169403   0.203   0.127  16.161 -0.6635 -0.5472 -0.0779
15996TIP3    H269404   0.193   0.093  16.308 -0.6741  0.2470  0.1069
15997TIP3   OH269405   6.395   5.526   1.171 -0.3401  0.5468 -0.3157
15997TIP3    H169406   6.398   5.528   1.267 -0.3082  2.2843 -0.3288
15997TIP3    H269407   6.365   5.614   1.147  0.5441  0.4193 -1.9257
15998TIP3   OH269408   6.637   6.088   2.033 -0.0803 -0.1266  0.0800
15998TIP3    H169409   6.666   6.140   1.958  0.0162 -0.2308  0.0445
15998TIP3    H269410   6.639   5.997   2.002 -0.1345 -0.1618  0.1781
15999TIP3   OH269411   0.279   5.552   0.293  0.6970  0.6790  0.0506
15999TIP3    H169412   0.371   5.527   0.278  0.1715 -0.6108 -1.1787
15999TIP3    H269413   0.240   5.551   0.206 -1.0257 -0.9589  0.8164
16000TIP3   OH269414   4.170   3.064  11.528  0.0766  0.2715 -0.2030
16000TIP3    H169415   4.154   2.970  11.538  2.1761 -0.1349 -0.3833
16000TIP3    H269416   4.226   3.087  11.603 -1.7796  1.7573  0.7799
16001TIP3   OH269417   6.745   2.817  12.823  0.0738 -0.3073  0.1560
16001TIP3    H169418   6.701   2.851  12.745  2.0905  1.8653 -0.1030
16001TIP3    H269419   6.700   2.735  12.842  0.1038 -1.3640 -3.8219
16002TIP3   OH269420   5.843   0.259  16.048  0.0192 -0.7219  0.2575
16002TIP3    H169421   5.903   0.230  15.979  0.9060  0.6553  0.4080
16002TIP3    H269422   5.901   0.279  16.122 -0.9126 -2.1313  1.4018
16003TIP3   OH269423   6.022   0.817   2.667 -0.2200  0.0748 -0.4350
16003TIP3    H169424   6.040   0.820   2.761  3.1772  0.6424 -1.0261
16003TIP3    H269425   6.037   0.726   2.642  0.2549  0.2073 -0.6474
16004TIP3   OH269426   2.448   2.602  15.228 -0.0460  0.0225  0.2931
16004TIP3    H169427   2.364   2.645  15.239  0.1035  0.1623  0.9104
16004TIP3    H269428   2.502   2.636  15.299  0.3462 -0.5273  0.2630
16005TIP3   OH269429   5.371   6.607   1.411 -0.3368  0.6225 -0.3724
16005TIP3    H169430   5.292   6.660   1.401 -0.4673  0.2767 -1.2281
16005TIP3    H269431   5.421   6.623   1.330 -0.3495 -0.5077 -0.6043
16006TIP3   OH269432   4.896   5.630   3.992 -0.1048  0.2509  0.1175
16006TIP3    H169433   4.910   5.624   4.087  0.3713 -0.6593 -0.0051
16006TIP3    H269434   4.969   5.581   3.954 -0.6182  0.1138 -0.7005
16007TIP3   OH269435   2.483   5.429   0.921 -0.0328  0.7813 -0.4306
16007TIP3    H169436   2.421   5.365   0.955  1.0120  0.8188  1.6547
16007TIP3    H269437   2.489   5.410   0.827 -0.1914 -1.7743  0.0501
16008TIP3   OH269438   5.967   4.019   4.955  0.0504 -0.2816  0.6926
16008TIP3    H169439   5.972   3.946   5.017 -1.9504 -0.8609  0.2294
16008TIP3    H269440   6.043   4.073   4.974  0.9899 -1.9487  1.7565
16009TIP3   OH269441   5.582   5.359  12.310  0.1846  0.2706 -0.6973
16009TIP3    H169442   5.627   5.443  12.305 -0.0251  0.3430 -1.3429
16009TIP3    H269443   5.512   5.373  12.374  0.5747  0.3842 -0.2872
16010TIP3   OH269444   6.313   6.633   0.160 -0.0623  0.6897 -0.2653
16010TIP3    H169445   6.360   6.701   0.208  0.5578  0.4040 -0.4627
16010TIP3    H269446   6.277   6.678   0.083  1.5073  0.5213 -1.1212
16011TIP3   OH269447   6.696   5.956  12.846 -0.2107 -0.1482 -0.0657
16011TIP3    H169448   6.664   5.992  12.929  1.2757 -0.3436  0.5974
16011TIP3    H269449   6.734   5.871  12.870  1.0443  0.1937 -0.8012
16012TIP3   OH269450   5.126   1.585  13.329 -0.7518  0.1548 -0.4406
16012TIP3    H169451   5.221   1.591  13.340 -0.6042 -1.1433 -0.8537
16012TIP3    H269452   5.090   1.631  13.404  0.2151 -0.5722  0.4748
16013TIP3   OH269453   3.641   2.553   3.095 -0.7360  0.3767 -0.2686
16013TIP3    H169454   3.734   2.540   3.112 -1.0023 -1.6980 -0.2398
16013TIP3    H269455   3.635   2.638   3.053  1.1362  0.6635  0.0360
16014TIP3   OH269456   0.244   2.268   4.728 -0.7591 -0.0675  0.2335
16014TIP3    H169457   0.298   2.346   4.739  0.5768 -0.6803 -1.5904
16014TIP3    H269458   0.233   2.233   4.816  2.4376 -0.3049  0.6182
16015TIP3   OH269459   1.140   1.591  11.190 -0.2778  0.0838 -0.3415
16015TIP3    H169460   1.227   1.580  11.151 -0.8343 -1.0740 -1.2839
16015TIP3    H269461   1.095   1.652  11.131 -0.2696  0.2897 -0.1349
16016TIP3   OH269462   1.043   6.780   2.927 -0.0833 -0.5495 -0.3688
16016TIP3    H169463   1.123   6.831   2.914  0.7332 -1.4684  0.9517
16016TIP3    H269464   1.073   6.690   2.938 -1.3165 -0.9248 -0.0322
16017TIP3   OH269465   5.485   6.685  12.396  0.4828  0.0750  0.4562
16017TIP3    H169466   5.506   6.640  12.478 -0.6925  0.9211  1.2401
16017TIP3    H269467   5.454   6.771  12.423  0.1305  0.3833 -0.8831
16018TIP3   OH269468   2.180   6.766   4.344 -0.2150 -0.2003  0.2027
16018TIP3    H169469   2.136   6.828   4.403  0.0896  2.4922 -2.2664
16018TIP3    H269470   2.117   6.752   4.273  1.3626  0.6867 -1.4246
16019TIP3   OH269471   0.767   0.928   0.661 -0.4370 -0.2717  0.2381
16019TIP3    H169472   0.768   0.843   0.705 -0.0297 -0.6555 -0.5155
16019TIP3    H269473   0.823   0.984   0.716 -0.6117 -0.5124  0.6693
16020TIP3   OH269474   2.856   0.891  12.993  0.6235  0.1281 -0.0142
16020TIP3    H169475   2.915   0.817  13.001 -0.8972 -0.9993  1.1393
16020TIP3    H269476   2.875   0.929  12.907  1.1357 -1.8454 -0.7864
16021TIP3   OH269477   3.629   6.069   3.521  0.0290  0.4838  0.6163
16021TIP3    H169478   3.615   6.079   3.427  1.1798  0.3841  0.4224
16021TIP3    H269479   3.565   6.128   3.562 -0.7398  0.2283 -0.2121
16022TIP3   OH269480   5.757   4.723  12.932  0.2708 -0.2140  0.0081
16022TIP3    H169481   5.764   4.641  12.882 -1.0536  0.3783 -1.1827
16022TIP3    H269482   5.783   4.791  12.870  1.0895  0.2965  0.9102
16023TIP3   OH269483   5.031   0.687   4.195  0.0984  0.1024  0.1679
16023TIP3    H169484   5.017   0.729   4.110  1.0656  1.6953  0.7746
16023TIP3    H269485   5.093   0.616   4.177 -0.1873  0.0289 -0.5581
16024TIP3   OH269486   5.344   4.470   0.303 -0.4204 -0.3237 -0.1775
16024TIP3    H169487   5.416   4.467   0.366 -0.3027 -1.5801 -0.3542
16024TIP3    H269488   5.335   4.562   0.281  1.2358 -0.1753 -0.2582
16025TIP3   OH269489   4.756   1.568   3.590  0.1883 -0.5643 -0.4045
16025TIP3    H169490   4.705   1.617   3.525 -0.5874 -2.0732 -0.9661
16025TIP3    H269491   4.760   1.626   3.666 -1.4655  0.0143 -0.7322
16026TIP3   OH269492   3.106   6.235  11.697  0.5083  0.8326 -0.2802
16026TIP3    H169493   3.088   6.245  11.604 -0.3154 -1.1163 -0.3498
16026TIP3    H269494   3.026   6.199  11.734  2.3035 -2.7173  0.3639
16027TIP3   OH269495   6.635   4.001   2.514 -0.1473  0.7983 -0.4581
16027TIP3    H169496   6.595   4.019   2.599 -1.2582 -0.7939 -0.5996
16027TIP3    H269497   6.729   4.011   2.528 -0.5605  5.1266 -0.2388
16028TIP3   OH269498   6.524   5.257  14.868  0.7037  0.1013 -0.4989
16028TIP3    H169499   6.480   5.195  14.926 -0.5045  0.4001 -1.0732
16028TIP3    H269500   6.617   5.241  14.881  0.4173 -0.8293  0.4379
16029TIP3   OH269501   6.429   2.413  15.140 -0.6850 -0.3617  0.2070
16029TIP3    H169502   6.477   2.438  15.060  0.2341 -2.2172  0.1651
16029TIP3    H269503   6.389   2.329  15.118 -0.3315 -0.9389  1.7427
16030TIP3   OH269504   3.790   4.046   5.792  0.1761  0.1260  0.5509
16030TIP3    H169505   3.800   4.110   5.863  1.8944  0.4315  0.0686
16030TIP3    H269506   3.751   3.969   5.833 -1.7196  1.4005  1.1847
16031TIP3   OH269507   2.462   1.201  16.377 -0.0920 -0.3647 -0.1591
16031TIP3    H169508   2.480   1.208  16.283 -3.2288  0.3766 -0.7417
16031TIP3    H269509   2.414   1.119  16.387 -1.0282  0.2676  0.6066
16032TIP3   OH269510   2.994   4.107  12.004 -0.0067  0.1152 -0.4582
16032TIP3    H169511   3.061   4.039  12.011 -1.2540 -1.1664 -0.6635
16032TIP3    H269512   2.911   4.060  12.015 -0.9757  1.3322 -2.2064
16033TIP3   OH269513   5.374   6.134   4.069  0.7910 -0.3259 -0.5388
16033TIP3    H169514   5.353   6.111   4.160 -0.1615 -0.2293 -0.7273
16033TIP3    H269515   5.429   6.062   4.038  2.4665  0.4263  0.6090
16034TIP3   OH269516   5.693   3.558   4.815 -0.7005 -0.2970 -0.3675
16034TIP3    H169517   5.760   3.597   4.872 -1.4630  1.7786 -0.8363
16034TIP3    H269518   5.729   3.473   4.791  0.5526 -0.3389  1.5610
16035TIP3   OH269519   0.848   3.070  11.067 -0.3121  0.0427 -0.1671
16035TIP3    H169520   0.907   3.067  10.992  1.3930 -0.7633  1.1749
16035TIP3    H269521   0.763   3.044  11.032  0.8627 -2.2105 -1.4551
16036TIP3   OH269522   1.606   1.710   0.589  0.6195  0.8172 -0.1361
16036TIP3    H169523   1.676   1.672   0.536 -0.2476  0.1654 -0.8369
16036TIP3    H269524   1.544   1.746   0.525  1.5086  3.6234  0.5042
16037TIP3   OH269525   0.506   4.703  14.815  0.4409 -0.1631 -0.6022
16037TIP3    H169526   0.515   4.626  14.871 -0.5230  0.1892  0.0490
16037TIP3    H269527   0.430   4.750  14.850  2.5742  2.4993  0.6988
16038TIP3   OH269528   0.105   5.544   2.460 -0.9424 -0.3635  1.0121
16038TIP3    H169529   0.117   5.528   2.553 -1.3545 -1.4092  0.8933
16038TIP3    H269530   0.020   5.504   2.439 -0.0480 -1.7246 -0.1559
16039TIP3   OH269531   0.923   5.227  14.430  0.2579 -0.0783 -0.3107
16039TIP3    H169532   0.894   5.208  14.519 -1.1235 -1.5499 -1.0613
16039TIP3    H269533   0.930   5.141  14.388 -0.8445  0.7120 -2.1516
16040TIP3   OH269534   6.554   1.403  16.871  0.0115 -0.0690  0.0453
16040TIP3    H169535   6.527   1.318  16.839 -0.2685 -0.0519  0.2288
16040TIP3    H269536   6.473   1.444  16.902  0.4286 -0.6121  1.9844
16041TIP3   OH269537   3.661   1.520   6.229 -0.0361 -0.1764  0.2562
16041TIP3    H169538   3.667   1.450   6.294  2.0296 -2.8949 -2.7119
16041TIP3    H269539   3.737   1.575   6.245 -0.6361  0.3533  1.3803
16042TIP3   OH269540   1.314   4.765   1.459  0.3178 -0.0085 -0.1121
16042TIP3    H169541   1.324   4.858   1.482  1.8754 -0.8245  2.5999
16042TIP3    H269542   1.371   4.754   1.383  0.8447  1.0411  0.1104
16043TIP3   OH269543   0.252   4.918  14.692  0.7886  0.5110  0.6834
16043TIP3    H169544   0.280   5.010  14.690 -1.0227  1.0554 -0.5761
16043TIP3    H269545   0.245   4.894  14.599  0.9445 -0.8018  1.0111
16044TIP3   OH269546   4.902   2.372  14.143  0.2673  0.1647  0.0525
16044TIP3    H169547   4.848   2.451  14.150 -1.3899 -0.8625 -0.9531
16044TIP3    H269548   4.908   2.339  14.233 -0.4181  0.5204  0.2318
16045TIP3   OH269549   4.890   0.595  14.906 -0.3452 -0.4241 -0.0636
16045TIP3    H169550   4.889   0.636  14.992 -1.0651 -1.5038  0.4467
16045TIP3    H269551   4.906   0.668  14.845 -1.6337  0.6128  0.8202
16046TIP3   OH269552   6.522   3.901  13.208 -0.0140 -0.4414  0.1270
16046TIP3    H169553   6.439   3.925  13.168  0.0245 -0.5399 -0.0138
16046TIP3    H269554   6.570   3.983  13.216 -1.8409  0.3473  4.2601
16047TIP3   OH269555   5.123   1.520   5.814  0.0974  0.1574 -0.2088
16047TIP3    H169556   5.138   1.434   5.853 -2.6755 -0.1577  0.2761
16047TIP3    H269557   5.045   1.553   5.858  0.0185  2.1045 -1.7421
16048TIP3   OH269558   3.061   3.160  16.101 -0.0176 -0.3932  0.4143
16048TIP3    H169559   2.980   3.111  16.116 -0.2449  0.0642  0.6799
16048TIP3    H269560   3.047   3.204  16.017 -0.4551  0.5150  0.9592
16049TIP3   OH269561   5.865   3.972   3.032 -0.0026 -0.0467  0.3625
16049TIP3    H169562   5.915   4.051   3.050 -0.8597  0.5884 -0.0305
16049TIP3    H269563   5.867   3.963   2.937 -0.8059  0.0878  0.3359
16050TIP3   OH269564   4.483   5.704  13.051  0.5387  0.0607 -0.4726
16050TIP3    H169565   4.396   5.734  13.025  0.0696 -0.6986  0.1932
16050TIP3    H269566   4.523   5.780  13.093 -0.6685 -0.2217  1.2709
16051TIP3   OH269567   3.488   0.747  11.954  0.0102 -0.3671  0.1153
16051TIP3    H169568   3.561   0.726  11.895 -0.7324  0.3820 -1.0971
16051TIP3    H269569   3.428   0.673  11.946  0.3015 -0.6586  0.5851
16052TIP3   OH269570   0.277   6.620  10.899 -0.0286 -0.1291  0.5461
16052TIP3    H169571   0.328   6.593  10.822 -0.4637  1.8150 -0.4343
16052TIP3    H269572   0.315   6.568  10.971  2.5320  0.3516 -0.3805
16053TIP3   OH269573   4.015   2.786  11.939 -0.7309 -0.1451  0.4725
16053TIP3    H169574   4.002   2.714  12.001 -0.2665  0.2538  1.0397
16053TIP3    H269575   4.049   2.743  11.860 -2.3328 -0.7891  0.1054
16054TIP3   OH269576   3.065   4.551  16.268  0.1431 -0.6987 -0.0199
16054TIP3    H169577   2.998   4.553  16.336 -1.2953 -2.6402 -1.3344
16054TIP3    H269578   3.015   4.551  16.186  1.8292  0.5993 -1.0736
16055TIP3   OH269579   1.651   0.192   3.391  0.5925  0.4166  0.1594
16055TIP3    H169580   1.578   0.206   3.331 -0.4373 -1.3903  0.9369
16055TIP3    H269581   1.677   0.279   3.419 -1.0452  1.0948 -0.3967
16056TIP3   OH269582   6.067   0.906  15.806  0.1981  0.4860  0.9310
16056TIP3    H169583   6.106   0.818  15.807 -0.9526 -0.0488 -0.0855
16056TIP3    H269584   6.130   0.959  15.756 -0.3564 -0.3783 -0.7152
16057TIP3   OH269585   1.220   4.924  14.569  0.0279  0.2713  0.0448
16057TIP3    H169586   1.216   4.836  14.532  0.3270  0.9255 -1.5840
16057TIP3    H269587   1.277   4.973  14.510 -0.8915  1.8142  0.3947
16058TIP3   OH269588   0.895   3.466  11.673  0.3461 -0.1094  0.1863
16058TIP3    H169589   0.843   3.496  11.599 -1.4120 -1.3991  0.8634
16058TIP3    H269590   0.911   3.545  11.726 -2.0659  0.0849  0.6571
16059TIP3   OH269591   2.321   4.061   1.128 -0.1121 -0.6335  0.0810
16059TIP3    H169592   2.331   3.980   1.177  0.9077  0.4240  1.6879
16059TIP3    H269593   2.253   4.110   1.175 -0.0959 -0.1841 -0.3514
16060TIP3   OH269594   2.487   4.267   5.316 -0.0537 -0.2141  1.0037
16060TIP3    H169595   2.531   4.287   5.398 -1.4267 -0.8729  1.9176
16060TIP3    H269596   2.407   4.320   5.318  0.7600  1.1105 -0.7076
16061TIP3   OH269597   4.512   4.643  12.389  0.6268  0.1077  0.9003
16061TIP3    H169598   4.452   4.599  12.330 -0.2039 -0.1177  1.8954
16061TIP3    H269599   4.501   4.736  12.370  0.1119  0.0523  0.9401
16062TIP3   OH269600   4.168   5.937  17.085 -0.2675 -0.3244  0.4487
16062TIP3    H169601   4.194   5.861  17.136  0.5776 -0.3682 -0.0431
16062TIP3    H269602   4.137   6.001  17.149 -2.0426 -1.4867  0.7856
16063TIP3   OH269603   2.327   0.399   3.092  0.7170 -0.0022  1.0789
16063TIP3    H169604   2.306   0.456   3.165 -0.4417 -0.8815  1.4487
16063TIP3    H269605   2.300   0.311   3.121 -0.9600 -0.1715 -0.8376
16064TIP3   OH269606   1.701   0.476   2.747  0.1608  0.7426  0.1766
16064TIP3    H169607   1.607   0.483   2.728 -0.2753  1.8125  2.5152
16064TIP3    H269608   1.744   0.499   2.665 -1.6191  0.2444 -0.9212
16065TIP3   OH269609   1.460   1.839   0.366 -0.2180 -0.2455 -1.0496
16065TIP3    H169610   1.544   1.861   0.326  0.9095  1.1311  1.9104
16065TIP3    H269611   1.418   1.923   0.384 -0.1957 -0.7285  1.5488
16066TIP3   OH269612   3.554   4.067   0.137  0.4894  0.2685  0.2083
16066TIP3    H169613   3.561   4.157   0.105 -0.7647  0.6374  0.9534
16066TIP3    H269614   3.465   4.060   0.172  0.9666 -0.9123  1.2247
16067TIP3   OH269615   2.229   2.351   0.286 -0.0571  0.1876 -0.4595
16067TIP3    H169616   2.150   2.402   0.266  0.8592  1.4967 -0.8669
16067TIP3    H269617   2.246   2.369   0.378 -0.7702 -0.8632 -0.1193
16068TIP3   OH269618   6.508   0.561  13.691  0.1878 -0.2527 -0.0135
16068TIP3    H169619   6.513   0.610  13.773  0.1983 -2.1662  1.1654
16068TIP3    H269620   6.533   0.624  13.624  1.2189  1.0609  1.5607
16069TIP3   OH269621   1.383   2.410  17.118 -0.1221  0.4867 -0.0068
16069TIP3    H169622   1.379   2.380  17.209  0.0841 -1.6290 -0.6712
16069TIP3    H269623   1.297   2.451  17.103 -0.6382 -0.2929  0.7583
16070TIP3   OH269624   3.049   1.026   3.208  0.7214  0.2410 -0.2247
16070TIP3    H169625   3.144   1.036   3.206  0.8117 -0.7383 -1.2053
16070TIP3    H269626   3.035   0.949   3.263  0.4663  0.6716  0.3158
16071TIP3   OH269627   6.620   1.632  15.921 -0.0949  0.5019 -0.0674
16071TIP3    H169628   6.577   1.658  16.002 -0.0392  1.1701 -0.2541
16071TIP3    H269629   6.689   1.572  15.949 -0.3201  0.4270  0.3431
16072TIP3   OH269630   3.832   2.239   4.743  0.9210  0.2448 -0.6500
16072TIP3    H169631   3.775   2.192   4.681  0.5689  1.8588 -1.5851
16072TIP3    H269632   3.921   2.211   4.719  0.5977 -1.3521  0.0146
16073TIP3   OH269633   1.501   0.377   6.405 -0.4355  0.4442  0.0278
16073TIP3    H169634   1.456   0.431   6.341 -1.1225  1.5221  1.3809
16073TIP3    H269635   1.436   0.363   6.474  0.6394  0.2664  1.0198
16074TIP3   OH269636   0.717   5.164   5.403 -0.1024  0.0324  0.1478
16074TIP3    H169637   0.790   5.223   5.384  0.0884 -1.1278 -2.9220
16074TIP3    H269638   0.759   5.084   5.434 -0.2191  0.3909  1.2451
16075TIP3   OH269639   3.872   6.525   0.562  0.0789 -0.0045  0.5379
16075TIP3    H169640   3.909   6.570   0.486 -0.1251  0.9579  0.9961
16075TIP3    H269641   3.905   6.436   0.555 -1.2458 -0.3589 -1.5653
16076TIP3   OH269642   0.545   6.331   0.404  0.3407  0.3291  0.1487
16076TIP3    H169643   0.514   6.420   0.419  1.3756  0.6492  0.4565
16076TIP3    H269644   0.632   6.342   0.365  1.2050 -0.5244  1.7745
16077TIP3   OH269645   3.001   5.907  14.831  0.0831  0.2839  0.4010
16077TIP3    H169646   3.048   5.834  14.872 -1.7130 -0.6706  0.8212
16077TIP3    H269647   2.922   5.866  14.794 -0.9244  2.0105  0.6105
16078TIP3   OH269648   1.766   6.779  16.887 -0.3110  0.4989  0.3157
16078TIP3    H169649   1.679   6.758  16.852 -0.0723  1.2841 -0.7521
16078TIP3    H269650   1.827   6.741  16.824  0.1216  2.6730 -0.6055
16079TIP3   OH269651   5.879   5.795  13.665 -0.0790 -0.5388 -0.3469
16079TIP3    H169652   5.891   5.756  13.752  1.3088 -0.6991 -0.6071
16079TIP3    H269653   5.882   5.889  13.680 -0.4276 -0.5607 -0.1383
16080TIP3   OH269654   5.296   4.778  15.257 -0.1378 -0.0452 -0.0279
16080TIP3    H169655   5.298   4.692  15.299  0.6139 -0.1565 -0.2843
16080TIP3    H269656   5.234   4.829  15.310  1.0144 -0.0902  1.3846
16081TIP3   OH269657   3.207   3.337  12.219  0.7144  0.0788  0.0316
16081TIP3    H169658   3.284   3.281  12.213  0.5771 -0.0127 -0.9807
16081TIP3    H269659   3.217   3.399  12.147  1.2167  1.8047  1.5275
16082TIP3   OH269660   0.742   0.255   3.899 -0.2139  0.2558  0.0425
16082TIP3    H169661   0.682   0.248   3.974  1.2469 -0.9823  1.1321
16082TIP3    H269662   0.717   0.182   3.842 -0.1820  0.1249  0.1926
16083TIP3   OH269663   4.700   5.447   1.887 -0.4116 -0.0744  0.6786
16083TIP3    H169664   4.695   5.538   1.917  0.3228  0.0595  0.3966
16083TIP3    H269665   4.609   5.420   1.878 -0.6402  0.9907 -0.3040
16084TIP3   OH269666   1.243   0.197  13.479 -0.0824 -0.1963 -0.3072
16084TIP3    H169667   1.180   0.185  13.408  2.0030 -1.2737 -2.0603
16084TIP3    H269668   1.296   0.272  13.451 -0.9537  1.0926  1.4412
16085TIP3   OH269669   1.742   1.337   4.836 -0.1863  0.2974 -0.2669
16085TIP3    H169670   1.657   1.375   4.814 -0.1797  0.7934  0.5385
16085TIP3    H269671   1.726   1.288   4.917 -0.2357 -1.5759 -1.3808
16086TIP3   OH269672   2.366   0.403  11.039  0.2750  0.3812 -0.4395
16086TIP3    H169673   2.351   0.433  10.949  0.0243 -1.6390 -1.1035
16086TIP3    H269674   2.383   0.309  11.030  0.0121  0.1140  1.6642
16087TIP3   OH269675   2.137   4.491  15.863 -0.1565  0.2413 -0.5699
16087TIP3    H169676   2.189   4.526  15.935  0.6869  0.5640 -1.3245
16087TIP3    H269677   2.059   4.547  15.860  0.6694  1.3855 -1.0652
16088TIP3   OH269678   5.513   4.561   1.610  0.8413  0.1351  0.2423
16088TIP3    H169679   5.488   4.604   1.529 -0.8694  1.6922  1.5553
16088TIP3    H269680   5.448   4.491   1.622  1.0791 -0.0812  0.2937
16089TIP3   OH269681   4.662   2.021   3.700 -0.4387  0.2174 -0.3504
16089TIP3    H169682   4.568   2.007   3.687 -0.5966 -0.5946  1.5579
16089TIP3    H269683   4.700   2.010   3.613 -1.9751 -0.6547 -0.9240
16090TIP3   OH269684   3.668   5.380   0.169  0.0387 -0.0541  0.0659
16090TIP3    H169685   3.662   5.304   0.227  0.1157 -0.0699  0.0539
16090TIP3    H269686   3.662   5.342   0.081 -0.6369  0.0252  0.0749
16091TIP3   OH269687   3.099   6.326  14.869 -0.1736  0.0804  0.4961
16091TIP3    H169688   3.042   6.267  14.919  0.8369 -0.9863  0.4262
16091TIP3    H269689   3.163   6.357  14.932  2.5293 -3.0873 -0.5339
16092TIP3   OH269690   0.884   2.174  16.461  0.0600 -0.2046  0.0109
16092TIP3    H169691   0.867   2.081  16.451  2.1239 -0.8204  1.8296
16092TIP3    H269692   0.847   2.197  16.546 -0.8877  0.7642 -0.6468
16093TIP3   OH269693   1.826   2.754  15.255 -0.2893  0.0583  0.4915
16093TIP3    H169694   1.898   2.815  15.268 -1.0973  0.9261  0.9319
16093TIP3    H269695   1.755   2.807  15.218 -1.0180 -0.5887  0.9401
16094TIP3   OH269696   4.926   6.224   1.513 -0.2868  0.6065  0.0122
16094TIP3    H169697   4.953   6.302   1.561 -0.4874 -0.0206  1.1775
16094TIP3    H269698   5.008   6.175   1.500 -0.3245  0.4706  0.2835
16095TIP3   OH269699   1.254   0.588   2.876 -0.5839  0.0306 -0.6299
16095TIP3    H169700   1.327   0.536   2.910  0.2041  1.9883  0.7430
16095TIP3    H269701   1.204   0.614   2.953  0.3683  3.2254 -0.9803
16096TIP3   OH269702   4.978   6.483   2.860  0.1393 -0.1552 -0.1304
16096TIP3    H169703   5.005   6.488   2.768 -0.1888  1.0524 -0.1707
16096TIP3    H269704   4.918   6.557   2.871  0.0502 -0.3987  1.0105
16097TIP3   OH269705   5.456   0.182  14.333  0.8412 -0.1155 -0.5699
16097TIP3    H169706   5.453   0.108  14.395 -0.2634  0.8847  0.5927
16097TIP3    H269707   5.511   0.247  14.377  1.9864 -0.2942 -1.6878
16098TIP3   OH269708   3.760   4.559   5.867 -0.6521  0.5616  0.2456
16098TIP3    H169709   3.727   4.481   5.912 -2.3565  0.4161 -1.1928
16098TIP3    H269710   3.793   4.525   5.784  0.7365  1.0759  0.5820
16099TIP3   OH269711   1.361   1.000  15.807 -0.5256 -0.2834 -0.2285
16099TIP3    H169712   1.329   1.085  15.837  1.9772  1.0920 -1.2889
16099TIP3    H269713   1.399   0.960  15.886 -1.5369 -0.3753  0.2291
16100TIP3   OH269714   4.558   5.675   1.133  0.0208 -0.0178 -0.0670
16100TIP3    H169715   4.466   5.681   1.108 -0.0526  0.1733  0.2357
16100TIP3    H269716   4.566   5.588   1.172  0.3749 -0.7219 -1.6758
16101TIP3   OH269717   2.384   6.266  15.403 -0.3174 -0.0812  0.4313
16101TIP3    H169718   2.392   6.346  15.454  1.1195 -0.0141  0.1231
16101TIP3    H269719   2.465   6.219  15.419 -0.1006 -0.3343 -1.3143
16102TIP3   OH269720   5.740   1.475  11.108  0.6696  0.1391 -0.2952
16102TIP3    H169721   5.802   1.545  11.086 -0.2634  0.8698 -0.6051
16102TIP3    H269722   5.710   1.443  11.023 -2.5957  2.6517 -0.1532
16103TIP3   OH269723   2.707   4.260   5.542 -0.1236  0.4839 -0.0679
16103TIP3    H169724   2.797   4.233   5.522 -0.6970 -1.0385 -0.6370
16103TIP3    H269725   2.709   4.355   5.534  1.4552  0.4687 -0.0210
16104TIP3   OH269726   5.206   5.487   4.199 -0.4479  0.3295 -0.0473
16104TIP3    H169727   5.255   5.555   4.247 -0.7205  0.6784 -0.2610
16104TIP3    H269728   5.270   5.417   4.185 -0.3482  0.2427  0.7851
16105TIP3   OH269729   5.449   5.175  13.022 -0.3011 -0.2986  0.1615
16105TIP3    H169730   5.532   5.206  12.988 -0.3563  0.7014  0.9005
16105TIP3    H269731   5.384   5.208  12.960 -0.1915 -0.6491 -0.1405
16106TIP3   OH269732   0.225   4.484   4.641  0.9038 -0.3330  0.4551
16106TIP3    H169733   0.240   4.573   4.674  0.3649 -0.3329  0.7077
16106TIP3    H269734   0.312   4.454   4.614  0.8838  0.7738 -0.9333
16107TIP3   OH269735   1.873   5.162   2.864 -0.0791 -0.3557  0.6578
16107TIP3    H169736   1.967   5.158   2.882  0.1629 -0.1112 -0.4811
16107TIP3    H269737   1.838   5.081   2.900  0.6327 -0.6346  0.7336
16108TIP3   OH269738   0.945   2.215   0.309 -0.0636 -0.0959  0.3824
16108TIP3    H169739   0.936   2.304   0.277  0.4264  0.0293  0.5971
16108TIP3    H269740   0.996   2.223   0.390  0.9042 -0.6921 -0.1690
16109TIP3   OH269741   4.136   1.771  12.500  0.5771  0.0341  0.3739
16109TIP3    H169742   4.128   1.837  12.570  2.0436  0.0726  0.5324
16109TIP3    H269743   4.220   1.792  12.458  1.8897 -2.7680  1.5172
16110TIP3   OH269744   2.920   2.717   1.186  0.2954 -0.2485 -0.4340
16110TIP3    H169745   2.931   2.723   1.091  0.6571  2.0823 -0.2647
16110TIP3    H269746   3.005   2.688   1.219 -0.0946 -1.9577 -0.8788
16111TIP3   OH269747   3.020   6.397   4.473 -0.1750 -0.4434 -0.2873
16111TIP3    H169748   2.988   6.468   4.418 -2.4935 -2.8806 -2.2532
16111TIP3    H269749   3.035   6.324   4.413  0.5254 -2.1545  1.8613
16112TIP3   OH269750   4.857   0.600  13.349  0.3820  0.2743 -0.1178
16112TIP3    H169751   4.801   0.603  13.427  2.5908 -2.7298  1.6934
16112TIP3    H269752   4.796   0.596  13.276 -1.7907 -1.3460  1.7041
16113TIP3   OH269753   3.124   2.989   5.122  0.1175  0.0578  0.0718
16113TIP3    H169754   3.122   2.975   5.216 -2.2396  2.5775  0.4529
16113TIP3    H269755   3.069   2.920   5.086 -1.1149  0.6604  0.7828
16114TIP3   OH269756   4.596   2.525  15.790  0.3091  0.7055 -0.5691
16114TIP3    H169757   4.637   2.441  15.809  0.8759  1.3529  1.1333
16114TIP3    H269758   4.663   2.575  15.745  1.1373  1.4610  1.4640
16115TIP3   OH269759   6.673   0.144   1.277 -0.0064 -0.3313 -0.0014
16115TIP3    H169760   6.693   0.134   1.184 -0.3653 -0.7045 -0.0395
16115TIP3    H269761   6.584   0.110   1.287 -2.1475  4.6224 -0.5347
16116TIP3   OH269762   3.527   3.353   4.842 -0.1152  0.8784  0.6373
16116TIP3    H169763   3.618   3.336   4.818 -0.5235  0.4187 -0.6251
16116TIP3    H269764   3.510   3.293   4.915 -0.4614 -1.6576 -1.4528
16117TIP3   OH269765   6.762   2.467   4.846  0.1194  0.1577 -0.3283
16117TIP3    H169766   6.773   2.560   4.826  1.5281 -0.1570 -1.0360
16117TIP3    H269767   6.815   2.453   4.925  0.7192 -0.2624 -0.8069
16118TIP3   OH269768   6.546   6.185  12.446 -0.2487 -0.1166 -0.3440
16118TIP3    H169769   6.594   6.245  12.504 -0.9690 -0.3284  0.4900
16118TIP3    H269770   6.581   6.098  12.467 -0.5029 -0.1927 -0.2406
16119TIP3   OH269771   1.409   4.459  11.972  0.0549 -0.1793 -0.0020
16119TIP3    H169772   1.407   4.368  11.942  0.4442  0.1108 -0.9231
16119TIP3    H269773   1.450   4.507  11.900 -1.5996  0.9859 -0.2084
16120TIP3   OH269774   0.126   5.287   1.962 -0.1698  0.1838  0.1099
16120TIP3    H169775   0.214   5.319   1.945 -0.3380  1.0157  0.7352
16120TIP3    H269776   0.107   5.317   2.051 -1.2932  0.5134 -0.2239
16121TIP3   OH269777   5.438   3.818  13.514  0.3081 -0.0851 -0.1648
16121TIP3    H169778   5.345   3.798  13.519  0.5306 -1.1765 -0.2845
16121TIP3    H269779   5.450   3.891  13.575 -1.0540  1.7000 -1.9475
16122TIP3   OH269780   1.213   3.603   5.979 -0.0631  0.5896 -0.0856
16122TIP3    H169781   1.296   3.626   5.938 -0.3900  0.3890 -0.8601
16122TIP3    H269782   1.238   3.548   6.054  0.5737  1.5384  0.4170
16123TIP3   OH269783   4.726   5.663   1.524  0.2069  0.4371 -0.2154
16123TIP3    H169784   4.738   5.622   1.438  0.3807  0.0361 -0.0019
16123TIP3    H269785   4.631   5.672   1.533  0.1849  0.4222 -0.4218
16124TIP3   OH269786   5.905   4.337   6.358  0.3695  0.0365  0.0387
16124TIP3    H169787   5.877   4.326   6.449  3.5490  0.3035  1.1258
16124TIP3    H269788   5.846   4.402   6.322 -1.8489 -1.1334  1.4709
16125TIP3   OH269789   4.566   4.491   0.349 -0.4579 -0.2364 -0.5416
16125TIP3    H169790   4.507   4.420   0.374 -0.0895 -0.9446 -1.6540
16125TIP3    H269791   4.653   4.451   0.352 -0.0948  0.5874  0.3187
16126TIP3   OH269792   2.039   2.317   4.870  0.6808  0.0203  0.1782
16126TIP3    H169793   2.058   2.313   4.776 -0.9117  0.4346 -0.1880
16126TIP3    H269794   2.042   2.410   4.891  1.1828 -0.0869  0.5702
16127TIP3   OH269795   2.099   1.037  13.330 -0.5044 -0.1479  0.0007
16127TIP3    H169796   2.058   1.057  13.246  0.3775  0.8370 -0.2005
16127TIP3    H269797   2.096   0.942  13.336 -0.3212 -0.2449 -1.2740
16128TIP3   OH269798   3.611   0.335  11.425  0.3898 -0.4704  0.1461
16128TIP3    H169799   3.611   0.425  11.459 -1.0048 -0.4753  0.2173
16128TIP3    H269800   3.545   0.337  11.356  0.6408 -1.3483 -0.1164
16129TIP3   OH269801   3.538   3.010  10.681 -0.5049 -0.3394  0.0263
16129TIP3    H169802   3.623   3.030  10.641  0.5664 -1.8284  1.4751
16129TIP3    H269803   3.545   3.045  10.770 -1.0908 -1.2300  0.4277
16130TIP3   OH269804   4.212   2.413   5.662  0.3162  0.2235 -0.1278
16130TIP3    H169805   4.172   2.331   5.690  1.3853 -1.3723 -3.0579
16130TIP3    H269806   4.137   2.470   5.643 -0.4530 -0.4589  0.7909
16131TIP3   OH269807   4.991   2.586  16.065  0.1044  0.0951  0.3950
16131TIP3    H169808   4.906   2.605  16.104 -0.2811  1.0312 -0.8460
16131TIP3    H269809   4.971   2.532  15.989  0.7736 -1.0768  1.0399
16132TIP3   OH269810   6.761   2.853   2.890  0.1506  0.6244 -0.0920
16132TIP3    H169811   6.758   2.783   2.825 -1.0512 -0.4662  1.1317
16132TIP3    H269812   6.827   2.914   2.856  1.2061 -1.0813 -1.1727
16133TIP3   OH269813   3.642   1.918  12.709  0.0986  0.3412 -0.1743
16133TIP3    H169814   3.658   1.854  12.779 -2.2067  1.0459  1.0645
16133TIP3    H269815   3.709   1.985  12.722 -0.4385  0.5855  1.5859
16134TIP3   OH269816   2.791   0.564  14.347  0.3990 -0.0906  0.0988
16134TIP3    H169817   2.822   0.475  14.366  0.3221 -0.0189  0.5807
16134TIP3    H269818   2.820   0.581  14.258  1.1872 -0.2697  0.3192
16135TIP3   OH269819   5.179   3.984  16.623  0.4478 -0.0142 -0.5392
16135TIP3    H169820   5.092   4.008  16.655  0.9438 -0.0662  0.8664
16135TIP3    H269821   5.219   4.067  16.599  0.7373  0.1996  0.6753
16136TIP3   OH269822   3.267   1.903   1.501 -0.5484 -0.2507  0.2645
16136TIP3    H169823   3.305   1.822   1.534  0.0013  0.0239  0.3232
16136TIP3    H269824   3.311   1.918   1.417 -3.5431 -2.1192 -1.7127
16137TIP3   OH269825   3.851   3.335   0.653 -0.3057  0.0304  0.4642
16137TIP3    H169826   3.769   3.330   0.604 -0.2966  1.1534  0.3068
16137TIP3    H269827   3.908   3.271   0.610 -0.5209  0.5086 -0.5715
16138TIP3   OH269828   1.593   5.178  10.630  0.5118 -0.4537  0.3494
16138TIP3    H169829   1.679   5.205  10.596  0.1071 -1.0914 -1.2172
16138TIP3    H269830   1.610   5.156  10.721  2.2001 -1.4430 -0.1768
16139TIP3   OH269831   0.246   2.409  11.908 -0.0179 -0.1929 -0.4817
16139TIP3    H169832   0.268   2.447  11.993 -0.8714 -0.2206 -0.2476
16139TIP3    H269833   0.235   2.484  11.850  1.8928 -0.2053 -0.9149
16140TIP3   OH269834   6.553   0.245  17.115 -0.1001  0.1980 -0.4246
16140TIP3    H169835   6.629   0.303  17.125 -1.1917  1.6896 -0.5651
16140TIP3    H269836   6.559   0.184  17.189 -0.3214  2.1026  1.2070
16141TIP3   OH269837   2.511   1.260   0.521 -0.3188  0.2948 -0.6427
16141TIP3    H169838   2.511   1.277   0.615  1.4215  2.1228 -0.9485
16141TIP3    H269839   2.431   1.209   0.506  0.0638 -1.1776  2.0141
16142TIP3   OH269840   4.765   5.683  11.891 -0.2544  0.6153  0.9892
16142TIP3    H169841   4.782   5.589  11.893 -0.0254  0.6710  2.7888
16142TIP3    H269842   4.754   5.707  11.983 -1.0675  2.2165  0.4934
16143TIP3   OH269843   2.097   3.584  17.223  0.0935  0.1139  0.6887
16143TIP3    H169844   2.180   3.616  17.186  0.7795 -2.2216  0.1212
16143TIP3    H269845   2.030   3.635  17.179  1.1431  0.6162 -0.3671
16144TIP3   OH269846   2.096   2.106  11.934  0.6763  0.1268 -0.0470
16144TIP3    H169847   2.141   2.109  11.849  1.0707  0.4990  0.1726
16144TIP3    H269848   2.016   2.155  11.921 -0.2416 -1.5381 -0.7725
16145TIP3   OH269849   0.422   1.195   6.476 -0.1598 -0.1151 -0.0134
16145TIP3    H169850   0.465   1.122   6.521  0.1359 -0.7475 -1.2840
16145TIP3    H269851   0.368   1.236   6.543  0.1457 -1.1294  0.8752
16146TIP3   OH269852   3.617   5.086  15.372  0.1100  0.3974  0.1264
16146TIP3    H169853   3.698   5.036  15.381 -0.2051  0.0904  1.3627
16146TIP3    H269854   3.626   5.157  15.435 -0.6080  0.3147  0.3247
16147TIP3   OH269855   2.755   2.433   6.212  0.1941 -0.1027 -0.0952
16147TIP3    H169856   2.808   2.450   6.289 -0.1671 -0.8356  0.3160
16147TIP3    H269857   2.670   2.473   6.232  0.3042  0.2739 -0.3790
16148TIP3   OH269858   2.478   3.465   1.911 -0.2217 -0.6376 -0.4182
16148TIP3    H169859   2.567   3.488   1.885  0.1440 -2.0176 -0.4146
16148TIP3    H269860   2.424   3.539   1.882  0.9941  0.4483  0.0612
16149TIP3   OH269861   3.139   2.586   1.266  0.3030  0.3449  0.3597
16149TIP3    H169862   3.198   2.609   1.194  0.1122  0.4761  0.2421
16149TIP3    H269863   3.120   2.494   1.252 -0.0328  0.4605  0.0163
16150TIP3   OH269864   4.782   5.525  12.605  0.1861 -0.2201 -0.1915
16150TIP3    H169865   4.838   5.581  12.552 -0.8888  1.5866  0.5558
16150TIP3    H269866   4.729   5.476  12.542 -0.0503  0.8196 -0.7983
16151TIP3   OH269867   2.339   3.809  16.121 -0.1174 -0.1658 -0.5795
16151TIP3    H169868   2.370   3.843  16.205 -0.0018  0.3399 -0.8210
16151TIP3    H269869   2.412   3.758  16.086 -0.5093 -1.1720  0.0640
16152TIP3   OH269870   4.584   2.359   1.040  0.5464  0.2522  0.8678
16152TIP3    H169871   4.490   2.346   1.048  0.7495 -1.2302  0.9925
16152TIP3    H269872   4.623   2.291   1.096  1.6670  2.0342  2.3222
16153TIP3   OH269873   4.761   0.639   1.062 -0.0695 -0.4354 -0.3626
16153TIP3    H169874   4.824   0.599   1.122 -0.6635  0.7963  1.1288
16153TIP3    H269875   4.813   0.666   0.987  0.6296 -2.3672 -0.6090
16154TIP3   OH269876   3.242   1.610  15.480  0.4128  0.7107 -0.0735
16154TIP3    H169877   3.267   1.529  15.437  0.5104  0.4999  0.3797
16154TIP3    H269878   3.315   1.670  15.463  0.4105  0.6584 -0.2737
16155TIP3   OH269879   5.413   0.646   2.576  0.1270 -0.0184  0.0253
16155TIP3    H169880   5.429   0.669   2.484  0.9054  3.3309  0.9345
16155TIP3    H269881   5.498   0.656   2.618 -0.2228 -1.5814  1.1401
16156TIP3   OH269882   3.345   1.716  14.715  0.4197 -0.2073 -0.4063
16156TIP3    H169883   3.361   1.792  14.772  1.9413  1.4187 -2.8603
16156TIP3    H269884   3.408   1.651  14.745  0.2926  0.1279  0.6243
16157TIP3   OH269885   5.286   0.905   3.182  0.1858  0.0399  0.1399
16157TIP3    H169886   5.305   0.814   3.157  1.5426  0.3188  0.1065
16157TIP3    H269887   5.324   0.957   3.111 -1.5227  0.6098 -0.3881
16158TIP3   OH269888   1.494   6.377  11.986 -0.2375 -0.4369  0.4407
16158TIP3    H169889   1.447   6.437  12.045 -0.6343  0.0235 -0.3404
16158TIP3    H269890   1.583   6.412  11.983 -0.7184  0.7369 -0.8263
16159TIP3   OH269891   2.671   2.962  10.586 -0.0415  0.3906 -0.2777
16159TIP3    H169892   2.632   2.955  10.499  0.7816  2.4538 -0.8355
16159TIP3    H269893   2.698   2.873  10.607 -0.8133 -0.2401 -1.8611
16160TIP3   OH269894   6.205   2.528   2.786 -0.2240  0.2697  0.0854
16160TIP3    H169895   6.286   2.519   2.737 -1.0056  0.8286 -1.3248
16160TIP3    H269896   6.185   2.621   2.783 -1.0003  0.1166  0.2972
16161TIP3   OH269897   2.363   6.509   3.623 -0.3106 -0.3752 -0.1449
16161TIP3    H169898   2.424   6.469   3.561 -0.3410 -0.8879  0.1546
16161TIP3    H269899   2.410   6.584   3.658 -0.1895 -0.2449 -0.5858
16162TIP3   OH269900   1.278   2.008  11.673 -0.1928  0.4379  0.6014
16162TIP3    H169901   1.272   1.983  11.580  0.9875  1.4709  0.2491
16162TIP3    H269902   1.249   2.099  11.675 -0.8916  0.2094  1.3682
16163TIP3   OH269903   4.660   1.228   2.046  0.0745  0.1968 -0.4271
16163TIP3    H169904   4.694   1.315   2.026 -1.0929  0.9243  0.6985
16163TIP3    H269905   4.737   1.172   2.044  0.9792  1.4050 -0.3090
16164TIP3   OH269906   1.235   6.240  15.863 -0.0503  0.0714  0.0001
16164TIP3    H169907   1.294   6.170  15.893 -1.2921 -1.0952 -0.2546
16164TIP3    H269908   1.187   6.267  15.941 -0.9894 -0.7362 -0.2989
16165TIP3   OH269909   0.089   0.242   0.087 -0.6150  0.1944 -0.1236
16165TIP3    H169910   0.147   0.198   0.150 -1.2539 -1.3453 -0.5871
16165TIP3    H269911   0.124   0.331   0.081  1.1841 -0.4608  0.2475
16166TIP3   OH269912   1.281   2.445   2.104  0.0712 -0.3478  0.3742
16166TIP3    H169913   1.329   2.525   2.125 -1.1128 -0.0751  2.1042
16166TIP3    H269914   1.196   2.476   2.071  0.2752 -0.8663 -0.6651
16167TIP3   OH269915   5.135   5.292   6.161 -0.5392  0.5469 -0.2652
16167TIP3    H169916   5.193   5.259   6.230  2.0260  0.3371 -2.4112
16167TIP3    H269917   5.093   5.369   6.200 -0.1819 -0.3564  1.9727
16168TIP3   OH269918   5.564   6.718  16.859  0.2596  0.3551  0.1430
16168TIP3    H169919   5.509   6.645  16.829  0.4202  0.4580 -0.4102
16168TIP3    H269920   5.566   6.709  16.954 -0.8137  0.4135  0.1817
16169TIP3   OH269921   6.007   4.220   0.582 -0.2364 -0.3259 -0.4765
16169TIP3    H169922   6.026   4.285   0.650 -1.2942 -0.8592  0.3451
16169TIP3    H269923   6.090   4.174   0.569 -0.1250 -0.5023  0.7738
16170TIP3   OH269924   5.321   6.486  12.909 -0.4377 -0.3597 -0.5713
16170TIP3    H169925   5.244   6.522  12.864 -0.3942 -0.2985 -0.5964
16170TIP3    H269926   5.392   6.546  12.888 -0.1440 -0.9922 -1.4154
16171TIP3   OH269927   2.492   4.140  16.279 -0.5332 -0.0744 -0.2230
16171TIP3    H169928   2.566   4.088  16.312 -0.5768  1.1761  1.9673
16171TIP3    H269929   2.415   4.096  16.314 -0.6881  0.1853 -0.2382
16172TIP3   OH269930   3.624   3.931  16.547 -0.1238 -0.1060 -0.3114
16172TIP3    H169931   3.640   3.963  16.458  0.4508 -2.4083 -1.0664
16172TIP3    H269932   3.661   3.999  16.603  1.1085  0.5590 -1.8611
16173TIP3   OH269933   4.472   6.266   3.441  0.2505  0.2838 -0.0343
16173TIP3    H169934   4.440   6.187   3.396 -0.3315 -0.2904  1.3746
16173TIP3    H269935   4.396   6.323   3.447  0.2253  0.1914  0.5709
16174TIP3   OH269936   2.214   3.817  12.406  0.7370 -0.7516  0.1465
16174TIP3    H169937   2.305   3.802  12.381  0.4160 -0.8114 -0.9973
16174TIP3    H269938   2.198   3.910  12.389  0.1249 -1.0859 -1.1788
16175TIP3   OH269939   0.158   5.223  14.592  0.4549  0.6962 -0.3095
16175TIP3    H169940   0.252   5.215  14.612  0.3523 -0.9709 -0.4270
16175TIP3    H269941   0.156   5.242  14.498  0.6360 -1.2859 -0.7387
16176TIP3   OH269942   1.280   2.455   5.784  0.2713  0.2795  0.0939
16176TIP3    H169943   1.375   2.452   5.795  0.0835  0.1319  1.8210
16176TIP3    H269944   1.259   2.548   5.780  0.5713  0.3022 -1.1733
16177TIP3   OH269945   0.996   3.145  17.177 -0.1609 -0.9728  0.7188
16177TIP3    H169946   0.926   3.199  17.214 -0.2323 -0.7903  0.3226
16177TIP3    H269947   0.954   3.101  17.103 -0.5608 -2.8363  2.0272
16178TIP3   OH269948   0.451   1.760  12.517  0.4965 -0.2425  0.4496
16178TIP3    H169949   0.445   1.678  12.468  0.6529  0.2348 -0.3699
16178TIP3    H269950   0.368   1.804  12.501  1.5120  1.0548 -1.4430
16179TIP3   OH269951   3.130   6.595   3.118 -0.3784 -0.1033 -0.5955
16179TIP3    H169952   3.146   6.605   3.212 -0.9696  0.6389 -0.5735
16179TIP3    H269953   3.112   6.684   3.087 -0.9970 -0.4608 -1.2619
16180TIP3   OH269954   0.571   1.680   3.476 -0.3803 -0.2079 -0.6618
16180TIP3    H169955   0.628   1.730   3.534 -1.1449  0.7287 -0.6992
16180TIP3    H269956   0.582   1.589   3.504 -1.1754  0.2791  1.3791
16181TIP3   OH269957   0.824   3.861  11.558 -0.3801  0.2468 -0.2690
16181TIP3    H169958   0.880   3.915  11.613  1.0681 -2.0853  0.6184
16181TIP3    H269959   0.883   3.823  11.493 -1.1535 -1.1138 -0.2034
16182TIP3   OH269960   4.402   3.530   6.268  0.0596 -0.4564 -1.0899
16182TIP3    H169961   4.429   3.512   6.358 -0.2907 -2.3118 -1.3417
16182TIP3    H269962   4.372   3.445   6.235 -0.5265  0.3771 -2.7069
16183TIP3   OH269963   2.839   3.972   1.767 -0.1557 -0.2371 -1.0796
16183TIP3    H169964   2.745   3.975   1.782 -0.0562 -1.9430  0.1722
16183TIP3    H269965   2.859   3.878   1.760  1.8210 -0.0806  1.5387
16184TIP3   OH269966   1.960   4.471   4.297  0.0040  0.2506  0.5379
16184TIP3    H169967   1.974   4.551   4.348  1.0603 -0.3293  1.1719
16184TIP3    H269968   1.875   4.438   4.328 -0.7669  1.4678 -0.2159
16185TIP3   OH269969   4.439   4.434   2.158  0.7392 -0.1892 -0.0150
16185TIP3    H169970   4.462   4.357   2.212  1.0687  0.4812  0.8226
16185TIP3    H269971   4.352   4.415   2.125  0.6510 -0.7526  0.5193
16186TIP3   OH269972   5.363   5.317  14.254  0.7754 -0.3970  0.1564
16186TIP3    H169973   5.404   5.283  14.334  3.0501  0.7307 -0.4783
16186TIP3    H269974   5.323   5.400  14.281  1.2235 -0.1950  0.1997
16187TIP3   OH269975   3.592   1.349   4.476 -0.5194 -1.0643 -0.5502
16187TIP3    H169976   3.625   1.403   4.548 -0.5795 -1.8400  0.0648
16187TIP3    H269977   3.626   1.392   4.397  0.7911 -1.0509  0.0015
16188TIP3   OH269978   2.689   3.770   3.436  0.0550 -0.1489 -0.0129
16188TIP3    H169979   2.778   3.788   3.407  0.7020 -0.8187  1.4783
16188TIP3    H269980   2.643   3.853   3.425  1.3790  0.7551  1.0401
16189TIP3   OH269981   0.447   5.664  15.532 -0.0473 -0.2389 -0.1351
16189TIP3    H169982   0.513   5.624  15.475  1.2979  1.3247  0.2785
16189TIP3    H269983   0.461   5.625  15.618 -0.1320 -0.4244 -0.2055
16190TIP3   OH269984   0.051   5.155  13.272 -0.0883  0.4857 -0.3801
16190TIP3    H169985   0.119   5.168  13.338 -0.2156  0.1679 -0.1901
16190TIP3    H269986   0.089   5.192  13.192 -0.7186  2.7357  0.3117
16191TIP3   OH269987   2.830   5.648  13.374 -0.7846 -0.0410 -0.6941
16191TIP3    H169988   2.902   5.609  13.325 -1.0752 -1.1763 -0.2543
16191TIP3    H269989   2.872   5.698  13.444 -0.4100 -1.2004 -0.0683
16192TIP3   OH269990   0.307   4.682  16.940  0.1455  0.0489 -0.3229
16192TIP3    H169991   0.241   4.658  17.005  0.1874  1.2172  0.1681
16192TIP3    H269992   0.293   4.775  16.925  1.2876  0.1674 -0.6849
16193TIP3   OH269993   0.373   5.846   0.070 -0.1923 -0.5430 -0.4778
16193TIP3    H169994   0.454   5.874   0.026 -0.9182  1.2297 -0.7184
16193TIP3    H269995   0.366   5.753   0.050  0.6157 -0.2276 -2.3283
16194TIP3   OH269996   3.350   2.177   1.042 -0.2130 -0.4008 -0.1060
16194TIP3    H169997   3.350   2.222   0.957 -1.0952  1.5281  0.8867
16194TIP3    H269998   3.257   2.167   1.063 -0.0038  0.3672  1.2496
16195TIP3   OH269999   4.440   3.683  14.183 -0.4655 -0.5346  0.3559
16195TIP3    H170000   4.401   3.621  14.122 -0.9116 -0.8993  1.0065
16195TIP3    H270001   4.388   3.763  14.173 -1.0834 -0.8732  0.8889
16196TIP3   OH270002   0.554   4.196   2.769 -0.7247 -0.3866 -0.4908
16196TIP3    H170003   0.634   4.178   2.719 -0.6319 -0.2142 -0.4048
16196TIP3    H270004   0.485   4.152   2.720 -0.6326 -0.2230 -0.7650
16197TIP3   OH270005   1.870   1.750  15.348 -0.3964  0.2774 -0.3095
16197TIP3    H170006   1.863   1.677  15.409 -1.7756 -0.6130 -1.5071
16197TIP3    H270007   1.859   1.828  15.402  0.7759 -0.3986  0.9307
16198TIP3   OH270008   5.248   1.658  14.097  0.1878 -0.2600  0.1936
16198TIP3    H170009   5.263   1.577  14.144  2.2346  0.9487  1.7191
16198TIP3    H270010   5.292   1.646  14.013 -1.0546 -1.3711 -0.3102
16199TIP3   OH270011   2.973   0.289   5.859  0.2179 -0.2637  0.1101
16199TIP3    H170012   2.964   0.337   5.777  0.0378 -1.2817 -0.4836
16199TIP3    H270013   3.066   0.265   5.863  0.2719 -0.0288  0.3199
16200TIP3   OH270014   2.239   0.127   0.699 -0.0666  0.1828  1.0068
16200TIP3    H170015   2.210   0.036   0.702 -0.0854  0.1659  0.3751
16200TIP3    H270016   2.280   0.136   0.613 -0.9330  1.0299  0.6710
16201TIP3   OH270017   3.491   0.185  10.901  0.0700 -0.6112 -0.1217
16201TIP3    H170018   3.414   0.152  10.855 -0.4875 -0.0900  0.4309
16201TIP3    H270019   3.506   0.271  10.863  0.9614 -1.0943 -0.8989
16202TIP3   OH270020   1.902   3.240   1.922  0.0805 -0.2598 -0.4678
16202TIP3    H170021   1.895   3.218   1.829 -0.4174  4.1054 -1.5564
16202TIP3    H270022   1.992   3.271   1.932  0.6135 -2.2031  0.8834
16203TIP3   OH270023   0.654   6.467   2.364 -0.0298 -0.9609  0.4766
16203TIP3    H170024   0.584   6.430   2.310  0.0714  1.3081 -1.2772
16203TIP3    H270025   0.675   6.550   2.322  2.5185 -0.7940  2.0052
16204TIP3   OH270026   1.514   0.310   2.940  0.5097  0.0041  0.2533
16204TIP3    H170027   1.583   0.315   2.875 -0.0134 -0.6475 -0.3567
16204TIP3    H270028   1.536   0.233   2.993 -0.8308 -1.4715 -1.2319
16205TIP3   OH270029   2.732   5.056  11.224  0.1923  0.1858  0.0026
16205TIP3    H170030   2.666   5.117  11.257  0.5988  1.5506 -1.6642
16205TIP3    H270031   2.815   5.091  11.256  0.1491 -1.4979  2.0486
16206TIP3   OH270032   5.917   1.673   5.561  0.1447  0.2377  0.0092
16206TIP3    H170033   5.876   1.673   5.647 -0.4388 -2.1732 -0.2453
16206TIP3    H270034   6.011   1.678   5.579 -0.0277  0.9957  0.7259
16207TIP3   OH270035   6.661   6.782  11.537 -0.2748 -0.2813 -0.4768
16207TIP3    H170036   6.594   6.849  11.547  0.6274  0.5842 -0.1656
16207TIP3    H270037   6.630   6.727  11.465 -2.3606 -1.1726  1.0463
16208TIP3   OH270038   4.046   5.825  13.899 -0.1828 -0.3704  0.0578
16208TIP3    H170039   3.968   5.803  13.950  0.0999  0.0733  0.6940
16208TIP3    H270040   4.013   5.877  13.825 -0.7097 -1.8932 -0.7936
16209TIP3   OH270041   4.668   3.795  13.221 -0.2106  0.4520 -0.3339
16209TIP3    H170042   4.711   3.722  13.176  1.6038  0.4065  1.4073
16209TIP3    H270043   4.610   3.753  13.284  2.7123  0.3879  2.4667
16210TIP3   OH270044   5.950   3.656   1.802  0.4886  0.2190 -0.8415
16210TIP3    H170045   5.882   3.623   1.861  0.1867  0.7949 -0.8628
16210TIP3    H270046   5.948   3.596   1.728 -1.2972  1.2951 -1.7128
16211TIP3   OH270047   2.104   1.834   2.864  0.1597 -0.1689 -0.2772
16211TIP3    H170048   2.147   1.776   2.926 -1.3833 -0.0019  0.9924
16211TIP3    H270049   2.109   1.921   2.903  0.2451  0.1397 -0.9600
16212TIP3   OH270050   4.685   0.378   5.601  0.2634 -0.5631 -0.6650
16212TIP3    H170051   4.768   0.342   5.633 -0.8604 -1.8839  0.8837
16212TIP3    H270052   4.674   0.460   5.650 -0.1802 -1.2644  0.4214
16213TIP3   OH270053   4.768   4.786  15.208  0.3938 -0.3403 -0.4168
16213TIP3    H170054   4.846   4.819  15.253  0.7866 -1.3227 -0.3637
16213TIP3    H270055   4.737   4.859  15.155  2.6479 -0.6003 -2.1807
16214TIP3   OH270056   5.259   5.701   3.244  0.2421 -0.8018 -0.1716
16214TIP3    H170057   5.287   5.735   3.159 -1.4917 -1.0278 -0.8575
16214TIP3    H270058   5.338   5.702   3.298  0.9941  0.8840 -1.2844
16215TIP3   OH270059   5.200   6.719  15.727 -0.9284 -0.0193 -0.0997
16215TIP3    H170060   5.187   6.798  15.779  0.7618 -0.3167  0.7847
16215TIP3    H270061   5.190   6.647  15.789 -1.0947 -0.4641 -0.6359
16216TIP3   OH270062   5.933   3.330   2.186  0.2517 -0.0526 -0.3985
16216TIP3    H170063   6.003   3.383   2.224 -0.0261 -0.8481  1.2360
16216TIP3    H270064   5.852   3.371   2.217 -0.0490  1.0692 -2.5615
16217TIP3   OH270065   5.255   1.274  13.160  0.4279  0.1686  0.7228
16217TIP3    H170066   5.319   1.219  13.205 -0.1751  0.4753  1.9814
16217TIP3    H270067   5.195   1.213  13.119  0.1691 -0.1218  1.5233
16218TIP3   OH270068   3.028   5.298  16.459 -0.0404  0.0875  0.3419
16218TIP3    H170069   3.032   5.238  16.534 -1.1635  0.0679  0.3974
16218TIP3    H270070   2.938   5.291  16.429  0.4208  0.0801 -1.0378
16219TIP3   OH270071   5.650   3.545   4.201 -0.2522 -0.0556 -0.1382
16219TIP3    H170072   5.593   3.619   4.220 -0.6838 -0.4992  0.3270
16219TIP3    H270073   5.650   3.539   4.105  0.2918  0.9270 -0.2041
16220TIP3   OH270074   1.561   5.345   5.113  0.1166  0.0866 -0.5863
16220TIP3    H170075   1.528   5.255   5.108 -0.7707  0.4387 -1.2206
16220TIP3    H270076   1.490   5.394   5.155  1.8652 -0.1023  2.8256
16221TIP3   OH270077   3.109   6.767   2.344  0.7165  0.3467  1.3448
16221TIP3    H170078   3.120   6.808   2.429 -1.4126  3.5355  0.1831
16221TIP3    H270079   3.014   6.764   2.330  1.0149 -0.3534 -0.7634
16222TIP3   OH270080   4.727   0.392   0.336  0.3829  0.3198  0.2093
16222TIP3    H170081   4.792   0.462   0.340  0.2655  0.3610  3.9691
16222TIP3    H270082   4.643   0.437   0.339  0.2912  0.1138  0.9892
16223TIP3   OH270083   4.297   0.526  10.424 -0.6058  0.3294 -0.1413
16223TIP3    H170084   4.357   0.563  10.488  0.0165  0.1258 -0.5995
16223TIP3    H270085   4.211   0.554  10.453 -0.4315 -0.7401  1.4433
16224TIP3   OH270086   5.236   5.938  16.937 -0.1721 -0.0160 -0.0658
16224TIP3    H170087   5.291   6.013  16.913 -1.2676  0.6709 -0.5027
16224TIP3    H270088   5.188   5.968  17.014 -2.4910  0.6936 -1.7403
16225TIP3   OH270089   5.668   4.524   2.672  0.0093 -0.4167  0.7008
16225TIP3    H170090   5.682   4.453   2.610 -1.8122  0.3128 -0.5824
16225TIP3    H270091   5.573   4.534   2.676  0.2832  3.3899 -0.7782
16226TIP3   OH270092   4.714   5.801   0.953 -0.3401  0.2880  0.5790
16226TIP3    H170093   4.693   5.742   0.881  1.2614 -0.0603  0.3787
16226TIP3    H270094   4.655   5.774   1.024  1.1501 -2.3635  0.8782
16227TIP3   OH270095   3.383   0.237   1.686  0.2825  0.4097  0.3193
16227TIP3    H170096   3.464   0.261   1.640  0.4429  1.7282  1.2337
16227TIP3    H270097   3.412   0.177   1.754  0.4874  0.8301  0.6066
16228TIP3   OH270098   3.012   6.613   0.369 -0.4639  0.4025 -0.1594
16228TIP3    H170099   3.049   6.537   0.413 -0.6816  0.1390 -0.4249
16228TIP3    H270100   3.062   6.687   0.402 -0.2242  0.1386  0.0724
16229TIP3   OH270101   4.455   3.176   0.986  0.3646 -0.0661 -0.0643
16229TIP3    H170102   4.414   3.234   0.921 -0.8226 -1.2296 -0.3705
16229TIP3    H270103   4.544   3.162   0.952  0.3053  0.6906 -0.5568
16230TIP3   OH270104   5.072   5.853  13.354 -0.4353  0.4069 -0.2392
16230TIP3    H170105   5.044   5.775  13.402 -2.0039 -0.0075 -1.7552
16230TIP3    H270106   5.107   5.912  13.421 -0.7708 -0.9239  1.1318
16231TIP3   OH270107   0.030   0.862   0.567  0.1488  0.0405  0.0598
16231TIP3    H170108   0.065   0.874   0.479  0.5887  1.1902  0.3812
16231TIP3    H270109   0.074   0.928   0.620 -1.3408  0.4749  0.8034
16232TIP3   OH270110   2.196   5.038   0.943 -0.1983  0.1508 -0.0103
16232TIP3    H170111   2.250   5.018   0.866 -1.1503  0.7263 -0.8343
16232TIP3    H270112   2.164   4.952   0.972 -1.2310  0.0929 -1.2871
16233TIP3   OH270113   0.792   1.897  11.372  0.3091  0.0273 -0.0433
16233TIP3    H170114   0.861   1.885  11.307  0.2392 -0.0582 -0.1017
16233TIP3    H270115   0.718   1.934  11.322  0.3046  0.0954  0.0126
16234TIP3   OH270116   2.314   3.292   6.067 -0.0941  0.1183  0.0762
16234TIP3    H170117   2.248   3.324   6.129  0.0141 -0.2892  0.4000
16234TIP3    H270118   2.264   3.272   5.988 -0.3731 -0.2762  0.3519
16235TIP3   OH270119   0.817   3.224  14.585 -0.2903 -0.0605 -0.8619
16235TIP3    H170120   0.911   3.234  14.594  0.1582 -2.6800 -2.1757
16235TIP3    H270121   0.782   3.251  14.670  1.6241  0.8380 -0.3298
16236TIP3   OH270122   5.669   5.021  12.362  0.2992  0.0551  0.4408
16236TIP3    H170123   5.600   5.053  12.304  1.8221  0.4224 -1.2009
16236TIP3    H270124   5.662   4.926  12.358  0.1087  0.0880  0.0128
16237TIP3   OH270125   6.590   3.847   4.831  0.2731  0.1682 -0.6658
16237TIP3    H170126   6.564   3.759   4.860  1.1531 -0.3424 -1.3878
16237TIP3    H270127   6.510   3.886   4.798 -0.3542  0.0436  0.6786
16238TIP3   OH270128   3.383   0.129  16.588 -0.0876 -0.2851  0.0806
16238TIP3    H170129   3.323   0.064  16.626 -1.1079  0.1363 -0.7708
16238TIP3    H270130   3.445   0.077  16.537 -0.4417 -0.6557  0.0202
16239TIP3   OH270131   2.784   0.277  15.436  0.2945  0.5200  0.1661
16239TIP3    H170132   2.851   0.339  15.462  1.0631 -0.2550  0.0645
16239TIP3    H270133   2.725   0.271  15.511  0.6175  0.8307  0.4405
16240TIP3   OH270134   5.118   3.899  15.205 -0.5179  1.1562 -0.6005
16240TIP3    H170135   5.026   3.926  15.205 -0.4880  1.2578 -0.7460
16240TIP3    H270136   5.161   3.963  15.262 -0.3154  1.8710 -1.5423
16241TIP3   OH270137   2.028   6.466   5.442 -0.1863  0.7864  0.1088
16241TIP3    H170138   2.085   6.404   5.486 -0.7312 -0.8335 -1.3898
16241TIP3    H270139   1.986   6.415   5.372 -3.1265  2.0065  0.8908
16242TIP3   OH270140   2.059   5.782   2.663 -0.6146 -0.6333 -0.0705
16242TIP3    H170141   2.036   5.852   2.603 -1.5394 -1.5289 -0.7692
16242TIP3    H270142   1.983   5.723   2.663 -0.6014 -0.7003  1.8863
16243TIP3   OH270143   4.453   3.196   2.309 -0.9948 -0.3579 -0.1778
16243TIP3    H170144   4.408   3.279   2.325 -0.1532  0.0539  0.0648
16243TIP3    H270145   4.445   3.182   2.215 -0.2370  0.5224 -0.3757
16244TIP3   OH270146   4.189   1.425   1.677  0.0650  0.3651  0.2031
16244TIP3    H170147   4.285   1.431   1.680  0.1343 -0.9724  1.7337
16244TIP3    H270148   4.171   1.374   1.598  0.6183  0.6013 -0.0804
16245TIP3   OH270149   1.122   4.324  13.867  0.3085 -0.0740 -0.3753
16245TIP3    H170150   1.048   4.280  13.908 -0.5263  0.8757 -0.8315
16245TIP3    H270151   1.192   4.259  13.867 -1.0430 -1.5802 -1.4769
16246TIP3   OH270152   3.014   2.446  10.999 -0.3339  0.0227 -0.0285
16246TIP3    H170153   3.070   2.438  10.922  0.7345 -1.2690  0.8620
16246TIP3    H270154   3.011   2.540  11.017  1.1180  0.1381 -0.3886
16247TIP3   OH270155   4.885   6.345  13.450 -0.3211 -0.0216  0.1268
16247TIP3    H170156   4.834   6.315  13.374  0.7301  0.2833 -0.7176
16247TIP3    H270157   4.911   6.265  13.495 -1.9531 -0.1571  0.8323
16248TIP3   OH270158   3.612   1.513  13.983 -0.4409 -0.1139  1.0658
16248TIP3    H170159   3.598   1.551  14.070 -0.0678  1.5882  0.3906
16248TIP3    H270160   3.525   1.516  13.942 -0.1374  1.3863  0.4868
16249TIP3   OH270161   6.323   5.613   6.303 -0.0687 -0.0955 -0.3496
16249TIP3    H170162   6.291   5.611   6.394  0.1556 -1.3359 -0.2878
16249TIP3    H270163   6.275   5.543   6.259  0.1663  0.1917 -1.0706
16250TIP3   OH270164   4.842   6.643   3.078 -0.3515 -0.4149 -0.4503
16250TIP3    H170165   4.901   6.569   3.065 -0.4929 -0.6774  0.3705
16250TIP3    H270166   4.844   6.659   3.173 -1.3004 -0.1882 -0.4611
16251TIP3   OH270167   4.161   4.305   3.070 -0.3642 -0.1287  0.0808
16251TIP3    H170168   4.194   4.302   2.980  1.2152 -2.4563  0.7104
16251TIP3    H270169   4.150   4.398   3.088  1.5358  0.4849 -1.7230
16252TIP3   OH270170   1.739   4.726  13.796  0.3566 -0.3520  0.2966
16252TIP3    H170171   1.827   4.745  13.830  0.0154  1.4637  0.2431
16252TIP3    H270172   1.743   4.751  13.704 -0.6590  1.3729  0.6798
16253TIP3   OH270173   1.946   4.580   3.619 -0.2239 -0.6594  0.2123
16253TIP3    H170174   1.864   4.561   3.573 -1.3349  1.8403  1.0215
16253TIP3    H270175   1.920   4.644   3.686  2.3504 -0.0417  0.6544
16254TIP3   OH270176   3.423   6.716  16.290  0.3039 -0.8163  0.0657
16254TIP3    H170177   3.355   6.654  16.265 -0.1282  0.0813 -0.9973
16254TIP3    H270178   3.500   6.661  16.307 -0.1892 -1.6794 -0.4563
16255TIP3   OH270179   5.668   4.041   4.955  0.0265  0.7158  0.1077
16255TIP3    H170180   5.665   4.028   4.860  0.9942 -0.3411  0.2177
16255TIP3    H270181   5.761   4.037   4.977 -0.3047 -0.6041  1.3175
16256TIP3   OH270182   6.783   5.289   1.725  0.3409  0.4474  0.4542
16256TIP3    H170183   6.840   5.289   1.802 -0.1313  1.3465  0.8063
16256TIP3    H270184   6.738   5.204   1.728  0.6597  0.2946  0.9137
16257TIP3   OH270185   1.225   2.142  16.463 -0.1164 -0.3663 -0.2900
16257TIP3    H170186   1.294   2.159  16.527 -1.5580  1.9012  0.7219
16257TIP3    H270187   1.165   2.083  16.507  0.0391 -0.5916 -0.3765
16258TIP3   OH270188   3.387   3.466   1.550  0.3380  0.4104 -0.7825
16258TIP3    H170189   3.326   3.434   1.616 -0.8324  1.9565 -1.0746
16258TIP3    H270190   3.434   3.536   1.594  1.2979 -0.1998 -0.8337
16259TIP3   OH270191   2.670   1.907   4.294 -0.0785  0.3539 -0.4789
16259TIP3    H170192   2.744   1.966   4.301  0.3117 -0.2182  0.2389
16259TIP3    H270193   2.601   1.949   4.346 -0.1307  0.6788 -0.8074
16260TIP3   OH270194   5.594   2.335   4.435 -0.0508  0.2106 -0.1947
16260TIP3    H170195   5.596   2.274   4.361  0.6341  0.3763 -0.3174
16260TIP3    H270196   5.504   2.331   4.468  0.2345 -1.6311  0.4256
16261TIP3   OH270197   4.350   2.514  14.015 -0.3659  0.5176  0.4237
16261TIP3    H170198   4.329   2.548  14.102  1.3466 -0.4609  1.2500
16261TIP3    H270199   4.362   2.420  14.027  0.5126  0.4549 -0.7331
16262TIP3   OH270200   1.512   5.324   4.822  0.3404 -0.3823 -0.2201
16262TIP3    H170201   1.434   5.294   4.869  0.1435  0.3872 -0.0452
16262TIP3    H270202   1.482   5.400   4.772  0.8806 -0.3459 -0.4913
16263TIP3   OH270203   1.902   1.821   3.970  0.4917  0.1145  0.0008
16263TIP3    H170204   1.990   1.858   3.981  0.2830  0.1525  1.6696
16263TIP3    H270205   1.844   1.888   4.006 -0.0908 -0.6605  0.5029
16264TIP3   OH270206   5.334   1.410  11.361  0.2948  0.1666 -0.4526
16264TIP3    H170207   5.326   1.348  11.288  1.4471  0.1794 -0.6082
16264TIP3    H270208   5.426   1.439  11.358  0.8007 -1.0487  1.9912
16265TIP3   OH270209   2.802   4.886   6.453  0.7424 -0.1857  0.2142
16265TIP3    H170210   2.809   4.971   6.497 -2.5366  0.5760 -0.6057
16265TIP3    H270211   2.710   4.860   6.466  1.5475 -3.3423 -0.0498
16266TIP3   OH270212   5.502   1.615  13.694  0.3131  0.3079  0.1872
16266TIP3    H170213   5.530   1.569  13.615 -1.6199  0.2698 -0.5074
16266TIP3    H270214   5.501   1.547  13.762 -0.0576 -0.1216 -0.2446
16267TIP3   OH270215   5.552   2.120   3.164 -0.2983 -0.0428  0.6530
16267TIP3    H170216   5.555   2.025   3.152  1.6039 -0.0560  1.1044
16267TIP3    H270217   5.539   2.155   3.076 -0.7746 -0.7075  0.4560
16268TIP3   OH270218   4.198   4.624  12.874  0.0606  0.3386  0.0879
16268TIP3    H170219   4.239   4.651  12.792  1.5385 -0.0295  0.6759
16268TIP3    H270220   4.175   4.706  12.918  1.2640  0.5970  0.2650
16269TIP3   OH270221   3.772   3.505   2.248  0.7032  0.4208  0.7672
16269TIP3    H170222   3.744   3.413   2.250  0.5365  0.4518 -0.1725
16269TIP3    H270223   3.709   3.549   2.191  1.3307  0.9376  0.4676
16270TIP3   OH270224   4.088   5.745   2.913 -0.1175 -0.4738  0.4340
16270TIP3    H170225   4.157   5.686   2.944 -0.7097 -1.4595 -0.1086
16270TIP3    H270226   4.116   5.770   2.825 -1.4488 -2.4979 -0.5946
16271TIP3   OH270227   3.011   6.388  12.855  0.3165 -0.3115 -0.0544
16271TIP3    H170228   3.078   6.426  12.798  0.2707 -2.1609 -1.3672
16271TIP3    H270229   3.059   6.331  12.915  0.2024  0.4931  0.8160
16272TIP3   OH270230   1.988   5.155  11.263  0.0036 -0.1039  0.4026
16272TIP3    H170231   1.995   5.130  11.355  0.6118 -1.8014 -0.0875
16272TIP3    H270232   2.077   5.145  11.229 -0.1396  0.9172 -0.2689
16273TIP3   OH270233   2.600   4.770   3.801  0.1191  0.6964  0.1732
16273TIP3    H170234   2.521   4.722   3.825  1.3714 -1.8442 -0.5985
16273TIP3    H270235   2.612   4.750   3.708  1.4686  1.3659  0.1935
16274TIP3   OH270236   0.220   1.754   3.936  0.3868 -0.9097 -0.0360
16274TIP3    H170237   0.265   1.825   3.891 -2.2338  1.2311  0.6298
16274TIP3    H270238   0.285   1.720   3.998  1.6359  0.9338 -0.3032
16275TIP3   OH270239   2.068   0.259   5.159 -0.3636  0.0511  0.2681
16275TIP3    H170240   2.132   0.188   5.173 -0.1277  0.3821  0.8812
16275TIP3    H270241   2.122   0.338   5.157 -0.6226  0.2107 -0.4820
16276TIP3   OH270242   6.422   0.539   5.245 -0.4894  0.0867 -0.2114
16276TIP3    H170243   6.468   0.552   5.328  0.2839  0.6714 -0.7188
16276TIP3    H270244   6.492   0.515   5.183 -0.9516  0.3946 -0.8561
16277TIP3   OH270245   3.655   6.720  11.790 -0.0985 -0.0779  0.4184
16277TIP3    H170246   3.739   6.680  11.768 -0.2582 -0.6793  0.8814
16277TIP3    H270247   3.651   6.799  11.737  1.0381  0.2826  0.8750
16278TIP3   OH270248   1.676   3.548   5.672  0.0876 -0.7098 -0.1887
16278TIP3    H170249   1.770   3.552   5.691  0.0515  2.1535 -0.3127
16278TIP3    H270250   1.670   3.569   5.579 -0.7357  0.6380  0.1443
16279TIP3   OH270251   0.268   3.863  14.334  0.0109  0.2272  0.3047
16279TIP3    H170252   0.257   3.874  14.428  1.2839  1.1875  0.3539
16279TIP3    H270253   0.313   3.779  14.325 -1.1054 -0.4084  0.4689
16280TIP3   OH270254   6.251   3.489   4.832 -0.6994  0.2191  0.4580
16280TIP3    H170255   6.200   3.555   4.879  0.0909  1.7794 -0.8086
16280TIP3    H270256   6.271   3.530   4.748  0.4307 -1.3696 -0.0693
16281TIP3   OH270257   3.024   0.435   1.022  0.2211  0.2075 -0.4659
16281TIP3    H170258   2.953   0.407   1.080 -1.5779  1.8256 -1.8232
16281TIP3    H270259   3.103   0.398   1.061 -1.3856 -1.7952  0.9798
16282TIP3   OH270260   5.584   1.949   5.703 -0.3154 -0.2947 -0.0274
16282TIP3    H170261   5.659   2.002   5.678  0.7372 -0.9821  1.5523
16282TIP3    H270262   5.573   1.888   5.630  1.4127 -0.9406  0.2057
16283TIP3   OH270263   3.245   4.855  14.522  0.2330 -0.3655 -0.4114
16283TIP3    H170264   3.167   4.834  14.573 -0.3751 -0.3149 -1.2992
16283TIP3    H270265   3.318   4.838  14.581 -0.4897  0.6085  0.7963
16284TIP3   OH270266   6.074   1.608  12.130 -0.7267 -0.7295  0.3453
16284TIP3    H170267   6.055   1.685  12.077 -0.3803 -0.0714  1.1587
16284TIP3    H270268   6.163   1.623  12.163  0.6811 -3.0513 -2.1777
16285TIP3   OH270269   2.609   1.264  11.092  0.3688  0.4592  0.1242
16285TIP3    H170270   2.555   1.188  11.115  0.5710  0.5888  1.0734
16285TIP3    H270271   2.553   1.319  11.038  0.1170 -0.2232 -0.3028
16286TIP3   OH270272   6.752   1.435  15.278 -0.1745 -0.1524  0.5388
16286TIP3    H170273   6.698   1.502  15.321  0.2931 -1.2150  2.8690
16286TIP3    H270274   6.838   1.476  15.269 -0.7146  0.6870 -0.9966
16287TIP3   OH270275   1.802   0.725  13.887  0.5345 -0.1024  0.4776
16287TIP3    H170276   1.831   0.727  13.978  1.1187  0.9819  0.2785
16287TIP3    H270277   1.794   0.632  13.866  0.9902 -0.3635  1.4503
16288TIP3   OH270278   4.327   2.259   3.869  0.4015 -0.3248 -0.5283
16288TIP3    H170279   4.419   2.233   3.875  0.6863  0.1624 -2.3685
16288TIP3    H270280   4.281   2.199   3.928  1.8266 -0.9103  0.0083
16289TIP3   OH270281   3.321   2.559   3.815 -0.3640  0.2260  0.5308
16289TIP3    H170282   3.341   2.492   3.880 -0.3905  0.3967  0.7158
16289TIP3    H270283   3.280   2.630   3.865 -0.3753  0.3617  0.3308
16290TIP3   OH270284   3.872   4.271  13.029  0.4901 -0.1563 -0.0253
16290TIP3    H170285   3.888   4.194  13.083  2.4812  0.0392 -0.2817
16290TIP3    H270286   3.832   4.334  13.088  3.2690  0.3084  1.4636
16291TIP3   OH270287   4.731   0.778  11.991  0.0555  0.1701  0.0110
16291TIP3    H170288   4.813   0.823  11.977  1.1801 -1.9159 -0.3317
16291TIP3    H270289   4.665   0.834  11.951  1.1416  2.4456  1.3420
16292TIP3   OH270290   0.923   0.188  17.003  0.2500  0.0137 -0.1205
16292TIP3    H170291   0.999   0.141  16.970  0.7538  0.4279  0.4374
16292TIP3    H270292   0.853   0.123  17.004  0.6213 -0.3943 -0.5464
16293TIP3   OH270293   4.658   3.036  15.424 -0.2983  0.2220  0.4715
16293TIP3    H170294   4.677   2.942  15.417 -1.0930  0.1846 -1.6158
16293TIP3    H270295   4.584   3.050  15.364  0.1570  2.2685  0.3562
16294TIP3   OH270296   2.431   6.621  16.573 -1.1988 -0.8221 -0.1004
16294TIP3    H170297   2.433   6.554  16.641  3.2509  0.5987  1.3333
16294TIP3    H270298   2.397   6.699  16.617  0.9020 -0.1279  0.3628
16295TIP3   OH270299   1.324   5.504   2.706 -0.2851 -0.0297 -0.5166
16295TIP3    H170300   1.252   5.471   2.759 -0.4077 -0.5863 -1.0247
16295TIP3    H270301   1.285   5.574   2.653 -0.8208 -1.3274 -1.8839
16296TIP3   OH270302   3.185   0.895   5.309  0.0252  0.1175  0.6507
16296TIP3    H170303   3.158   0.842   5.234  0.1730  0.9536  0.0003
16296TIP3    H270304   3.141   0.979   5.296 -0.6988 -0.0427  2.0014
16297TIP3   OH270305   4.390   6.109   1.397 -0.3181  0.0568 -0.3004
16297TIP3    H170306   4.407   6.054   1.320 -0.0499  0.4105 -0.4970
16297TIP3    H270307   4.300   6.140   1.384  0.1578  1.1103 -1.0967
16298TIP3   OH270308   4.767   2.604  13.334  0.4986  0.3569  0.3601
16298TIP3    H170309   4.697   2.644  13.385  1.7964  1.1888  1.5215
16298TIP3    H270310   4.760   2.645  13.248 -1.9845 -1.3852 -0.3309
16299TIP3   OH270311   1.472   6.649   1.906 -0.3215  0.6806 -0.2763
16299TIP3    H170312   1.404   6.657   1.838  0.2133  0.5228 -0.8380
16299TIP3    H270313   1.535   6.718   1.884 -0.3649  0.9082  0.3185
16300TIP3   OH270314   4.001   2.588   1.386  0.3772  0.5260  0.0665
16300TIP3    H170315   4.005   2.515   1.447  0.3775  0.4196 -0.0616
16300TIP3    H270316   4.090   2.595   1.351  0.5857  1.1172  0.7030
16301TIP3   OH270317   5.974   6.681  16.134  0.2973 -0.2635 -0.1140
16301TIP3    H170318   6.067   6.660  16.132  0.1194 -1.0517 -0.0745
16301TIP3    H270319   5.951   6.679  16.227  0.5531  1.3131 -0.0042
16302TIP3   OH270320   0.665   0.552   3.185  0.2275  0.4337  0.1721
16302TIP3    H170321   0.629   0.484   3.242  1.1916  0.2971  0.6266
16302TIP3    H270322   0.601   0.560   3.114 -2.4473  2.6158  2.7106
16303TIP3   OH270323   5.491   3.537  13.343 -0.1430 -0.3750 -0.3573
16303TIP3    H170324   5.570   3.483  13.342 -0.2345 -0.5257  0.2830
16303TIP3    H270325   5.521   3.623  13.314  0.1919 -0.5199 -0.4474
16304TIP3   OH270326   5.138   6.101   0.256 -0.3957  0.5063 -0.9235
16304TIP3    H170327   5.080   6.166   0.217 -0.1534  0.7292 -0.9126
16304TIP3    H270328   5.090   6.070   0.334 -2.2346 -2.1601 -3.0347
16305TIP3   OH270329   4.064   0.347   1.533  0.5184  0.4779  0.4009
16305TIP3    H170330   4.078   0.372   1.442  0.1543  0.3342  0.3080
16305TIP3    H270331   4.044   0.430   1.577 -0.1668  0.4285  0.1884
16306TIP3   OH270332   2.484   6.568   2.352 -0.0562 -0.5337 -0.2625
16306TIP3    H170333   2.424   6.566   2.277 -1.5448 -1.2102  0.9055
16306TIP3    H270334   2.457   6.645   2.403  1.7131  0.6103 -1.0099
16307TIP3   OH270335   0.493   4.766   5.672  0.6399 -0.5810 -0.2206
16307TIP3    H170336   0.408   4.734   5.703 -0.3967  1.0391 -1.2697
16307TIP3    H270337   0.557   4.728   5.732 -0.9381 -0.8969  1.3087
16308TIP3   OH270338   3.009   5.049  14.307  0.1012 -0.0221  0.8010
16308TIP3    H170339   3.018   5.054  14.403  0.8689 -0.3923  0.7565
16308TIP3    H270340   3.016   4.955  14.288  0.7738  0.1257  0.3100
16309TIP3   OH270341   4.579   2.004   4.128 -0.2892 -0.3768  0.1101
16309TIP3    H170342   4.523   2.008   4.205  0.6694 -0.5340  0.8168
16309TIP3    H270343   4.518   1.994   4.054 -1.4504  3.2879  0.4793
16310TIP3   OH270344   4.873   1.700  12.712  0.4391  0.7201 -0.2194
16310TIP3    H170345   4.863   1.698  12.617  1.3652  0.3018 -0.3132
16310TIP3    H270346   4.903   1.788  12.732  2.5454  0.1102 -0.5673
16311TIP3   OH270347   5.043   3.885  14.027 -0.4416 -0.0450  0.1799
16311TIP3    H170348   5.121   3.848  13.987 -2.0628 -1.2160 -2.0120
16311TIP3    H270349   5.060   3.882  14.121  1.5182 -1.6853 -0.2062
16312TIP3   OH270350   0.043   3.847  11.936 -0.3563 -0.4055  0.1265
16312TIP3    H170351   0.138   3.835  11.931 -0.2149  0.5290  0.4566
16312TIP3    H270352   0.006   3.761  11.914  0.5321 -0.4305 -1.3476
16313TIP3   OH270353   5.700   0.518   3.956  0.7427  0.0811 -0.1820
16313TIP3    H170354   5.774   0.542   3.900  1.2194 -0.1430  0.3446
16313TIP3    H270355   5.738   0.459   4.021  0.1312  0.1054  0.1969
16314TIP3   OH270356   1.457   1.882   5.312  0.2233 -0.3188 -0.4188
16314TIP3    H170357   1.520   1.826   5.266  1.8323  0.4459  0.8360
16314TIP3    H270358   1.459   1.852   5.403  0.6761  1.3770  0.1532
16315TIP3   OH270359   1.973   6.026   5.459  0.7350  0.0702 -0.2403
16315TIP3    H170360   1.890   5.989   5.431  0.1437  0.7307  0.6248
16315TIP3    H270361   2.026   6.031   5.379 -0.3467  0.4032 -0.9385
16316TIP3   OH270362   0.437   1.590  16.212 -0.3550 -0.1133  0.0846
16316TIP3    H170363   0.377   1.643  16.160  2.3558  0.3897 -2.7028
16316TIP3    H270364   0.381   1.526  16.255 -2.9733  0.8745 -1.7080
16317TIP3   OH270365   2.320   6.621  14.836 -0.0792  0.4127 -0.0158
16317TIP3    H170366   2.332   6.660  14.749  2.8076  1.1191  0.6232
16317TIP3    H270367   2.231   6.586  14.835 -0.3340  1.0022 -3.0131
16318TIP3   OH270368   2.960   4.949   0.659 -0.0169  0.1382 -0.5867
16318TIP3    H170369   2.908   4.984   0.586 -2.2883 -0.4766  0.7072
16318TIP3    H270370   2.958   5.018   0.725  1.4748  0.4139 -0.8114
16319TIP3   OH270371   1.458   1.365   6.031  0.0156  0.3088 -0.8076
16319TIP3    H170372   1.554   1.365   6.033  0.0136  0.5549 -0.6984
16319TIP3    H270373   1.432   1.394   6.118 -0.1966 -2.5215  0.1153
16320TIP3   OH270374   0.551   5.407  16.033  0.4237 -0.4769 -0.5816
16320TIP3    H170375   0.643   5.387  16.052  1.0230  1.2121 -1.5880
16320TIP3    H270376   0.513   5.430  16.118  0.7200 -1.9515 -0.0448
16321TIP3   OH270377   4.556   6.529  11.422  0.1446 -0.4568 -0.8999
16321TIP3    H170378   4.598   6.548  11.505  2.6549  0.3701 -2.3120
16321TIP3    H270379   4.511   6.445  11.436 -1.1055  0.6338  1.8318
16322TIP3   OH270380   0.628   2.888   6.125  0.0857 -0.3675 -0.7727
16322TIP3    H170381   0.718   2.907   6.151 -1.3545 -0.5323  4.9313
16322TIP3    H270382   0.633   2.800   6.087  2.5910  0.4504 -2.5093
16323TIP3   OH270383   3.949   2.942  14.711  0.6333 -0.5926  0.0382
16323TIP3    H170384   3.937   2.849  14.691 -2.2088  0.0180 -1.2767
16323TIP3    H270385   3.868   2.967  14.755  0.2896  1.8712 -1.9244
16324TIP3   OH270386   2.287   1.381   0.376 -0.4166 -0.1449  0.2662
16324TIP3    H170387   2.315   1.432   0.300 -1.1029  0.8257  0.6519
16324TIP3    H270388   2.364   1.329   0.400 -0.1648 -0.3717 -1.0184
16325TIP3   OH270389   5.128   4.973  16.047  0.0528  0.6033  0.1595
16325TIP3    H170390   5.110   4.930  16.131  1.0934  1.0138  0.6023
16325TIP3    H270391   5.224   4.980  16.044  0.1920 -1.5369 -2.1460
16326TIP3   OH270392   4.689   2.637   0.380  0.2807  0.3640 -0.0922
16326TIP3    H170393   4.707   2.545   0.400  0.0348 -0.0793 -1.8466
16326TIP3    H270394   4.768   2.683   0.408  1.7988 -0.8125 -2.3125
16327TIP3   OH270395   3.403   0.572  14.455 -0.1747 -0.0343 -0.1948
16327TIP3    H170396   3.316   0.612  14.457 -0.6819 -1.1283  0.0772
16327TIP3    H270397   3.391   0.488  14.500  0.2423 -1.7762 -3.2170
16328TIP3   OH270398   5.317   4.395   4.530  0.2313 -0.1254  0.2228
16328TIP3    H170399   5.264   4.315   4.532 -0.0743  0.0749  0.1156
16328TIP3    H270400   5.296   4.440   4.611 -1.5477  1.1079 -0.8911
16329TIP3   OH270401   4.666   3.115  17.015 -0.0901 -0.2424  0.7770
16329TIP3    H170402   4.674   3.027  17.052  1.0160 -1.3279 -1.8859
16329TIP3    H270403   4.572   3.134  17.016 -0.7874 -3.0768 -2.0501
16330TIP3   OH270404   4.662   0.293   3.024  0.4206 -0.4374  0.0642
16330TIP3    H170405   4.584   0.249   2.990  1.4671 -2.0672 -0.3181
16330TIP3    H270406   4.701   0.230   3.084  2.0355 -0.0985 -0.5938
16331TIP3   OH270407   2.408   3.393   3.568  0.0879  0.4240  0.5591
16331TIP3    H170408   2.480   3.395   3.631  1.1018  2.1555 -0.5818
16331TIP3    H270409   2.383   3.485   3.559 -1.6986 -0.0830  0.2926
16332TIP3   OH270410   1.797   2.084  14.351 -0.3876 -0.0723  0.4167
16332TIP3    H170411   1.747   2.135  14.288 -1.1596 -1.7114 -0.3187
16332TIP3    H270412   1.880   2.065  14.307 -0.3128  0.1032  0.4825
16333TIP3   OH270413   5.931   2.532   4.883 -0.5465  0.3544  0.3338
16333TIP3    H170414   5.885   2.616   4.872 -0.1675  0.7193  1.4996
16333TIP3    H270415   5.925   2.491   4.797 -0.4598  1.7260 -0.3470
16334TIP3   OH270416   6.078   1.974   4.673  0.0361  0.5836 -0.0528
16334TIP3    H170417   6.149   1.920   4.709  0.3448  1.0843  0.1060
16334TIP3    H270418   5.998   1.930   4.699  0.2996 -0.2918 -0.7040
16335TIP3   OH270419   6.045   1.474  15.463 -0.2981 -0.2035 -0.0956
16335TIP3    H170420   6.043   1.397  15.520  1.0976 -1.5360 -1.7993
16335TIP3    H270421   6.075   1.545  15.519  3.9539 -2.0950  0.2088
16336TIP3   OH270422   5.047   1.069   2.253  0.1714 -0.0877 -0.4139
16336TIP3    H170423   5.036   1.093   2.345 -0.0924 -0.8451 -0.2453
16336TIP3    H270424   5.129   1.112   2.226  0.7987 -0.7258  0.4639
16337TIP3   OH270425   6.171   2.610   1.996 -0.3779 -0.0368  0.6651
16337TIP3    H170426   6.085   2.576   2.020 -0.2636  0.5352  1.9814
16337TIP3    H270427   6.214   2.538   1.951 -1.7905 -0.0979 -0.6131
16338TIP3   OH270428   1.198   1.739   4.848  0.7634 -0.5932  0.0949
16338TIP3    H170429   1.210   1.651   4.814  2.5126  0.6355 -2.7173
16338TIP3    H270430   1.252   1.742   4.927 -1.4405 -2.7840  1.7481
16339TIP3   OH270431   0.472   3.856   4.855  0.1862 -0.2799 -0.1126
16339TIP3    H170432   0.414   3.836   4.928  0.7837  0.0009  0.4397
16339TIP3    H270433   0.552   3.890   4.896  0.3856  0.2132 -0.9098
16340TIP3   OH270434   5.498   3.436  15.530 -0.4254 -0.2202 -0.1314
16340TIP3    H170435   5.441   3.368  15.566 -2.8444  0.6104 -2.2092
16340TIP3    H270436   5.458   3.518  15.557  0.6945  0.3986 -0.3073
16341TIP3   OH270437   3.633   3.848  13.455 -0.1833 -0.4476 -0.1685
16341TIP3    H170438   3.684   3.804  13.523 -2.3452 -2.0270  0.4468
16341TIP3    H270439   3.662   3.940  13.460  2.1949 -1.2030  0.5160
16342TIP3   OH270440   0.484   0.247   5.399  0.4208 -0.4628 -0.2082
16342TIP3    H170441   0.553   0.312   5.403  1.3331 -1.3508 -1.1677
16342TIP3    H270442   0.462   0.242   5.306 -1.8385  0.7345  0.2182
16343TIP3   OH270443   0.548   0.586   2.387 -0.1551 -0.0069  0.4051
16343TIP3    H170444   0.584   0.545   2.466 -1.0800 -0.2356  0.7099
16343TIP3    H270445   0.462   0.546   2.376  0.2500 -0.4775 -1.1191
16344TIP3   OH270446   6.349   4.586  15.724  0.3720  0.6614 -0.1114
16344TIP3    H170447   6.428   4.611  15.772  0.8986 -0.8523 -0.1668
16344TIP3    H270448   6.355   4.635  15.642  2.4299 -1.1294 -1.0886
16345TIP3   OH270449   5.922   2.587  11.976  0.1755  0.4526 -0.3343
16345TIP3    H170450   5.983   2.550  11.912  0.3743 -0.2446  0.2571
16345TIP3    H270451   5.973   2.597  12.056 -0.0661  1.3570 -0.2915
16346TIP3   OH270452   6.634   0.597  11.393  0.3847 -0.1497  0.8629
16346TIP3    H170453   6.680   0.573  11.312 -0.2703  0.4202  0.3173
16346TIP3    H270454   6.696   0.653  11.440  0.9894 -0.9481  1.0274
16347TIP3   OH270455   5.992   0.013  11.938  0.3575 -0.2361 -0.2715
16347TIP3    H170456   5.960   0.007  11.849  0.0508 -0.7384 -0.1255
16347TIP3    H270457   5.922  -0.024  11.992  0.6918 -0.2702  0.1456
16348TIP3   OH270458   5.126   5.603  13.154 -0.2931  0.1716  0.4344
16348TIP3    H170459   5.169   5.518  13.159 -0.0562  0.1679 -1.4400
16348TIP3    H270460   5.195   5.663  13.125 -0.8132  0.7197  0.3287
16349TIP3   OH270461   4.354   3.557   0.343  0.4035 -0.1022  0.0035
16349TIP3    H170462   4.308   3.520   0.418  0.2656  0.2268  0.0816
16349TIP3    H270463   4.289   3.559   0.273  0.4369 -0.0954 -0.0273
16350TIP3   OH270464   0.142   3.058  12.173 -0.0073 -0.0583 -0.0455
16350TIP3    H170465   0.052   3.087  12.186 -0.6535 -1.8996 -0.2705
16350TIP3    H270466   0.147   3.037  12.079  0.9025  0.8655 -0.2069
16351TIP3   OH270467   6.693   0.984  16.116 -0.2211 -0.4026  0.6247
16351TIP3    H170468   6.786   1.000  16.129 -0.3463  0.6510  0.2495
16351TIP3    H270469   6.680   0.992  16.021 -0.2533 -2.9618  0.3674
16352TIP3   OH270470   1.996   4.282  11.571 -0.0810 -0.2038 -0.0272
16352TIP3    H170471   2.028   4.306  11.484  0.3093 -0.7790 -0.0482
16352TIP3    H270472   2.065   4.312  11.630 -0.6645  0.8137  0.1508
16353TIP3   OH270473   6.187   4.624  13.392 -0.9521  0.2952  0.3806
16353TIP3    H170474   6.196   4.719  13.385 -2.2641  0.3006 -1.7541
16353TIP3    H270475   6.104   4.611  13.439 -1.6227  0.2383 -0.7811
16354TIP3   OH270476   0.778   4.714  15.871 -0.0592 -0.0842  0.4766
16354TIP3    H170477   0.771   4.619  15.873 -1.2990  0.0144  1.3211
16354TIP3    H270478   0.771   4.741  15.963 -1.7861  0.9580  0.0534
16355TIP3   OH270479   5.466   1.759   0.839 -0.0896 -0.2194 -0.3258
16355TIP3    H170480   5.396   1.799   0.890  0.6157  1.1083 -0.3704
16355TIP3    H270481   5.429   1.746   0.752 -0.7739 -0.9755  0.0758
16356TIP3   OH270482   1.791   1.517  14.869  0.3455  0.9349 -0.5704
16356TIP3    H170483   1.711   1.470  14.893  0.7833 -0.0765 -1.0733
16356TIP3    H270484   1.862   1.464  14.905  0.7331  3.2690  2.3703
16357TIP3   OH270485   0.933   0.974  13.913 -0.9569  0.3141  0.0845
16357TIP3    H170486   0.864   1.010  13.969 -1.5956  0.3918 -0.7473
16357TIP3    H270487   1.010   0.969  13.970 -1.1189  2.0593  0.4802
16358TIP3   OH270488   1.572   3.588   3.498 -0.7190 -0.0780 -0.0976
16358TIP3    H170489   1.602   3.594   3.589 -1.2499  1.0219  0.0119
16358TIP3    H270490   1.485   3.547   3.505 -0.3560 -0.8689 -0.1930
16359TIP3   OH270491   0.178   1.389  10.850 -0.4555 -0.1222 -0.1659
16359TIP3    H170492   0.229   1.395  10.769  0.1155  1.7346  0.3113
16359TIP3    H270493   0.129   1.307  10.841 -0.8042  0.3119 -2.6451
16360TIP3   OH270494   5.619   2.496  15.443  0.6498 -0.0380  0.6851
16360TIP3    H170495   5.682   2.568  15.446  0.2790  0.3252 -0.0887
16360TIP3    H270496   5.601   2.484  15.350 -1.4823  0.7875  0.9764
16361TIP3   OH270497   6.387   1.172  12.009  0.4034 -0.1403  0.1829
16361TIP3    H170498   6.331   1.100  12.038  0.1241  0.3946  0.9941
16361TIP3    H270499   6.347   1.250  12.047  0.8214  0.4233 -0.5161
16362TIP3   OH270500   0.696   2.363   0.963 -0.5176 -0.1726 -0.2211
16362TIP3    H170501   0.623   2.358   1.024 -0.2253 -0.0139  0.1391
16362TIP3    H270502   0.708   2.456   0.946  1.3008 -0.0196  1.7653
16363TIP3   OH270503   2.852   6.132  12.972  0.0329  0.3978 -0.0116
16363TIP3    H170504   2.939   6.151  13.008 -0.0409  1.5846 -0.4333
16363TIP3    H270505   2.791   6.166  13.037 -0.1022  1.5743 -0.7462
16364TIP3   OH270506   6.676   0.528   2.898 -0.2745  0.1033 -0.5923
16364TIP3    H170507   6.608   0.472   2.861  0.8541 -1.8124  0.1823
16364TIP3    H270508   6.631   0.582   2.962 -1.2516 -0.4127 -0.8411
16365TIP3   OH270509   0.046   1.294   3.454 -0.2960 -0.0455  0.1590
16365TIP3    H170510   0.062   1.212   3.500  0.3357 -0.1523 -0.2603
16365TIP3    H270511   0.020   1.355   3.524 -2.2120 -0.9724  0.2812
16366TIP3   OH270512   2.333   6.293  16.069 -0.2286  0.0760 -0.3899
16366TIP3    H170513   2.395   6.229  16.103 -0.7530  0.3450  1.0971
16366TIP3    H270514   2.367   6.378  16.097 -0.0347  0.3919 -1.5620
16367TIP3   OH270515   3.051   4.551   5.168  0.1397 -0.1682 -0.3659
16367TIP3    H170516   2.982   4.516   5.112  0.6186 -0.5583 -0.7186
16367TIP3    H270517   3.120   4.485   5.165  1.4160  1.1675 -1.7192
16368TIP3   OH270518   4.932   2.182   2.105 -0.1888 -0.4995  0.1982
16368TIP3    H170519   5.010   2.127   2.110 -0.2118 -0.6087 -0.5869
16368TIP3    H270520   4.963   2.266   2.071 -0.4764 -0.6805 -0.5249
16369TIP3   OH270521   5.808   5.104  15.605  0.2169 -0.1170  0.1182
16369TIP3    H170522   5.890   5.089  15.558  0.5058 -2.6574  1.3054
16369TIP3    H270523   5.740   5.088  15.540  0.6426  0.0843 -0.3805
16370TIP3   OH270524   0.526   3.811  16.815  0.5275  0.3944 -0.2801
16370TIP3    H170525   0.591   3.741  16.814  0.9298  0.7610 -0.2243
16370TIP3    H270526   0.484   3.806  16.729 -1.0731 -1.4058  0.5923
16371TIP3   OH270527   4.071   1.801   5.497  0.1423 -0.0826 -0.4479
16371TIP3    H170528   4.147   1.745   5.482  1.4739  1.4653  0.3356
16371TIP3    H270529   4.070   1.861   5.423 -3.3229 -3.2258 -3.1490
16372TIP3   OH270530   2.077   0.724  15.109 -0.3824 -0.3162 -0.4645
16372TIP3    H170531   2.055   0.755  15.021  0.8937 -2.7123 -1.6793
16372TIP3    H270532   1.993   0.701  15.149 -1.0809  1.9984 -0.5543
16373TIP3   OH270533   2.752   3.313   0.994 -0.0601 -0.1578  0.5253
16373TIP3    H170534   2.725   3.348   1.079  1.6708  0.5408  0.8162
16373TIP3    H270535   2.785   3.389   0.946 -1.4476 -0.4760 -0.9505
16374TIP3   OH270536   4.316   4.921  11.357 -0.3610 -0.7392  0.2164
16374TIP3    H170537   4.262   4.918  11.436 -3.5444  0.8243 -1.7850
16374TIP3    H270538   4.293   4.840  11.310  0.8757 -1.2472  0.4853
16375TIP3   OH270539   3.360   2.868   4.857 -0.2311 -0.4723 -0.1808
16375TIP3    H170540   3.431   2.892   4.798 -0.6226 -0.5212 -0.6856
16375TIP3    H270541   3.401   2.854   4.942 -0.2523  4.0775  0.6799
16376TIP3   OH270542   4.344   0.645   0.932  0.3938  0.0186 -0.3170
16376TIP3    H170543   4.298   0.670   1.012 -0.4143 -0.2383 -0.6992
16376TIP3    H270544   4.379   0.727   0.898  0.5955  0.1539  0.2100
16377TIP3   OH270545   4.325   2.619   1.802  0.4997  0.2892  0.3837
16377TIP3    H170546   4.412   2.592   1.773  0.5941  0.0195  0.9213
16377TIP3    H270547   4.265   2.565   1.750  0.6681 -0.2146  0.7184
16378TIP3   OH270548   3.259   4.736  16.216 -0.3201 -0.0539 -0.0348
16378TIP3    H170549   3.228   4.802  16.278 -0.3089 -1.6756  1.7350
16378TIP3    H270550   3.195   4.665  16.222  1.4821 -1.6971  0.6810
16379TIP3   OH270551   3.183   5.773  17.049  0.1152 -0.3841  0.0743
16379TIP3    H170552   3.168   5.798  16.958  0.5037  1.8411  0.6050
16379TIP3    H270553   3.095   5.756  17.084 -0.0799 -0.6504 -0.5462
16380TIP3   OH270554   0.025   6.151   2.481 -0.0038  0.3923  0.0170
16380TIP3    H170555  -0.025   6.156   2.563 -0.0508 -0.9091  0.0712
16380TIP3    H270556  -0.039   6.123   2.416  0.2744  0.3848 -0.2528
16381TIP3   OH270557   1.859   1.552   4.013 -0.1757  0.5018  0.2550
16381TIP3    H170558   1.866   1.639   3.973  1.0164  0.2960 -0.0105
16381TIP3    H270559   1.887   1.492   3.943 -1.7851 -0.1689  0.1613
16382TIP3   OH270560   2.506   4.048  14.646  0.1124 -0.2515 -0.5399
16382TIP3    H170561   2.505   4.046  14.742  0.6553 -0.6423 -0.5419
16382TIP3    H270562   2.477   4.137  14.624  3.1465  0.9377  0.0322
16383TIP3   OH270563   3.370   3.755  16.872 -0.1635  0.3523 -0.1141
16383TIP3    H170564   3.411   3.840  16.887  0.5160 -0.0127  0.1147
16383TIP3    H270565   3.386   3.706  16.953 -0.4391 -0.0384 -0.2941
16384TIP3   OH270566   2.387   0.611   0.661  0.2031 -0.4546 -0.2024
16384TIP3    H170567   2.440   0.540   0.698 -0.4306 -0.9970 -0.3296
16384TIP3    H270568   2.437   0.690   0.681  2.1278 -1.1233 -2.1975
16385TIP3   OH270569   4.208   6.217   4.192  0.2749  0.2949  0.3295
16385TIP3    H170570   4.258   6.185   4.116 -1.8207 -2.3910  0.0049
16385TIP3    H270571   4.172   6.300   4.164 -0.8857 -0.9026 -1.8613
16386TIP3   OH270572   1.277   5.400   4.526  0.9648 -0.0808 -0.4045
16386TIP3    H170573   1.205   5.382   4.587  0.6079 -0.3843 -0.9134
16386TIP3    H270574   1.335   5.458   4.575  0.1987  0.4510 -0.1041
16387TIP3   OH270575   3.305   3.599  13.869 -0.0034  0.4981 -0.5105
16387TIP3    H170576   3.381   3.622  13.816  2.0657 -1.2382  1.5529
16387TIP3    H270577   3.311   3.656  13.946 -0.1265 -0.4100  0.1852
16388TIP3   OH270578   6.677   0.716   3.199 -0.0271  0.4399 -0.4305
16388TIP3    H170579   6.675   0.719   3.294  0.3972 -0.8183 -0.3708
16388TIP3    H270580   6.767   0.692   3.177 -0.2141  0.3518 -1.1265
16389TIP3   OH270581   1.262   6.319   3.383 -0.5363 -0.7407  0.6070
16389TIP3    H170582   1.246   6.334   3.290  1.5962  0.4614  0.3819
16389TIP3    H270583   1.226   6.396   3.426 -0.0962 -0.5377  0.6136
16390TIP3   OH270584   1.342   2.707  11.201 -0.0154 -0.1511 -0.1844
16390TIP3    H170585   1.341   2.802  11.187 -0.1766  0.6514  4.4551
16390TIP3    H270586   1.435   2.686  11.212 -0.1582 -0.0367  1.3769
16391TIP3   OH270587   4.554   6.150   4.471  0.1787  0.0680  0.2425
16391TIP3    H170588   4.577   6.057   4.480 -0.3906  0.2208  3.7946
16391TIP3    H270589   4.477   6.150   4.414  2.6413 -1.2313 -3.3404
16392TIP3   OH270590   4.027   1.743  16.083 -0.3874 -0.1296 -0.6370
16392TIP3    H170591   3.991   1.658  16.057  1.4112 -0.5140 -2.0179
16392TIP3    H270592   4.037   1.791  16.000 -1.5949  1.5260  0.1513
16393TIP3   OH270593   0.516   2.866   0.620  0.2363  0.0592 -0.0290
16393TIP3    H170594   0.474   2.834   0.700 -1.3567  0.4484 -0.6791
16393TIP3    H270595   0.467   2.824   0.549 -0.8167  2.5966 -0.8514
16394TIP3   OH270596   0.431   3.648  12.699 -0.4951 -0.3501 -0.2520
16394TIP3    H170597   0.503   3.641  12.761 -0.3572  0.5597 -0.3061
16394TIP3    H270598   0.353   3.629  12.751 -0.4670  1.2745  0.4074
16395TIP3   OH270599   1.350   3.259   5.295  0.7884 -0.0695 -0.3255
16395TIP3    H170600   1.381   3.349   5.283  1.2699 -0.0950  0.6706
16395TIP3    H270601   1.273   3.268   5.352 -1.0290 -0.0149 -2.7104
16396TIP3   OH270602   5.245   4.842   3.083 -0.2803 -0.1393  0.2869
16396TIP3    H170603   5.269   4.933   3.101  0.4222 -0.6035  1.7900
16396TIP3    H270604   5.319   4.791   3.116 -1.0606 -1.3039  0.2448
16397TIP3   OH270605   2.556   1.791   2.827  0.6964 -0.0594  0.0913
16397TIP3    H170606   2.484   1.840   2.786 -0.3748 -0.9239  0.9347
16397TIP3    H270607   2.621   1.783   2.757 -1.5277 -2.4278 -1.8268
16398TIP3   OH270608   0.352   2.493   4.885 -0.2726  0.1593 -0.0445
16398TIP3    H170609   0.304   2.570   4.856 -1.0298 -0.1126  0.4730
16398TIP3    H270610   0.444   2.516   4.874 -0.4772  1.4924  0.9971
16399TIP3   OH270611   2.289   3.647   2.589 -0.1887 -0.3010  0.1165
16399TIP3    H170612   2.231   3.704   2.539  0.4969 -0.2174 -0.6006
16399TIP3    H270613   2.368   3.641   2.535  0.9798  0.6573  1.6941
16400TIP3   OH270614   5.346   6.755  11.952  0.9353  0.4460 -0.1196
16400TIP3    H170615   5.382   6.667  11.964  2.0893  0.9550  0.1678
16400TIP3    H270616   5.262   6.740  11.908  1.0239 -0.8112  0.1086
16401TIP3   OH270617   5.989   0.749  13.849  0.2633  0.1080 -0.0296
16401TIP3    H170618   6.042   0.827  13.866 -0.6487  1.0510 -1.4359
16401TIP3    H270619   5.900   0.774  13.875  0.0710 -0.6471  0.0421
16402TIP3   OH270620   0.166   4.424  14.570  0.6722 -0.3659 -0.3123
16402TIP3    H170621   0.174   4.511  14.531  0.3850 -0.7764 -1.3030
16402TIP3    H270622   0.187   4.437  14.662 -1.5080  1.1449  0.0032
16403TIP3   OH270623   3.178   4.443  14.689 -0.0247 -0.3545  0.7007
16403TIP3    H170624   3.154   4.474  14.602 -0.7502 -1.1588  0.6072
16403TIP3    H270625   3.124   4.495  14.749  0.1623 -0.1042  0.6564
16404TIP3   OH270626   6.595   1.429   0.752  0.5878  0.1311 -0.0880
16404TIP3    H170627   6.576   1.342   0.789  1.6961 -0.6055 -1.1864
16404TIP3    H270628   6.510   1.464   0.727 -0.1140  0.3573  2.4998
16405TIP3   OH270629   3.687   4.445   1.384 -0.1510  0.2917  0.0119
16405TIP3    H170630   3.754   4.507   1.352 -1.7418  1.2636 -1.4867
16405TIP3    H270631   3.738   4.369   1.412  1.5518  0.6917 -1.8313
16406TIP3   OH270632   3.059   3.936  17.181 -0.3916  0.1165  0.2936
16406TIP3    H170633   3.000   3.933  17.256  2.0141 -0.4375  2.2304
16406TIP3    H270634   3.081   3.845  17.163  2.4739  0.4643  1.7672
16407TIP3   OH270635   3.305   4.237  14.349 -0.4612  0.2117  0.0374
16407TIP3    H170636   3.221   4.272  14.380 -1.2220  0.1220 -1.8148
16407TIP3    H270637   3.368   4.308  14.363 -0.8072  0.2069  1.6219
16408TIP3   OH270638   6.571   3.509   1.283 -0.4763 -0.6897 -0.3999
16408TIP3    H170639   6.529   3.448   1.343 -2.4069 -1.2460 -2.2690
16408TIP3    H270640   6.600   3.454   1.210  1.1135  0.0989 -0.3910
16409TIP3   OH270641   6.605   4.662  10.766  0.1770  0.1848  0.2478
16409TIP3    H170642   6.597   4.576  10.725  0.0053 -0.2666  1.2150
16409TIP3    H270643   6.697   4.687  10.752  0.2781 -0.2437  0.1562
16410TIP3   OH270644   6.745   4.961  14.789 -0.3514 -0.3886  0.4677
16410TIP3    H170645   6.654   4.947  14.815 -0.2779 -1.6229  0.0869
16410TIP3    H270646   6.776   4.875  14.764  0.2698  0.3934 -1.5553
16411TIP3   OH270647   6.753   3.120  16.048  0.0117  0.0181 -0.5308
16411TIP3    H170648   6.811   3.171  15.991  0.3735  0.7418  0.4721
16411TIP3    H270649   6.806   3.044  16.074  0.6492  0.8661  0.6761
16412TIP3   OH270650   3.132   4.223  12.276 -0.3298 -0.2126  0.2013
16412TIP3    H170651   3.102   4.169  12.203 -1.3913  0.0751  0.4125
16412TIP3    H270652   3.110   4.173  12.354  0.4430 -0.3393  0.3453
16413TIP3   OH270653   2.649   1.310   0.009 -0.4378 -0.3456 -0.5987
16413TIP3    H170654   2.690   1.249  -0.052 -0.5998 -0.9792 -0.0807
16413TIP3    H270655   2.706   1.387   0.008 -0.1411 -0.5705 -1.1332
16414TIP3   OH270656   1.663   2.153  11.521  0.2740  0.2375  0.6868
16414TIP3    H170657   1.617   2.110  11.592  1.1355  0.9743  1.7097
16414TIP3    H270658   1.599   2.158  11.450 -0.8410  0.2125  1.6786
16415TIP3   OH270659   3.558   4.274  17.210 -0.1190  0.0953 -0.1904
16415TIP3    H170660   3.589   4.286  17.120 -0.6054 -0.7515 -0.4835
16415TIP3    H270661   3.535   4.362  17.240  1.3999  0.5787 -0.3844
16416TIP3   OH270662   4.443   3.162  16.536 -0.0607  0.7693  0.0905
16416TIP3    H170663   4.386   3.208  16.598 -1.1111  0.6177 -0.7360
16416TIP3    H270664   4.512   3.225  16.516 -2.1071  2.4573 -1.8970
16417TIP3   OH270665   1.484   5.974   5.219  0.1409  0.0825 -0.2905
16417TIP3    H170666   1.457   5.994   5.308  3.8347 -0.7565  1.0942
16417TIP3    H270667   1.549   6.041   5.198 -0.1914 -0.1380 -2.0855
16418TIP3   OH270668   0.266   2.365  13.737  0.6955  0.2917  0.3049
16418TIP3    H170669   0.243   2.386  13.828 -2.0938  0.7681 -0.4721
16418TIP3    H270670   0.287   2.450  13.698 -1.3523  0.5063 -0.3549
16419TIP3   OH270671   1.430   2.230  10.700  0.3605  0.3875  0.5413
16419TIP3    H170672   1.521   2.259  10.693  0.0487  0.9906 -1.0953
16419TIP3    H270673   1.379   2.311  10.702 -0.3671  0.0395 -1.9581
16420TIP3   OH270674   1.837   3.316  13.462 -0.6195 -0.8379  0.0255
16420TIP3    H170675   1.840   3.260  13.539 -0.4576 -1.2590 -0.2838
16420TIP3    H270676   1.926   3.351  13.454 -0.4339 -1.3908 -0.4019
16421TIP3   OH270677   4.241   3.081   1.548  0.1560 -0.2828  0.3140
16421TIP3    H170678   4.306   3.071   1.618  0.4973 -2.1982 -0.2530
16421TIP3    H270679   4.254   3.004   1.492 -3.1681 -1.1822  0.6687
16422TIP3   OH270680   1.170   2.716  15.995  0.2278  0.3930 -0.2230
16422TIP3    H170681   1.140   2.657  16.064 -1.4434  0.7777 -0.5871
16422TIP3    H270682   1.206   2.791  16.043  1.7848 -0.6169  0.2306
16423TIP3   OH270683   2.945   5.607  16.694  0.3612  0.5946 -0.2615
16423TIP3    H170684   2.886   5.576  16.626  0.0204  0.9629 -0.1326
16423TIP3    H270685   3.032   5.584  16.662  0.2610  1.5277 -1.2093
16424TIP3   OH270686   6.435   3.066   1.458 -0.1515  0.1042  0.1521
16424TIP3    H170687   6.363   3.128   1.450 -0.1819 -0.0280 -0.6331
16424TIP3    H270688   6.509   3.108   1.414  0.0577 -0.0629  0.3364
16425TIP3   OH270689   2.814   3.430   0.387 -0.0858 -0.1610  0.3623
16425TIP3    H170690   2.890   3.445   0.331 -0.5512 -0.4475 -0.3553
16425TIP3    H270691   2.750   3.387   0.330 -0.1332 -1.5348  1.3996
16426TIP3   OH270692   2.146   1.423   5.720 -0.2217 -0.4195 -0.5588
16426TIP3    H170693   2.155   1.468   5.804  0.6731 -1.2370 -0.2109
16426TIP3    H270694   2.159   1.331   5.741  0.6042 -0.5625 -1.6874
16427TIP3   OH270695   5.265   4.444  10.264  0.1462  0.0811  0.4061
16427TIP3    H170696   5.276   4.531  10.226  0.6660  0.0227  0.4288
16427TIP3    H270697   5.212   4.397  10.199  1.8220 -0.3224 -0.7153
16428TIP3   OH270698   3.712   6.348  16.568 -0.1427  0.1034 -0.8436
16428TIP3    H170699   3.763   6.353  16.649  1.8904 -0.1901 -2.0761
16428TIP3    H270700   3.654   6.273  16.581  0.0439  0.1651  0.4132
16429TIP3   OH270701   6.037   4.908   4.680  0.0992  0.0797  0.2085
16429TIP3    H170702   6.014   4.999   4.701 -0.4259  0.3268 -1.3238
16429TIP3    H270703   6.029   4.861   4.763  0.0843  1.3841  0.9572
16430TIP3   OH270704   0.928   2.386   1.592  0.1830 -0.4170 -0.2815
16430TIP3    H170705   0.842   2.347   1.609  0.7465 -1.5232  0.1475
16430TIP3    H270706   0.979   2.367   1.671  0.9579 -0.1947 -0.7179
16431TIP3   OH270707   4.177   2.390   4.170  0.0471  0.1539  0.0275
16431TIP3    H170708   4.169   2.418   4.079 -0.5073 -0.5923 -0.1621
16431TIP3    H270709   4.272   2.381   4.184  0.2923  2.8256  0.3346
16432TIP3   OH270710   3.655   2.106   2.680 -0.1045 -0.1025 -0.2926
16432TIP3    H170711   3.661   2.086   2.586 -2.1909  0.5103 -0.5931
16432TIP3    H270712   3.614   2.193   2.683 -0.3751 -0.2724  1.1823
16433TIP3   OH270713   2.140   2.505  12.488 -0.0620  0.0677 -0.3256
16433TIP3    H170714   2.118   2.588  12.532  0.0331 -0.2992  0.4259
16433TIP3    H270715   2.153   2.443  12.560 -1.7176 -1.0058 -0.9342
16434TIP3   OH270716   1.940   4.016  13.829 -0.0649 -0.0587 -0.3065
16434TIP3    H170717   1.943   3.941  13.888  2.6292 -1.2902 -1.8912
16434TIP3    H270718   1.892   3.984  13.752  0.0570  0.2274 -0.5034
16435TIP3   OH270719   3.518   0.881   4.304  0.7509 -0.0452 -0.2619
16435TIP3    H170720   3.539   0.910   4.393 -0.7658  0.8924 -0.1929
16435TIP3    H270721   3.544   0.789   4.302  1.9089  0.2554  0.7733
16436TIP3   OH270722   2.327   3.043  12.466  0.4594 -0.4391  0.6898
16436TIP3    H170723   2.386   3.077  12.533  1.6370 -0.5930 -0.2545
16436TIP3    H270724   2.317   3.115  12.403  0.3310 -0.7076  0.3973
16437TIP3   OH270725   0.193   5.786   5.768 -0.7271  0.2484  0.4175
16437TIP3    H170726   0.273   5.736   5.783  0.3528  1.5184 -0.9109
16437TIP3    H270727   0.127   5.744   5.823  0.2184 -2.4161 -0.4154
16438TIP3   OH270728   3.841   4.891  14.320  0.7775  0.3204  0.0861
16438TIP3    H170729   3.927   4.912  14.357  1.5336 -2.3431 -0.0449
16438TIP3    H270730   3.802   4.831  14.383 -1.0848  1.6238  0.2042
16439TIP3   OH270731   6.255   1.687  13.856  0.5455 -0.0763 -0.0200
16439TIP3    H170732   6.294   1.621  13.914 -1.3186 -0.2240  1.0896
16439TIP3    H270733   6.205   1.636  13.793  1.9061  0.1286 -1.3004
16440TIP3   OH270734   2.410   4.477  11.604 -0.4646 -0.1503 -0.6462
16440TIP3    H170735   2.488   4.421  11.603 -0.4782 -0.1707 -0.5227
16440TIP3    H270736   2.414   4.524  11.521 -0.2062  0.0102 -0.5409
16441TIP3   OH270737   5.732   1.972  16.430  0.6116 -0.0401 -0.2141
16441TIP3    H170738   5.788   1.947  16.503  0.7232  0.9967  0.0596
16441TIP3    H270739   5.652   1.921  16.442  1.1663 -0.9077 -0.1512
16442TIP3   OH270740   6.344   6.311  14.458 -0.3297  0.6688 -0.2418
16442TIP3    H170741   6.379   6.400  14.464 -0.8289  0.8165  0.5878
16442TIP3    H270742   6.323   6.299  14.365  1.0478  0.9086 -0.5884
16443TIP3   OH270743   2.883   4.440  15.556  0.0051  0.1455  0.0909
16443TIP3    H170744   2.916   4.355  15.587  0.6852  0.2308 -0.3950
16443TIP3    H270745   2.789   4.437  15.574  0.0413 -0.6788  0.1621
16444TIP3   OH270746   1.633   3.346  16.954  0.3604  0.7645  0.5219
16444TIP3    H170747   1.727   3.329  16.951  0.7071  2.6629 -0.3023
16444TIP3    H270748   1.607   3.327  17.044  1.4170 -0.2842  0.6141
16445TIP3   OH270749   2.124   1.875   3.181  0.6984  0.1807 -0.3681
16445TIP3    H170750   2.028   1.875   3.174  0.6916  0.2592 -0.2725
16445TIP3    H270751   2.145   1.960   3.218  0.8345  0.3275 -0.7761
16446TIP3   OH270752   2.621   2.806   2.836 -0.0126  0.2547 -0.0991
16446TIP3    H170753   2.661   2.873   2.780 -0.2992  0.3248 -0.2210
16446TIP3    H270754   2.609   2.731   2.778  1.4031 -0.3178  0.3304
16447TIP3   OH270755   2.974   1.159  11.409  0.2221  0.1744 -0.1792
16447TIP3    H170756   3.039   1.224  11.438  2.2629 -2.2274  0.8976
16447TIP3    H270757   2.971   1.096  11.481 -0.7517 -1.5893 -1.7265
16448TIP3   OH270758   1.187   4.496   4.337  0.3044 -0.1256  0.4844
16448TIP3    H170759   1.218   4.426   4.279 -0.0696 -0.0748  0.2191
16448TIP3    H270760   1.182   4.573   4.280 -1.7167 -0.4691  0.1485
16449TIP3   OH270761   4.867   4.092  13.884  0.2460  0.2382  0.8100
16449TIP3    H170762   4.937   4.031  13.907  0.8993  0.8161  0.3656
16449TIP3    H270763   4.882   4.168  13.941  0.7337  0.8788 -0.1541
16450TIP3   OH270764   1.460   4.434  13.928 -0.1929  0.3529 -0.0664
16450TIP3    H170765   1.442   4.502  13.863 -0.9467  0.6875  0.4888
16450TIP3    H270766   1.457   4.352  13.879  0.3295  0.6827 -0.6637
16451TIP3   OH270767   3.437   5.608  11.883 -0.0158  0.3063 -0.3120
16451TIP3    H170768   3.507   5.585  11.944 -0.0223 -0.7461 -0.6965
16451TIP3    H270769   3.356   5.600  11.934  0.0910  0.8726 -0.0527
16452TIP3   OH270770   1.063   0.599  13.806 -0.5386 -0.8167  0.0448
16452TIP3    H170771   1.134   0.661  13.822 -0.3641 -0.8831 -0.4709
16452TIP3    H270772   1.099   0.514  13.831 -1.2284 -0.5530  2.0837
16453TIP3   OH270773   4.939   2.086  14.309  0.0702 -0.3414 -0.0387
16453TIP3    H170774   4.923   1.997  14.279 -1.4288 -0.4421  1.0052
16453TIP3    H270775   4.852   2.127  14.309  0.8544  1.3842 -1.3485
16454TIP3   OH270776   3.720   3.106  13.997 -0.3892 -0.3288 -0.1673
16454TIP3    H170777   3.807   3.146  13.999 -0.5317  0.1194 -2.0275
16454TIP3    H270778   3.714   3.067  13.910 -1.8569 -0.8013  0.1324
16455TIP3   OH270779   6.260   3.205  14.848 -0.3720 -0.2077 -0.2134
16455TIP3    H170780   6.175   3.233  14.881  0.1214 -0.1786  1.0235
16455TIP3    H270781   6.310   3.286  14.837  0.2083 -0.4011  1.0226
16456TIP3   OH270782   0.905   6.162  14.478 -0.0586  0.0357  0.2745
16456TIP3    H170783   0.833   6.192  14.532  1.5589  1.3470  1.7822
16456TIP3    H270784   0.982   6.208  14.513  1.1356  0.4763 -2.7756
16457TIP3   OH270785   1.910   3.372   4.635  0.0153 -0.4001  0.0081
16457TIP3    H170786   1.970   3.433   4.678  2.0437 -1.2422 -1.5673
16457TIP3    H270787   1.895   3.304   4.700 -0.2415  0.4420  0.8520
16458TIP3   OH270788   2.596   5.765  16.238  0.4921  0.0331 -0.0493
16458TIP3    H170789   2.592   5.788  16.331  0.5045  1.8511 -0.4837
16458TIP3    H270790   2.655   5.830  16.200 -0.2998 -0.0898 -1.5117
16459TIP3   OH270791   6.378   3.142   3.474 -0.3222  0.0060 -0.4213
16459TIP3    H170792   6.295   3.105   3.444 -1.4080  2.7600 -0.9343
16459TIP3    H270793   6.432   3.149   3.396 -0.2506 -0.1405 -0.3852
16460TIP3   OH270794   1.410   1.037   1.437 -0.0726  0.1174  0.4472
16460TIP3    H170795   1.332   1.008   1.484 -0.0067  0.1629  0.5843
16460TIP3    H270796   1.381   1.046   1.346 -0.0596 -0.5068  0.3764
16461TIP3   OH270797   3.653   3.383   1.406 -0.2882 -0.1005 -0.1011
16461TIP3    H170798   3.614   3.468   1.385 -0.2750 -0.0970 -0.1124
16461TIP3    H270799   3.583   3.320   1.390 -0.4619 -0.0432  0.4048
16462TIP3   OH270800   3.307   4.011   2.536 -0.1607 -0.2419  0.1698
16462TIP3    H170801   3.340   3.932   2.492  0.2026 -0.4084  0.7385
16462TIP3    H270802   3.262   3.978   2.613  0.1218  0.1197  0.4884
16463TIP3   OH270803   6.053   4.836   3.593  1.1109  0.7137 -0.9006
16463TIP3    H170804   6.059   4.746   3.562 -0.6391  0.4891 -0.6439
16463TIP3    H270805   5.982   4.875   3.542  0.8467  1.4955  0.0436
16464TIP3   OH270806   1.211   0.671   5.163  0.7005 -0.0864 -0.4093
16464TIP3    H170807   1.152   0.684   5.237 -0.0679  0.3159 -1.0939
16464TIP3    H270808   1.299   0.684   5.201  0.3157  0.1743  0.4160
16465TIP3   OH270809   1.289   3.389  15.228 -0.0094 -0.5855 -0.1447
16465TIP3    H170810   1.237   3.310  15.214 -0.6447 -0.5231  1.7662
16465TIP3    H270811   1.352   3.365  15.296 -0.5129  0.6756  0.7945
16466TIP3   OH270812   0.340   2.950   1.984 -0.1705 -0.0688  0.2644
16466TIP3    H170813   0.383   2.973   2.067  0.3155  2.4266 -0.6405
16466TIP3    H270814   0.272   3.017   1.973 -0.1254 -0.2893 -1.4248
16467TIP3   OH270815   3.305   1.884  14.961  0.1097 -0.3802  0.3915
16467TIP3    H170816   3.275   1.974  14.973 -0.2640 -0.5453  0.7033
16467TIP3    H270817   3.362   1.867  15.036  0.2075 -0.3950  0.3161
16468TIP3   OH270818   6.533   0.656  16.136  1.0254  0.5679  0.0014
16468TIP3    H170819   6.590   0.723  16.174 -0.4490  1.5682  0.4821
16468TIP3    H270820   6.446   0.695  16.138 -0.3826 -2.5282  3.1132
16469TIP3   OH270821   5.963   3.243  14.894  0.1895 -0.8876  0.0618
16469TIP3    H170822   5.880   3.290  14.886  0.5171 -0.2372  0.4434
16469TIP3    H270823   5.939   3.151  14.885 -0.4811 -0.6639 -0.5443
16470TIP3   OH270824   3.854   0.279  11.664  0.2907 -0.1432 -0.1621
16470TIP3    H170825   3.784   0.222  11.631 -0.8859  0.1050  1.7827
16470TIP3    H270826   3.923   0.218  11.692 -1.1241 -0.6945  2.2727
16471TIP3   OH270827   4.471   3.651   4.590 -0.1746 -0.2039 -0.3642
16471TIP3    H170828   4.500   3.628   4.502 -0.5345 -0.6617 -0.3644
16471TIP3    H270829   4.468   3.567   4.637  1.3070  0.1816  0.4633
16472TIP3   OH270830   2.653   0.100   1.272 -0.2916  0.3502 -0.3290
16472TIP3    H170831   2.564   0.119   1.242 -0.8942  0.2948  1.3615
16472TIP3    H270832   2.677   0.176   1.325 -0.4768 -0.9660  1.6711
16473TIP3   OH270833   1.860   1.083  14.471  0.5975  0.1358  0.6637
16473TIP3    H170834   1.872   1.176  14.453  0.7019 -0.2326 -1.3819
16473TIP3    H270835   1.771   1.064  14.440  0.7112 -0.5018  0.7176
16474TIP3   OH270836   1.882   3.130  13.985 -0.2577  0.0827 -0.5533
16474TIP3    H170837   1.791   3.160  13.982  0.2597  1.7031 -0.4519
16474TIP3    H270838   1.901   3.119  14.078 -0.5866 -1.0848 -0.6041
16475TIP3   OH270839   3.864   1.181  16.082  0.1463 -0.0389 -0.0447
16475TIP3    H170840   3.938   1.122  16.095  0.2532  0.4362  1.5835
16475TIP3    H270841   3.788   1.132  16.113 -0.1270 -0.2503 -1.0298
16476TIP3   OH270842   2.347   5.154   5.292  0.5105  0.4961 -0.6264
16476TIP3    H170843   2.347   5.173   5.386 -0.1234  1.0588 -0.7348
16476TIP3    H270844   2.357   5.239   5.250  1.1915  0.2055 -1.0714
16477TIP3   OH270845   2.582   4.263   1.077  0.3405  0.1370 -0.3141
16477TIP3    H170846   2.618   4.336   1.128  1.6962  1.4095 -2.9865
16477TIP3    H270847   2.490   4.259   1.103  0.8019  1.2134  1.6521
16478TIP3   OH270848   0.750   6.723  16.312 -0.1299  0.3251  0.2829
16478TIP3    H170849   0.669   6.697  16.356 -0.7841  2.5415  0.4466
16478TIP3    H270850   0.734   6.704  16.220  0.0411 -1.3699  0.5827
16479TIP3   OH270851   6.546   2.116   0.759 -0.9876 -0.2656 -0.0971
16479TIP3    H170852   6.585   2.102   0.673 -2.4129 -1.1750 -0.6135
16479TIP3    H270853   6.463   2.067   0.756 -2.1739  1.6279  0.9586
16480TIP3   OH270854   5.006   1.758  14.021 -0.3290  0.3564 -0.0391
16480TIP3    H170855   4.927   1.727  14.064 -1.1448 -0.2143 -1.9277
16480TIP3    H270856   5.072   1.692  14.043 -0.7491  0.0465  0.3088
16481TIP3   OH270857   5.129   6.326  14.774  0.2209 -0.1618  0.1917
16481TIP3    H170858   5.060   6.270  14.808  0.2596 -0.1252  0.3286
16481TIP3    H270859   5.192   6.265  14.734 -0.0699 -0.1701 -0.2568
16482TIP3   OH270860   2.052   6.450   0.804 -0.0373 -0.1196  0.0410
16482TIP3    H170861   2.124   6.513   0.811 -0.6818  0.9835 -2.6422
16482TIP3    H270862   2.093   6.370   0.770  0.2975 -0.2116  0.6637
16483TIP3   OH270863   4.577   5.916  14.743  0.4298 -0.1889  0.2418
16483TIP3    H170864   4.488   5.900  14.709  0.2366  1.4592 -0.0451
16483TIP3    H270865   4.579   5.870  14.827 -1.1017  0.7680  0.8228
16484TIP3   OH270866   0.648   4.952   3.623 -0.2119 -0.5246  0.3293
16484TIP3    H170867   0.583   5.020   3.604 -0.3685 -0.9413 -0.6657
16484TIP3    H270868   0.596   4.876   3.652 -0.0286 -0.1843  1.5916
16485TIP3   OH270869   4.847   0.613   2.365 -0.4031 -0.3214  0.1120
16485TIP3    H170870   4.858   0.707   2.377 -0.2013 -0.6169  2.3780
16485TIP3    H270871   4.911   0.589   2.298 -0.6504  1.1790 -0.6788
16486TIP3   OH270872   1.031   1.973  15.229 -0.9190 -0.2375  0.5524
16486TIP3    H170873   1.118   1.946  15.202 -1.4906 -1.2848 -0.2305
16486TIP3    H270874   1.044   2.012  15.316  0.6563  1.6384 -0.4798
16487TIP3   OH270875   6.625   5.492  10.879 -0.1820 -0.1315 -0.6402
16487TIP3    H170876   6.653   5.406  10.846  0.0027 -0.2560 -0.1565
16487TIP3    H270877   6.640   5.488  10.973  0.8843  0.8294 -0.7503
16488TIP3   OH270878   6.219   1.593   1.105  0.0642 -0.2223  0.2556
16488TIP3    H170879   6.208   1.502   1.132 -1.2054  0.3442  1.7842
16488TIP3    H270880   6.262   1.635   1.180 -1.7690  0.9815  0.6789
16489TIP3   OH270881   1.448   0.986   2.196  0.2313 -0.7835  0.2956
16489TIP3    H170882   1.414   1.043   2.265  0.1328  1.3026 -1.4260
16489TIP3    H270883   1.495   0.917   2.243  1.5801  1.5149  2.4233
16490TIP3   OH270884   1.704   1.846   4.861 -0.4515 -0.5836  0.2497
16490TIP3    H170885   1.789   1.811   4.888 -0.1607  0.8530  1.2826
16490TIP3    H270886   1.680   1.906   4.932 -1.6664  0.0812 -0.7179
16491TIP3   OH270887   4.419   2.505   1.446 -0.1437 -0.1917 -0.0431
16491TIP3    H170888   4.411   2.414   1.476  0.5964 -0.1645  0.2673
16491TIP3    H270889   4.418   2.557   1.526  0.9294 -0.0453 -0.1158
16492TIP3   OH270890   3.742   3.019  13.744  0.1623  0.0896  0.0636
16492TIP3    H170891   3.819   2.962  13.746  0.6413  0.7223 -0.3977
16492TIP3    H270892   3.668   2.959  13.735  0.7489 -0.3905 -1.7575
16493TIP3   OH270893   3.054   4.997  12.446 -0.2512 -0.3705 -0.5181
16493TIP3    H170894   3.000   5.042  12.510  0.1059 -0.6583 -0.0087
16493TIP3    H270895   2.995   4.935  12.404 -0.1184 -1.2972  0.6489
16494TIP3   OH270896   2.251   6.543   1.233 -0.1317 -0.7650 -0.2705
16494TIP3    H170897   2.175   6.596   1.210  0.8770  0.7444 -0.1513
16494TIP3    H270898   2.287   6.515   1.148  2.5988  3.4125 -0.6338
16495TIP3   OH270899   1.828   5.926  10.925 -0.3669  0.0464 -0.2907
16495TIP3    H170900   1.741   5.888  10.914 -1.0539  1.4343  0.1623
16495TIP3    H270901   1.825   5.968  11.012  1.2754 -1.2389  0.4166
16496TIP3   OH270902   3.664   5.064  12.635 -0.1617 -0.4013 -0.6106
16496TIP3    H170903   3.594   5.023  12.584  0.1258 -2.9074  0.9333
16496TIP3    H270904   3.724   4.992  12.656 -0.1288  0.5872  3.0028
16497TIP3   OH270905   1.370   0.586  15.806 -0.3090 -0.1855 -0.2499
16497TIP3    H170906   1.357   0.519  15.873 -0.2642 -0.8019 -0.8592
16497TIP3    H270907   1.401   0.539  15.730 -1.0907  0.4149 -0.9507
16498TIP3   OH270908   3.931   3.156  14.542 -0.2644  0.1356  0.0294
16498TIP3    H170909   3.911   3.239  14.586  1.5359  0.2495  0.6598
16498TIP3    H270910   3.943   3.094  14.614 -0.2719 -0.3705 -0.4063
16499TIP3   OH270911   4.708   1.588  13.416 -0.2032  0.0515  0.3326
16499TIP3    H170912   4.691   1.608  13.508 -2.9638  0.2915 -0.1832
16499TIP3    H270913   4.657   1.653  13.368 -0.5563 -1.4506 -1.3792
16500TIP3   OH270914   3.795   0.953   5.651  0.1435 -0.3257  0.4962
16500TIP3    H170915   3.708   0.966   5.687  0.1999 -0.5949  0.7229
16500TIP3    H270916   3.797   1.009   5.573 -0.8998 -1.8016 -0.5969
16501TIP3   OH270917   0.281   5.965  12.385  0.2488 -0.1524  0.4921
16501TIP3    H170918   0.302   5.946  12.477 -1.7407 -0.3247  0.9359
16501TIP3    H270919   0.203   6.021  12.390 -0.9724 -1.6977 -1.1424
16502TIP3   OH270920   2.401   5.769   0.872 -0.1501  0.6643 -0.2456
16502TIP3    H170921   2.335   5.833   0.846 -1.1498 -0.9283 -1.7384
16502TIP3    H270922   2.420   5.720   0.792  0.3316 -1.1355  0.9385
16503TIP3   OH270923   6.699   5.149  12.066 -0.1596 -0.6037 -0.7295
16503TIP3    H170924   6.665   5.075  12.117 -1.7639  0.7211  0.1503
16503TIP3    H270925   6.622   5.187  12.025  0.5612  1.0613 -0.5542
16504TIP3   OH270926   1.019   2.616   0.605 -0.0698  0.2573 -0.1403
16504TIP3    H170927   1.080   2.634   0.676 -1.7294  2.0750  0.8901
16504TIP3    H270928   1.037   2.684   0.540  0.5530 -0.6047 -0.8765
16505TIP3   OH270929   5.057   4.637   5.559  0.4199 -0.3683  0.0049
16505TIP3    H170930   5.059   4.544   5.536  0.4643 -0.3921  0.1041
16505TIP3    H270931   4.974   4.648   5.606  1.0555 -0.6529  1.2161
16506TIP3   OH270932   6.458   0.138   3.921 -0.0242  0.1162 -0.8859
16506TIP3    H170933   6.452   0.042   3.925 -0.8173  0.1830 -0.0177
16506TIP3    H270934   6.549   0.156   3.900 -0.1138 -0.8521 -2.1609
16507TIP3   OH270935   5.278   5.170  15.625  0.6236 -0.0209 -0.1488
16507TIP3    H170936   5.246   5.080  15.636 -0.3101  0.3110 -0.1854
16507TIP3    H270937   5.315   5.192  15.711 -1.4973  0.4945  0.6613
16508TIP3   OH270938   3.758   0.114  11.005  0.7764  0.2463  0.3433
16508TIP3    H170939   3.821   0.128  10.934 -1.2314  1.5093 -1.2764
16508TIP3    H270940   3.675   0.145  10.969 -0.6715 -0.8727  2.6045
16509TIP3   OH270941   3.868   3.481   4.998  0.4928 -0.2406 -0.2334
16509TIP3    H170942   3.842   3.530   5.075 -1.2809 -0.1238 -0.8688
16509TIP3    H270943   3.875   3.546   4.928 -1.1378 -0.7313 -0.9044
16510TIP3   OH270944   0.153   3.334   2.682 -0.6301 -0.1887  0.2884
16510TIP3    H170945   0.230   3.314   2.629  0.9692 -0.1777  2.5630
16510TIP3    H270946   0.080   3.291   2.637  0.7141 -0.3184 -1.7995
16511TIP3   OH270947   5.237   3.294   1.018 -0.2636  0.0679 -0.6103
16511TIP3    H170948   5.181   3.250   1.082 -0.0217  1.3307  0.5039
16511TIP3    H270949   5.274   3.223   0.966  2.4445 -1.3527  3.0209
16512TIP3   OH270950   0.733   6.669  12.914  0.5251 -0.5126 -0.4852
16512TIP3    H170951   0.824   6.690  12.892  0.1390  3.0238  0.9871
16512TIP3    H270952   0.732   6.662  13.009 -0.3159 -2.8972 -0.6433
16513TIP3   OH270953   0.939   5.791  13.447 -0.3334  0.3834 -0.4105
16513TIP3    H170954   0.973   5.703  13.462  0.9345  0.7518 -0.9842
16513TIP3    H270955   0.926   5.827  13.535  1.2361  0.3776 -0.1513
16514TIP3   OH270956   6.110   0.580  14.626 -0.3771 -0.2269 -0.5854
16514TIP3    H170957   6.191   0.557  14.580  0.1092 -0.7584  0.5366
16514TIP3    H270958   6.040   0.545  14.570  0.2312 -1.3536 -0.6479
16515TIP3   OH270959   6.259   0.897   3.168 -0.4643  0.2806 -0.0205
16515TIP3    H170960   6.345   0.889   3.125  0.1185 -0.1003  1.1950
16515TIP3    H270961   6.269   0.973   3.225 -0.7071 -0.1929  0.6508
16516TIP3   OH270962   2.610   5.534  14.121 -0.5336  0.0132 -0.0499
16516TIP3    H170963   2.680   5.563  14.063 -0.1836 -0.0992  0.3194
16516TIP3    H270964   2.646   5.458  14.166 -0.9786 -0.1910 -0.0379
16517TIP3   OH270965   5.630   4.681   0.817 -0.3129 -0.6082 -0.4874
16517TIP3    H170966   5.587   4.706   0.736  0.4208  2.0344 -0.0959
16517TIP3    H270967   5.722   4.667   0.792 -0.2780 -0.7547 -0.2858
16518TIP3   OH270968   4.798   1.476  14.987 -0.0605 -0.1388 -0.4552
16518TIP3    H170969   4.764   1.565  15.001  0.6596  0.0599  0.0553
16518TIP3    H270970   4.719   1.423  14.973 -0.5115  0.5385 -0.5336
16519TIP3   OH270971   5.703   3.092  14.698 -0.7338 -0.3838 -0.1927
16519TIP3    H170972   5.784   3.090  14.648 -0.9502  2.0618 -0.7322
16519TIP3    H270973   5.634   3.102  14.632 -1.3547 -1.1318  0.3376
16520TIP3   OH270974   1.098   3.678   6.313 -0.0356  0.1678  0.5498
16520TIP3    H170975   1.181   3.633   6.330 -0.7860 -1.6156 -0.2898
16520TIP3    H270976   1.053   3.679   6.397  1.0701  1.6791  1.1427
16521TIP3   OH270977   0.109   1.907   0.818  0.2349  0.1041 -0.4058
16521TIP3    H170978   0.102   2.002   0.826 -2.4248  0.0714 -1.7613
16521TIP3    H270979   0.143   1.893   0.729 -0.9650 -0.2384 -0.8170
16522TIP3   OH270980   5.966   4.977   5.570 -0.0902 -0.1159 -0.1049
16522TIP3    H170981   6.019   5.020   5.637 -1.2140  0.1235  0.6457
16522TIP3    H270982   5.968   4.884   5.593 -1.2242  0.0733  0.8094
16523TIP3   OH270983   6.636   1.169  11.876 -0.2299 -0.0394  0.2932
16523TIP3    H170984   6.693   1.182  11.952  0.1318  1.0014 -0.1567
16523TIP3    H270985   6.548   1.162  11.915 -0.2900  2.3729  0.7050
16524TIP3   OH270986   1.254   1.921  11.046  0.0679 -0.2249  0.0412
16524TIP3    H170987   1.171   1.874  11.048 -0.7675  1.1748 -0.6270
16524TIP3    H270988   1.229   2.014  11.044  1.6110  0.1972 -1.0602
16525TIP3   OH270989   3.502   1.290  11.807  0.0799 -0.5653 -0.5442
16525TIP3    H170990   3.488   1.201  11.773 -0.4795 -0.1395 -1.4285
16525TIP3    H270991   3.419   1.334  11.795  0.6942  0.4395 -1.1881
16526TIP3   OH270992   5.770   3.646   5.871  0.5597  0.7472 -0.2947
16526TIP3    H170993   5.756   3.638   5.966 -0.4710 -1.6957 -0.5967
16526TIP3    H270994   5.689   3.684   5.838 -0.9828 -2.7046 -0.6902
16527TIP3   OH270995   2.797   1.156   0.891  0.4833 -0.0039  0.0977
16527TIP3    H170996   2.825   1.077   0.938 -1.7185 -0.6686  0.3593
16527TIP3    H270997   2.807   1.132   0.798 -0.8398 -0.8633  0.1638
16528TIP3   OH270998   1.332   6.119   4.729  0.1074  0.4482  0.3369
16528TIP3    H170999   1.391   6.047   4.753 -1.2205 -0.6700  0.3411
16528TIP3    H271000   1.245   6.084   4.745 -0.5686  2.0651  0.2846
16529TIP3   OH271001   0.655   4.520   0.871  0.1501 -0.0830  0.2814
16529TIP3    H171002   0.574   4.556   0.908 -1.0340 -2.6867  0.3460
16529TIP3    H271003   0.698   4.478   0.945  1.1409  0.5243  0.0570
16530TIP3   OH271004   0.483   2.805  16.399 -0.3819  0.0710  0.1924
16530TIP3    H171005   0.469   2.719  16.361 -0.4279  0.5595 -0.9090
16530TIP3    H271006   0.423   2.808  16.474  1.1747 -1.6702  1.5774
16531TIP3   OH271007   1.982   2.336  15.870  0.3295  0.2727  0.2574
16531TIP3    H171008   1.890   2.314  15.855  0.4891 -1.5077  1.6176
16531TIP3    H271009   1.980   2.423  15.909 -0.9831 -0.5998  2.2694
16532TIP3   OH271010   3.715   6.530  10.715 -0.0636  0.1626 -0.0852
16532TIP3    H171011   3.797   6.538  10.763 -0.2647  0.2499  0.2466
16532TIP3    H271012   3.734   6.566  10.628  0.5126 -0.6883 -0.3193
16533TIP3   OH271013   2.235   0.023  15.874  0.2065 -0.7256 -0.1926
16533TIP3    H171014   2.255   0.093  15.813 -1.2854 -0.5713 -0.5248
16533TIP3    H271015   2.286   0.043  15.952  2.0942 -0.8988 -1.3521
16534TIP3   OH271016   4.643   1.324  13.930 -0.3601  0.3384  0.2605
16534TIP3    H171017   4.610   1.286  13.848 -2.0989  0.2499  0.9767
16534TIP3    H271018   4.714   1.265  13.955 -1.2963 -0.9568 -0.0225
16535TIP3   OH271019   2.444   0.644   1.583 -0.4224 -0.0657 -0.2757
16535TIP3    H171020   2.492   0.572   1.541 -0.3465 -1.6387  2.4238
16535TIP3    H271021   2.513   0.701   1.618 -0.5052  0.0332 -0.2731
16536TIP3   OH271022   1.414   2.350  14.999 -0.0588  0.0749 -0.6178
16536TIP3    H171023   1.492   2.404  15.009  0.2667 -0.1291 -1.8981
16536TIP3    H271024   1.386   2.366  14.909 -1.6774  0.3839 -0.0712
16537TIP3   OH271025   0.028   0.710  16.035  0.0746 -0.3471  0.0278
16537TIP3    H171026   0.117   0.676  16.025  0.5806  0.7235  0.6971
16537TIP3    H271027   0.015   0.716  16.130  0.0313  1.3228 -0.0564
16538TIP3   OH271028   6.610   5.138   2.109  0.1107  0.3816 -0.1608
16538TIP3    H171029   6.551   5.082   2.057 -0.5350 -1.1144  2.1047
16538TIP3    H271030   6.584   5.227   2.086 -2.6562 -0.2433  0.2862
16539TIP3   OH271031   5.339   3.831   1.409 -0.1237  0.1208 -0.1751
16539TIP3    H171032   5.361   3.738   1.398 -1.0410 -0.4075  2.1088
16539TIP3    H271033   5.280   3.850   1.336 -1.7411 -1.7322  0.5787
16540TIP3   OH271034   0.849   5.280   0.086  0.1553 -0.1901 -0.2018
16540TIP3    H171035   0.884   5.200   0.047  2.1759  0.5250  0.1011
16540TIP3    H271036   0.898   5.290   0.168  0.4480  1.7666 -0.6113
16541TIP3   OH271037   3.581   4.796   5.906 -0.1399 -0.1060  0.0751
16541TIP3    H171038   3.494   4.796   5.946 -0.5919  0.0752 -0.8863
16541TIP3    H271039   3.604   4.703   5.899  1.0471 -0.0824  3.0685
16542TIP3   OH271040   2.549   1.101  13.746  0.2027 -0.2193 -0.4269
16542TIP3    H171041   2.527   1.016  13.782 -0.5768  0.4535  0.7305
16542TIP3    H271042   2.562   1.157  13.823  1.9020  0.4100 -1.1532
16543TIP3   OH271043   3.925   4.281  16.355  0.2005  0.2268 -0.2762
16543TIP3    H171044   3.945   4.187  16.360  0.4456  0.2538 -0.7252
16543TIP3    H271045   3.914   4.298  16.262  0.3731  0.6930 -0.2107
16544TIP3   OH271046   6.144   3.117   0.161  0.9064  0.0632 -0.0999
16544TIP3    H171047   6.208   3.084   0.224 -0.2146 -1.1872  0.4186
16544TIP3    H271048   6.188   3.111   0.077  2.0731  0.8188  0.4403
16545TIP3   OH271049   4.019   5.123   3.778 -0.3310 -0.7502 -0.4562
16545TIP3    H171050   4.083   5.129   3.849 -0.0806  2.0313 -0.8692
16545TIP3    H271051   4.048   5.047   3.726  0.8058 -1.4096  1.1005
16546TIP3   OH271052   3.438   4.822   0.045  0.0836  0.8701  0.2926
16546TIP3    H171053   3.408   4.845   0.133 -1.9143  0.1160 -0.1836
16546TIP3    H271054   3.389   4.880  -0.014  1.4653  1.4302 -0.3485
16547TIP3   OH271055   0.676   2.417   5.852 -0.1951  0.0927  0.4638
16547TIP3    H171056   0.751   2.429   5.794  1.5345  0.4652  2.7169
16547TIP3    H271057   0.687   2.329   5.888  0.8945  1.2816  3.1456
16548TIP3   OH271058   1.431   6.711   0.110  0.4634 -0.3873 -0.2145
16548TIP3    H171059   1.445   6.671   0.196  0.1366 -0.2346 -0.0885
16548TIP3    H271060   1.338   6.730   0.107  0.2838 -1.3916 -1.0528
16549TIP3   OH271061   1.050   1.706  15.892 -0.3730  0.1907  0.0094
16549TIP3    H171062   1.068   1.622  15.934 -3.3504 -0.5651 -0.1692
16549TIP3    H271063   1.033   1.766  15.965 -0.3547  0.1493  0.0491
16550TIP3   OH271064   3.599   2.956  14.696 -0.6501 -0.6364 -0.1686
16550TIP3    H171065   3.563   2.868  14.689  1.3900 -1.5125 -0.0624
16550TIP3    H271066   3.618   2.967  14.789  0.4050 -0.6467 -0.3695
16551TIP3   OH271067   1.355   3.444  14.373 -0.1305 -0.8103  0.5818
16551TIP3    H171068   1.348   3.495  14.453  2.3354  1.7268 -0.7161
16551TIP3    H271069   1.444   3.409  14.374 -0.3968 -1.5654 -0.5977
16552TIP3   OH271070   4.270   4.554  12.269 -0.3882 -0.2431 -0.2114
16552TIP3    H171071   4.195   4.613  12.275  0.3260  0.7701 -1.1697
16552TIP3    H271072   4.245   4.489  12.204 -1.4806 -1.4627  1.4000
16553TIP3   OH271073   5.417   4.418   3.844  0.6102 -0.4163  0.2734
16553TIP3    H171074   5.409   4.474   3.922  1.5501 -1.3774  1.0742
16553TIP3    H271075   5.510   4.395   3.840  0.6357 -0.0675 -1.3574
16554TIP3   OH271076   0.589   6.512  12.694  0.0500  0.7840  0.5380
16554TIP3    H171077   0.654   6.512  12.625 -1.6987  0.9531 -1.1520
16554TIP3    H271078   0.627   6.567  12.763  1.6102  0.9911 -0.4658
16555TIP3   OH271079   6.578   1.241  12.184  0.2794  0.2637  0.3778
16555TIP3    H171080   6.508   1.219  12.123  0.6402 -0.1055  0.0981
16555TIP3    H271081   6.653   1.190  12.155  0.5211  0.2640  0.9866
16556TIP3   OH271082   6.028   6.750  11.606 -0.1974  0.1056 -0.1159
16556TIP3    H171083   6.099   6.785  11.659  1.2929 -0.7323 -1.5214
16556TIP3    H271084   6.071   6.697  11.539 -2.0509  0.6050 -1.7772
16557TIP3   OH271085   3.430   0.543   5.649 -0.6443  0.0521  0.4686
16557TIP3    H171086   3.518   0.577   5.666 -0.2559 -2.5512  4.2784
16557TIP3    H271087   3.376   0.621   5.638  1.9029  1.7170 -0.7002
16558TIP3   OH271088   5.440   1.440   4.023  0.0965  0.3969  0.8106
16558TIP3    H171089   5.446   1.513   3.961  0.0221  1.3989  1.9618
16558TIP3    H271090   5.349   1.442   4.054 -0.4217 -1.3612 -0.5424
16559TIP3   OH271091   5.495   0.910   0.763  0.0657  0.6315 -0.1578
16559TIP3    H171092   5.437   0.838   0.738 -0.8410  1.2643  0.0701
16559TIP3    H271093   5.562   0.870   0.818 -0.1864 -0.1109 -0.3889
16560TIP3   OH271094   5.097   5.556  11.807  0.7870  0.1331  0.5437
16560TIP3    H171095   5.181   5.511  11.802  0.8868  0.4722 -0.9528
16560TIP3    H271096   5.034   5.488  11.829  1.0970 -0.5709 -0.6970
16561TIP3   OH271097   5.342   1.899  14.909 -0.2330  0.3035  0.0101
16561TIP3    H171098   5.345   1.946  14.993 -0.6894 -0.5285  0.4961
16561TIP3    H271099   5.319   1.967  14.845  0.9840  1.1127  0.4189
16562TIP3   OH271100   0.109   6.655   5.854  0.0991 -0.2263 -0.1473
16562TIP3    H171101   0.055   6.594   5.805  1.1608 -0.9950 -0.3939
16562TIP3    H271102   0.068   6.740   5.840 -1.6687 -0.9339  0.5927
16563TIP3   OH271103   2.149   4.463  13.664  0.6846  0.2295  0.2908
16563TIP3    H171104   2.236   4.422  13.660  0.8013  0.2531  2.2267
16563TIP3    H271105   2.116   4.457  13.574  2.3934 -0.4176 -0.3171
16564TIP3   OH271106   2.777   5.621  11.648 -0.3116  0.5925  0.3087
16564TIP3    H171107   2.752   5.580  11.564 -1.8164  0.6210  0.7257
16564TIP3    H271108   2.803   5.547  11.703  0.8870  0.5912 -0.2437
16565TIP3   OH271109   0.162   4.419   1.354 -0.4315  0.7252  0.2086
16565TIP3    H171110   0.212   4.355   1.304  1.7688  2.8332 -0.3412
16565TIP3    H271111   0.181   4.399   1.445 -1.3876 -0.6715  0.1197
16566TIP3   OH271112   4.229   5.643  14.932 -0.3410  0.5439 -0.0615
16566TIP3    H171113   4.193   5.732  14.934 -1.8735  0.0246 -2.3322
16566TIP3    H271114   4.180   5.596  15.000  0.2926  1.3475  0.9689
16567TIP3   OH271115   0.636   4.043  15.680  0.2789 -0.1906 -0.0264
16567TIP3    H171116   0.708   4.000  15.635  0.8228  2.2206 -1.5483
16567TIP3    H271117   0.678   4.094  15.750 -0.2820 -1.4359  1.2434
16568TIP3   OH271118   3.356   4.165  12.000  0.0550  0.0788  0.9143
16568TIP3    H171119   3.427   4.182  12.062  1.0059 -0.0801 -0.1254
16568TIP3    H271120   3.368   4.230  11.931  0.8424 -1.6837 -0.6523
16569TIP3   OH271121   3.072   2.609  16.385 -0.6320  0.1955  1.1391
16569TIP3    H171122   3.053   2.557  16.463  0.1120 -0.2303  1.0295
16569TIP3    H271123   3.134   2.557  16.335  0.4480  1.3522  1.2307
16570TIP3   OH271124   5.788   6.169  14.413 -0.3232  0.5219 -0.3922
16570TIP3    H171125   5.854   6.124  14.360 -1.0807 -1.5419  0.3609
16570TIP3    H271126   5.833   6.246  14.447  1.5113 -0.4758 -0.4792
16571TIP3   OH271127   6.360   4.212   6.004 -0.3030  0.0370 -0.6925
16571TIP3    H171128   6.394   4.139   5.954  1.4146 -0.5599  1.2630
16571TIP3    H271129   6.267   4.214   5.984 -0.2803 -2.3819 -1.1676
16572TIP3   OH271130   1.115   4.294  10.588  0.1032 -0.4193 -0.6285
16572TIP3    H171131   1.069   4.212  10.606 -0.6585 -0.0274 -0.7569
16572TIP3    H271132   1.054   4.343  10.533 -0.1586  0.9373  0.8371
16573TIP3   OH271133   2.509   4.988   2.429 -0.1011  0.2395 -0.3403
16573TIP3    H171134   2.507   5.029   2.515  1.7014  0.9804 -0.6337
16573TIP3    H271135   2.504   4.894   2.446 -0.5736  0.4244  0.5237
16574TIP3   OH271136   3.970   4.132   4.022 -0.3351  0.6245  0.3969
16574TIP3    H171137   4.025   4.209   4.041  0.5221  0.1116  0.0409
16574TIP3    H271138   4.021   4.058   4.056 -0.5749  0.0871 -0.4102
16575TIP3   OH271139   3.982   3.918  16.757  0.0235  0.1712 -0.1797
16575TIP3    H171140   3.988   3.884  16.668  0.3283 -0.1873 -0.0243
16575TIP3    H271141   4.053   3.874  16.804  0.9363  1.6156 -0.1637
16576TIP3   OH271142   3.347   1.442  12.101 -0.0035  0.0353 -0.0926
16576TIP3    H171143   3.333   1.535  12.120  0.5529  0.2672 -0.8189
16576TIP3    H271144   3.264   1.400  12.124 -0.0980  0.6350  0.6991
16577TIP3   OH271145   4.377   0.313   0.302 -0.0934 -0.1154  0.0612
16577TIP3    H171146   4.446   0.263   0.345 -0.3238 -2.1933 -1.8748
16577TIP3    H271147   4.418   0.396   0.278  1.1663 -0.5485  0.6875
16578TIP3   OH271148   3.780   4.593   3.742 -0.3762 -0.5791 -0.0731
16578TIP3    H171149   3.854   4.594   3.804 -1.7648  0.4270  1.6192
16578TIP3    H271150   3.818   4.622   3.659  1.2111 -0.4171  0.6839
16579TIP3   OH271151   1.434   0.600  16.158  0.3072 -0.2940 -1.0600
16579TIP3    H171152   1.442   0.685  16.201  1.8013  1.1673 -4.0495
16579TIP3    H271153   1.502   0.546  16.198  0.4271  0.4392 -0.2603
16580TIP3   OH271154   3.343   4.768   2.592 -0.0361 -0.2571 -0.2255
16580TIP3    H171155   3.406   4.838   2.572  0.2298 -0.2368  0.6699
16580TIP3    H271156   3.273   4.812   2.640 -0.9425 -0.2062 -1.5468
16581TIP3   OH271157   0.063   2.236   4.075 -0.2986 -0.1477  0.4801
16581TIP3    H171158   0.067   2.318   4.025 -2.9900 -0.8730 -1.0056
16581TIP3    H271159  -0.028   2.231   4.106 -0.1984 -2.6360  0.4327
16582TIP3   OH271160   0.235   1.242   4.161  0.2196 -0.4867  0.1258
16582TIP3    H171161   0.180   1.164   4.156  1.7629 -1.5341 -1.2089
16582TIP3    H271162   0.312   1.221   4.108  1.5639  1.2191  1.3061
16583TIP3   OH271163   0.263   2.245  14.329  0.1740  0.5554  0.3226
16583TIP3    H171164   0.168   2.242  14.340  0.2328  0.6560  0.9232
16583TIP3    H271165   0.277   2.233  14.236 -0.3274 -1.5592  0.4855
16584TIP3   OH271166   1.223   5.747  10.885 -0.4334 -0.4970 -0.0879
16584TIP3    H171167   1.233   5.840  10.866 -1.9028 -0.1132  0.9469
16584TIP3    H271168   1.209   5.707  10.799 -1.4347  0.4669 -0.3939
16585TIP3   OH271169   4.422   4.562  11.724 -0.5052 -0.2172  0.1674
16585TIP3    H171170   4.333   4.542  11.752 -1.0409 -0.2141 -1.4582
16585TIP3    H271171   4.427   4.657  11.726  0.5237 -0.3003  3.3684
16586TIP3   OH271172   2.114   0.838  14.351  0.1577 -0.0312 -0.0057
16586TIP3    H171173   2.122   0.803  14.440  0.8018 -0.6711 -0.3083
16586TIP3    H271174   2.159   0.774  14.297  1.5378  1.3763 -0.5441
16587TIP3   OH271175   3.840   1.921  16.996  0.3571  0.1392 -0.7874
16587TIP3    H171176   3.810   1.914  17.086  1.0340 -1.3150 -0.6667
16587TIP3    H271177   3.785   1.990  16.958 -1.0730 -0.3978  0.2628
16588TIP3   OH271178   0.779   2.272  14.850 -0.6530  0.5170 -0.1101
16588TIP3    H171179   0.698   2.221  14.840 -0.1125 -0.4329  0.3046
16588TIP3    H271180   0.842   2.210  14.887 -0.1456  1.6342  0.9546
16589TIP3   OH271181   4.753   6.322   4.956 -0.4999 -0.4163  0.3174
16589TIP3    H171182   4.759   6.227   4.942 -0.4336 -0.6712  1.8931
16589TIP3    H271183   4.664   6.345   4.931 -0.5414 -0.9111  0.0053
16590TIP3   OH271184   3.918   0.040  15.814  0.5673  0.5496 -0.4512
16590TIP3    H171185   3.918   0.050  15.909  1.1442  1.3876 -0.5361
16590TIP3    H271186   4.008   0.017  15.792 -0.4463 -4.0776 -0.3632
16591TIP3   OH271187   4.452   3.030   5.201  0.2668  0.3356  0.1151
16591TIP3    H171188   4.423   2.986   5.120 -0.0066 -0.2325  0.5121
16591TIP3    H271189   4.479   3.117   5.173 -2.5506  1.1756 -0.1832
16592TIP3   OH271190   2.674   5.573   5.374  0.0966  0.3910  0.2089
16592TIP3    H171191   2.764   5.559   5.343 -0.1871  1.9160 -1.4066
16592TIP3    H271192   2.642   5.485   5.394  1.6571 -0.2581 -0.0377
16593TIP3   OH271193   3.362   5.094  15.235 -0.4567 -0.1705  0.2902
16593TIP3    H171194   3.444   5.093  15.283 -0.5551 -0.2582  0.4553
16593TIP3    H271195   3.355   5.006  15.197 -0.1729  0.0307 -0.2320
16594TIP3   OH271196   0.418   5.991  16.786  0.8145 -0.3107  0.5954
16594TIP3    H171197   0.402   5.921  16.850  0.1942 -0.5827  0.1419
16594TIP3    H271198   0.503   6.027  16.812  0.7359 -0.6578  1.3565
16595TIP3   OH271199   4.509   2.644   1.225  0.3875 -0.4305  0.6037
16595TIP3    H171200   4.529   2.577   1.159 -0.0774 -1.2260  1.2504
16595TIP3    H271201   4.494   2.594   1.305  0.7776  0.5127  1.2751
16596TIP3   OH271202   2.062   1.276   4.470 -0.8163  0.2830  0.1741
16596TIP3    H171203   1.994   1.208   4.464 -0.7668  0.2471  0.0316
16596TIP3    H271204   2.071   1.309   4.380  1.5242 -1.8064 -0.3936
16597TIP3   OH271205   3.225   1.162   3.880 -0.1101  0.2236 -0.4154
16597TIP3    H171206   3.266   1.216   3.813  0.0985  0.7027  0.0928
16597TIP3    H271207   3.133   1.158   3.854 -0.1337  0.8400 -0.4510
16598TIP3   OH271208   1.762   1.481  12.624  0.0695 -0.2948 -0.3223
16598TIP3    H171209   1.848   1.464  12.662  0.1184 -0.4293 -0.4900
16598TIP3    H271210   1.706   1.412  12.660 -0.1329  0.2048  0.3295
16599TIP3   OH271211   1.532   2.524   0.408 -0.2754  0.2633 -0.4482
16599TIP3    H171212   1.598   2.548   0.343 -0.1867  0.3593 -0.3236
16599TIP3    H271213   1.543   2.588   0.478  0.6501 -0.7596  0.3549
16600TIP3   OH271214   4.730   0.376  11.379  0.2041 -0.2864 -0.4601
16600TIP3    H171215   4.818   0.409  11.398  0.3431  0.4032 -2.1588
16600TIP3    H271216   4.677   0.455  11.369 -0.5032 -0.6947  0.0942
16601TIP3   OH271217   5.721   2.535  12.156  0.0819  0.2853  0.4596
16601TIP3    H171218   5.641   2.585  12.141 -0.4188 -0.5598  0.2848
16601TIP3    H271219   5.776   2.555  12.081 -2.1115 -3.3263 -2.2569
16602TIP3   OH271220   1.873   4.096   5.271 -0.0887 -0.5125  1.0010
16602TIP3    H171221   1.856   4.090   5.365 -1.6738  2.7430  0.9890
16602TIP3    H271222   1.794   4.137   5.235  0.9732 -0.6733 -1.5973
16603TIP3   OH271223   1.584   5.772  12.456 -0.0889  0.4080 -0.3242
16603TIP3    H171224   1.572   5.865  12.473 -0.4310  0.1679  0.8254
16603TIP3    H271225   1.536   5.729  12.528  2.3901 -0.6415  0.7417
16604TIP3   OH271226   4.347   1.640  16.586 -0.1724 -0.9974 -0.2300
16604TIP3    H171227   4.290   1.667  16.514  3.2043 -1.5447 -3.2535
16604TIP3    H271228   4.339   1.545  16.588  0.0684 -1.0180 -0.1920
16605TIP3   OH271229   5.118   6.219  12.840 -0.1553 -0.3490  0.2418
16605TIP3    H171230   5.053   6.213  12.910 -0.9272  2.1767 -0.2060
16605TIP3    H271231   5.200   6.193  12.882 -0.5044  1.6066  2.2578
16606TIP3   OH271232   4.942   0.813   3.970  0.2409  0.6037  0.2577
16606TIP3    H171233   4.898   0.743   3.922  0.8141  0.2614  0.2234
16606TIP3    H271234   4.908   0.894   3.931  1.9435  0.3218 -1.9104
16607TIP3   OH271235   1.020   3.663   2.126 -0.2731 -0.3701 -0.0920
16607TIP3    H171236   1.090   3.712   2.083 -1.4753 -0.6666 -2.4524
16607TIP3    H271237   0.966   3.730   2.167  0.5606 -0.0422  0.4921
16608TIP3   OH271238   1.792   4.929  11.490  0.0064  0.9103 -0.5421
16608TIP3    H171239   1.717   4.988  11.500  0.1687  0.8276  1.2603
16608TIP3    H271240   1.755   4.841  11.496  0.2191  0.8688  0.3225
16609TIP3   OH271241   6.574   3.432  17.017 -0.0555  0.0537  0.3096
16609TIP3    H171242   6.549   3.349  16.977  0.2416  0.3307 -0.4695
16609TIP3    H271243   6.602   3.408  17.106 -0.0946 -0.6603  0.1366
16610TIP3   OH271244   6.005   1.855  12.002 -0.3970 -0.2084 -0.3349
16610TIP3    H171245   5.951   1.844  11.924  0.0275  1.0049 -0.8214
16610TIP3    H271246   6.018   1.949  12.009  0.5185 -0.3869  0.5490
16611TIP3   OH271247   2.085   6.142  13.424  0.0679 -0.0207 -0.2370
16611TIP3    H171248   2.166   6.120  13.470 -2.1823 -2.0060  2.9919
16611TIP3    H271249   2.092   6.097  13.340  2.4403  0.1501 -0.1662
16612TIP3   OH271250   4.797   6.357   5.899  0.5968 -0.5828 -0.1993
16612TIP3    H171251   4.888   6.327   5.898  0.6914 -0.3511  1.0625
16612TIP3    H271252   4.773   6.361   5.992 -1.0404 -1.6697 -0.5500
16613TIP3   OH271253   5.824   0.593  16.859 -0.1246  0.3753 -0.1705
16613TIP3    H171254   5.781   0.672  16.827 -0.5288 -1.2433 -3.9621
16613TIP3    H271255   5.876   0.562  16.784  0.3945 -2.6964  1.3588
16614TIP3   OH271256   4.531   6.125  12.332  0.1252  0.4259  0.2231
16614TIP3    H171257   4.482   6.073  12.397  0.0383 -0.6720 -0.7008
16614TIP3    H271258   4.463   6.158  12.273  0.1389  1.9535  1.0398
16615TIP3   OH271259   3.578   3.939   5.594 -0.5057  0.3858  0.3090
16615TIP3    H171260   3.507   3.928   5.657  0.3552  2.9351  1.7866
16615TIP3    H271261   3.652   3.970   5.646  0.4597  1.8031 -1.8251
16616TIP3   OH271262   4.136   4.833   4.096 -0.0753  0.3701  0.1973
16616TIP3    H171263   4.125   4.811   4.004  0.9235 -0.4420  0.2581
16616TIP3    H271264   4.138   4.928   4.098 -0.0027  0.3895 -0.6301
16617TIP3   OH271265   2.022   3.139  15.785  0.1888 -0.0228  0.9658
16617TIP3    H171266   1.940   3.185  15.801  0.2686  1.1596 -1.8254
16617TIP3    H271267   1.996   3.054  15.750  0.1451 -0.1069  1.2002
16618TIP3   OH271268   6.611   5.549   0.806 -0.0270  0.2063  0.5408
16618TIP3    H171269   6.631   5.633   0.846 -1.8826  0.0552  1.8688
16618TIP3    H271270   6.673   5.488   0.845  0.0610  0.5995  1.0104
16619TIP3   OH271271   0.975   5.230   1.490 -0.1940 -0.7385  0.4311
16619TIP3    H171272   1.038   5.218   1.419  0.3146 -0.8911  0.9022
16619TIP3    H271273   0.995   5.160   1.553 -0.2419 -0.2465  1.0044
16620TIP3   OH271274   2.865   1.392   5.353 -0.0269  0.0737 -0.1248
16620TIP3    H171275   2.860   1.351   5.266  1.8815  0.7893 -0.5953
16620TIP3    H271276   2.922   1.334   5.404 -0.9732 -0.2295  0.6017
16621TIP3   OH271277   6.543   4.872   3.659 -0.6202 -0.3026  0.0861
16621TIP3    H171278   6.479   4.875   3.588 -0.4371  1.0527 -0.0379
16621TIP3    H271279   6.499   4.918   3.731  0.0233  0.2073  0.1532
16622TIP3   OH271280   3.332   4.032   0.911  0.1015 -0.0168 -0.6249
16622TIP3    H171281   3.258   4.081   0.876 -1.0503 -1.5097 -0.3209
16622TIP3    H271282   3.406   4.060   0.858 -0.6702  1.5024 -0.9221
16623TIP3   OH271283   1.257   6.457   0.494  0.7713 -0.3195 -0.4453
16623TIP3    H171284   1.273   6.363   0.481 -2.0811 -0.9266  0.0948
16623TIP3    H271285   1.232   6.490   0.408  0.5446 -0.3448 -0.3914
16624TIP3   OH271286   0.995   5.410   0.841 -0.3061  0.2263 -0.0276
16624TIP3    H171287   0.970   5.445   0.756  1.2247 -0.5811 -0.8344
16624TIP3    H271288   0.916   5.365   0.872 -1.0342  0.9596 -0.7747
16625TIP3   OH271289   3.262   1.703  12.728  0.4724  0.4654 -0.4953
16625TIP3    H171290   3.204   1.718  12.653  0.3700  0.8111 -0.3488
16625TIP3    H271291   3.294   1.790  12.752  1.3226  0.2379 -0.7877
16626TIP3   OH271292   5.214   0.715   3.593  0.5124  0.0936 -0.3158
16626TIP3    H171293   5.174   0.670   3.668  0.2963  0.8937  0.0531
16626TIP3    H271294   5.300   0.741   3.624 -0.2240  1.9354  0.2320
16627TIP3   OH271295   5.460   2.742   5.045 -0.2327 -0.0404 -0.6361
16627TIP3    H171296   5.443   2.648   5.040  0.7937 -0.2126 -0.9953
16627TIP3    H271297   5.493   2.765   4.958  0.4683  0.4634 -0.2382
16628TIP3   OH271298   4.658   3.591   2.540  0.4854 -0.2789 -0.0191
16628TIP3    H171299   4.657   3.564   2.632  0.7316 -0.4597 -0.0687
16628TIP3    H271300   4.683   3.512   2.492  0.4831 -0.1513 -0.2317
16629TIP3   OH271301   5.902   5.074  11.652  0.0907 -0.1256  0.1886
16629TIP3    H171302   5.924   5.014  11.723 -0.9195 -0.2297  0.4124
16629TIP3    H271303   5.974   5.065  11.590 -0.1958 -1.7834  0.0809
16630TIP3   OH271304   4.807   5.032  13.718  0.3458  0.1487 -0.2726
16630TIP3    H171305   4.751   4.956  13.737  2.1418 -1.1014  0.1768
16630TIP3    H271306   4.896   4.997  13.718  1.1286  2.0484 -1.2565
16631TIP3   OH271307   0.299   1.895  13.377 -0.8287 -0.7054  0.0630
16631TIP3    H171308   0.304   1.811  13.332 -0.8203 -0.0666 -1.1639
16631TIP3    H271309   0.359   1.887  13.451  1.2881 -0.8422 -1.6275
16632TIP3   OH271310   1.083   5.078  16.431  0.2307 -0.1908  0.1160
16632TIP3    H171311   1.067   5.076  16.525  0.3461 -1.3394  0.1276
16632TIP3    H271312   1.169   5.120  16.422 -0.0667  0.4978  0.4730
16633TIP3   OH271313   2.078   3.621  13.296  0.2896  0.8512 -0.1165
16633TIP3    H171314   2.035   3.664  13.222  0.9289  1.8306  0.0747
16633TIP3    H271315   2.121   3.544  13.258  0.3531  1.1802 -0.7113
16634TIP3   OH271316   2.919   5.331  13.971 -0.3270 -0.0483  0.0115
16634TIP3    H171317   3.008   5.307  13.997 -0.1303 -1.2166 -1.6585
16634TIP3    H271318   2.909   5.422  13.999  1.6979  0.3764 -0.6064
16635TIP3   OH271319   2.168   0.811  11.301  0.6922  0.2618 -0.4585
16635TIP3    H171320   2.126   0.833  11.218 -0.8754  0.0577  0.2744
16635TIP3    H271321   2.224   0.736  11.280 -1.5955 -1.3969 -0.8450
16636TIP3   OH271322   2.556   2.980  13.580  0.0667  0.9991 -0.0375
16636TIP3    H171323   2.563   3.075  13.590 -1.1550  1.1440 -0.4314
16636TIP3    H271324   2.481   2.968  13.521 -0.2798 -0.2304  0.6363
16637TIP3   OH271325   0.826   1.043  14.156 -0.0423 -0.1833 -0.0091
16637TIP3    H171326   0.777   1.110  14.203  2.5439  2.0344 -0.3412
16637TIP3    H271327   0.908   1.034  14.206 -0.6078 -3.6338  0.4317
16638TIP3   OH271328   5.316   3.313  13.827  0.0425  0.4205  0.3787
16638TIP3    H171329   5.376   3.275  13.891  2.0887  0.3168 -1.5404
16638TIP3    H271330   5.364   3.386  13.788 -0.3615 -0.7366 -2.4420
16639TIP3   OH271331   1.673   6.127  15.795 -0.4573  0.1267  0.3374
16639TIP3    H171332   1.758   6.084  15.782 -0.3542  0.0174  1.2782
16639TIP3    H271333   1.658   6.120  15.890 -0.7405  1.6221  0.4064
16640TIP3   OH271334   4.797   2.528   2.662  0.9229  0.1487  0.0567
16640TIP3    H171335   4.825   2.438   2.677  1.2766  0.2066 -0.2584
16640TIP3    H271336   4.873   2.571   2.622  1.0281  0.7840  0.9141
16641TIP3   OH271337   0.053   1.086  13.790 -0.1189 -0.4432  0.1423
16641TIP3    H171338   0.114   1.064  13.860  2.1916  2.0861 -0.9830
16641TIP3    H271339   0.017   1.171  13.814 -0.4861 -0.2666 -0.9718
16642TIP3   OH271340   5.950   1.510   0.420  0.1080  0.6615 -0.0142
16642TIP3    H171341   5.957   1.445   0.490 -0.9908  0.2326 -0.2866
16642TIP3    H271342   5.858   1.536   0.421  0.5969  2.4273  0.2684
16643TIP3   OH271343   1.494   2.258   4.952 -0.2706  0.3336  0.0266
16643TIP3    H171344   1.472   2.349   4.934  0.5326  0.3517 -0.9206
16643TIP3    H271345   1.415   2.209   4.928  0.1548  0.5416 -1.8823
16644TIP3   OH271346   3.256   2.461  13.263 -0.5176 -0.2922  0.0023
16644TIP3    H171347   3.205   2.541  13.265 -0.9894 -0.6067  0.6697
16644TIP3    H271348   3.342   2.488  13.232  0.0510  0.8887  2.4853
16645TIP3   OH271349   5.668   3.056   3.476 -0.3046  0.3904  0.9041
16645TIP3    H171350   5.579   3.071   3.444 -0.2174 -0.4103  0.2840
16645TIP3    H271351   5.658   2.992   3.547 -0.0110 -1.2095 -0.4836
16646TIP3   OH271352   5.358   4.890  11.624  0.0321 -0.0880  0.3867
16646TIP3    H171353   5.406   4.808  11.629 -1.6470 -1.0662  0.8350
16646TIP3    H271354   5.290   4.882  11.691  0.8961  2.3657  1.5996
16647TIP3   OH271355   6.521   1.305   5.457 -0.1906  0.0033 -0.4206
16647TIP3    H171356   6.584   1.357   5.507 -1.0994  1.1108 -0.3792
16647TIP3    H271357   6.510   1.353   5.375  0.7778 -1.4383 -1.4112
16648TIP3   OH271358   4.071   4.571  13.485  0.0651 -0.0429  0.2183
16648TIP3    H171359   4.053   4.571  13.391 -1.3268 -0.9245  0.4655
16648TIP3    H271360   3.993   4.612  13.524 -0.0656 -1.1192  1.0915
16649TIP3   OH271361   1.407   1.838   2.359  0.6397  0.0944 -1.4759
16649TIP3    H171362   1.452   1.903   2.304  0.6671  0.6135 -0.8400
16649TIP3    H271363   1.331   1.883   2.393  2.7279  1.0780  2.1432
16650TIP3   OH271364   0.408   2.524   1.948 -0.1263  0.1611  0.4194
16650TIP3    H171365   0.483   2.539   2.006 -0.7452 -0.9100  1.5114
16650TIP3    H271366   0.346   2.594   1.970 -0.2094 -0.0287  0.7730
16651TIP3   OH271367   5.280   1.847   5.467 -0.2485  0.3490 -0.1195
16651TIP3    H171368   5.307   1.756   5.457  1.0254  0.8895 -1.7487
16651TIP3    H271369   5.330   1.879   5.542  1.6078  0.5700 -1.4453
16652TIP3   OH271370   6.348   0.021  12.415 -0.3474  0.1148  0.0238
16652TIP3    H171371   6.395  -0.059  12.441  0.4998 -0.1745 -2.2396
16652TIP3    H271372   6.415   0.089  12.417 -0.3538  0.1560 -0.9987
16653TIP3   OH271373   0.349   5.441  14.819  0.5312  0.5049  0.3608
16653TIP3    H171374   0.389   5.477  14.739 -0.3148 -1.6438 -1.0582
16653TIP3    H271375   0.271   5.495  14.833  1.0814  1.3644  0.1773
16654TIP3   OH271376   1.959   2.302  13.839  0.2609 -0.4342  0.7288
16654TIP3    H171377   1.922   2.237  13.780 -0.0601 -0.4564  0.9521
16654TIP3    H271378   2.013   2.252  13.900  1.5440 -0.2817 -0.2724
16655TIP3   OH271379   5.442   2.558  11.066 -0.1483 -0.0101  0.2380
16655TIP3    H171380   5.508   2.580  11.132  2.5966 -0.4375 -2.2461
16655TIP3    H271381   5.393   2.640  11.053  1.5998  1.0662  0.2840
16656TIP3   OH271382   4.012   2.964   1.968  0.4935  0.4003  0.2520
16656TIP3    H171383   4.088   2.910   1.949 -0.7632 -0.3057 -3.0684
16656TIP3    H271384   4.015   3.034   1.903  0.3263  2.5525  2.4693
16657TIP3   OH271385   3.676   4.502  16.406 -0.0687  0.4227  0.2689
16657TIP3    H171386   3.709   4.585  16.370  1.2547  0.0508  0.5963
16657TIP3    H271387   3.691   4.438  16.336  0.8099  0.0620  0.7780
16658TIP3   OH271388   6.727   2.942  11.259 -0.2991  0.2898  0.3468
16658TIP3    H171389   6.712   2.852  11.286  0.7051  0.5570  1.8579
16658TIP3    H271390   6.816   2.961  11.288 -1.1998  2.4072  1.8664
16659TIP3   OH271391   4.207   1.161  13.405 -0.4601  0.3487  0.3762
16659TIP3    H171392   4.135   1.152  13.343 -0.3066  0.3061  0.2045
16659TIP3    H271393   4.235   1.252  13.397 -0.2220  0.2554  0.1419
16660TIP3   OH271394   4.921   6.530  11.569 -0.0397  0.3076  0.4264
16660TIP3    H171395   4.936   6.599  11.505  1.4917  0.5403  1.0177
16660TIP3    H271396   5.009   6.504  11.598 -0.6194 -1.4383  0.6803
16661TIP3   OH271397   1.144   5.945  12.695  0.1343  0.0229  0.0641
16661TIP3    H171398   1.058   5.916  12.665 -0.2363  0.8106  0.3534
16661TIP3    H271399   1.200   5.938  12.617  0.1746 -1.8940  0.2462
16662TIP3   OH271400   5.954   1.407  16.351 -0.1297 -0.2786  0.0292
16662TIP3    H171401   5.891   1.339  16.324 -1.4528  1.7434 -2.2415
16662TIP3    H271402   6.027   1.396  16.291 -0.2350  0.1302 -0.1738
16663TIP3   OH271403   6.563   4.805  10.179 -0.2133  0.2415  0.5316
16663TIP3    H171404   6.485   4.857  10.163  0.1588  0.2171 -1.5252
16663TIP3    H271405   6.636   4.866  10.167  0.1291 -0.0835  0.9305
16664TIP3   OH271406   3.102   5.796   1.364  0.2932 -0.2148 -0.0784
16664TIP3    H171407   3.021   5.812   1.412  0.4936 -1.7855  0.8033
16664TIP3    H271408   3.074   5.753   1.283  0.1963 -0.1394 -0.0851
16665TIP3   OH271409   3.808   3.002   6.019  0.2656 -0.3872  0.7652
16665TIP3    H171410   3.885   2.957   5.985 -1.2405 -1.6895 -1.0254
16665TIP3    H271411   3.802   2.975   6.110  1.9181 -0.2464  0.9340
16666TIP3   OH271412   6.361   4.900  12.742 -0.3628 -0.1319 -0.3401
16666TIP3    H171413   6.360   4.892  12.646 -0.0590  1.8181 -0.5186
16666TIP3    H271414   6.269   4.904  12.767 -0.4188  1.1498 -0.7197
16667TIP3   OH271415   3.831   5.911  14.057 -0.0067 -0.0127 -0.4613
16667TIP3    H171416   3.802   5.871  14.139  0.2218 -2.0917 -1.3584
16667TIP3    H271417   3.765   5.977  14.038 -0.8461 -0.5094  0.6626
16668TIP3   OH271418   0.528   6.127  12.377  0.4514  0.1136 -0.1223
16668TIP3    H171419   0.484   6.203  12.415  0.9868 -0.1879  1.0965
16668TIP3    H271420   0.499   6.127  12.285 -0.9845  0.7352  0.3091
16669TIP3   OH271421   3.576   4.688   5.526  0.4404  0.1172  0.2215
16669TIP3    H171422   3.589   4.783   5.524 -2.1452  0.4976 -2.4410
16669TIP3    H271423   3.517   4.674   5.599 -2.4353  1.1408 -1.7811
16670TIP3   OH271424   2.737   3.864  13.994 -0.2902  0.3658  0.3714
16670TIP3    H171425   2.795   3.940  13.995  0.8033 -0.4440  0.8819
16670TIP3    H271426   2.793   3.792  14.024 -0.7728 -1.0114 -1.8892
16671TIP3   OH271427   5.412   5.789  10.675 -0.2994  0.1377 -0.4797
16671TIP3    H171428   5.504   5.810  10.660 -0.2206 -0.4820 -0.9028
16671TIP3    H271429   5.401   5.702  10.636 -1.3679  0.7355 -1.5685
16672TIP3   OH271430   5.704   3.463  13.530 -0.2467  0.2375  0.6904
16672TIP3    H171431   5.726   3.381  13.485  0.1235  0.8230 -0.2207
16672TIP3    H271432   5.788   3.494  13.565  0.0932  1.5315 -1.1942
16673TIP3   OH271433   3.406   6.655   3.875 -0.6000 -0.1760  0.2826
16673TIP3    H171434   3.360   6.670   3.958 -1.5518 -0.7950 -0.1211
16673TIP3    H271435   3.355   6.704   3.810  0.0115  0.1199  0.0230
16674TIP3   OH271436   0.326   1.534   6.322  0.2798  0.0677  0.2452
16674TIP3    H171437   0.364   1.532   6.234 -1.5301 -0.7876 -0.5599
16674TIP3    H271438   0.282   1.619   6.327  1.2680  0.5560  0.7275
16675TIP3   OH271439   2.425   2.914   2.474 -0.1049  0.2550  0.7869
16675TIP3    H171440   2.445   3.004   2.498 -1.1899  0.6284  0.2892
16675TIP3    H271441   2.332   2.904   2.489 -0.8004  0.4337 -2.8846
16676TIP3   OH271442   5.799   2.121   5.670  0.5094 -0.1184  0.3136
16676TIP3    H171443   5.751   2.192   5.713 -1.1551 -0.3775 -1.0977
16676TIP3    H271444   5.847   2.164   5.599  1.7891  0.0119  1.2234
16677TIP3   OH271445   5.036   4.760   4.913  0.4474 -0.0488 -0.0183
16677TIP3    H171446   5.015   4.840   4.962  0.8826  0.0841 -0.0527
16677TIP3    H271447   5.110   4.784   4.858 -1.6178  0.5828 -2.6831
16678TIP3   OH271448   5.944   2.549   5.776  0.0213 -0.7447 -0.2077
16678TIP3    H171449   5.935   2.559   5.681 -0.8620  1.1400  0.0437
16678TIP3    H271450   5.864   2.587   5.812  0.2253 -1.6805  1.2985
16679TIP3   OH271451   0.163   1.532   5.389  0.0354  0.8506 -0.3637
16679TIP3    H171452   0.258   1.538   5.373  0.0793 -0.1458 -0.4697
16679TIP3    H271453   0.136   1.453   5.343 -0.7138  0.6859  0.3529
16680TIP3   OH271454   1.608   5.935  11.952 -0.2327 -0.1993 -0.1197
16680TIP3    H171455   1.662   5.979  11.886 -1.0742 -0.3898 -0.9659
16680TIP3    H271456   1.668   5.876  11.997  0.4385  0.1961 -0.4856
16681TIP3   OH271457   2.363   6.482  17.065 -0.4670  0.7674 -0.1714
16681TIP3    H171458   2.389   6.566  17.028  0.1640  0.1839 -1.0945
16681TIP3    H271459   2.311   6.441  16.996 -0.1418  0.0954 -0.0229
16682TIP3   OH271460   2.506   3.731   4.065  0.2812  0.1974 -0.4943
16682TIP3    H171461   2.535   3.648   4.026  1.6781  0.1092  0.6923
16682TIP3    H271462   2.441   3.764   4.003  0.3535 -1.3434 -1.4402
16683TIP3   OH271463   4.000   5.388  11.943 -0.4600 -0.0670 -0.2458
16683TIP3    H171464   3.963   5.439  11.870 -1.2049  0.3221  0.3894
16683TIP3    H271465   3.928   5.382  12.006  0.6987  1.0966  1.2406
16684TIP3   OH271466   0.936   2.580   6.179  0.2567  0.1615 -0.2994
16684TIP3    H171467   0.873   2.578   6.251  0.0478 -1.6267 -0.5214
16684TIP3    H271468   1.015   2.619   6.218  0.5108 -1.7764  1.2282
16685TIP3   OH271469   0.838   5.006   2.748  0.6385  0.1806 -0.0354
16685TIP3    H171470   0.768   5.070   2.739 -0.3252 -0.8486 -0.0282
16685TIP3    H271471   0.800   4.936   2.800  2.4550  0.6926  2.0602
16686TIP3   OH271472   0.536   4.073  16.885  0.2644  0.1004 -0.4069
16686TIP3    H171473   0.533   3.982  16.857  1.9436 -0.3763  0.8290
16686TIP3    H271474   0.582   4.119  16.815 -1.3173  0.1652 -1.4148
16687TIP3   OH271475   2.582   0.068  13.404 -0.1413 -0.2959  0.2373
16687TIP3    H171476   2.534   0.035  13.328 -2.0239 -0.2563  1.3961
16687TIP3    H271477   2.666   0.097  13.367 -0.9753 -0.3622 -1.8085
16688TIP3   OH271478   5.613   1.371  14.780  0.0050  0.1907 -0.0698
16688TIP3    H171479   5.543   1.436  14.775  0.2096  0.2961 -1.8858
16688TIP3    H271480   5.582   1.308  14.845 -1.2951  0.7992 -0.0756
16689TIP3   OH271481   5.226   2.495  15.829 -0.5984  0.8588  0.0263
16689TIP3    H171482   5.148   2.547  15.807 -1.1808  0.0016  0.0515
16689TIP3    H271483   5.293   2.526  15.768 -1.6276 -0.0535 -1.6083
16690TIP3   OH271484   4.675   3.915   0.196 -0.8060 -0.1183 -0.2520
16690TIP3    H171485   4.658   3.998   0.152  0.9826  0.4273  0.0457
16690TIP3    H271486   4.615   3.915   0.271 -1.3375  0.5454 -0.6675
16691TIP3   OH271487   2.818   2.035  13.002  0.2355 -0.9230  0.1500
16691TIP3    H171488   2.827   2.125  12.971 -1.5247 -1.0994 -0.9496
16691TIP3    H271489   2.778   1.988  12.929 -0.7179 -2.1575  1.4402
16692TIP3   OH271490   4.889   1.605  12.433 -0.0807 -0.0079  0.2361
16692TIP3    H171491   4.943   1.632  12.359  0.0886 -2.0374 -0.3870
16692TIP3    H271492   4.934   1.530  12.471 -0.5709  0.5299  1.9451
16693TIP3   OH271493   2.102   6.558  15.288 -0.2474  0.5349 -0.2334
16693TIP3    H171494   2.049   6.563  15.367  0.2779  0.2413  0.1345
16693TIP3    H271495   2.067   6.482  15.241  0.0812  0.1236  0.1810
16694TIP3   OH271496   4.975   6.019   1.925 -0.1805  0.2419  0.2693
16694TIP3    H171497   4.928   6.064   1.855 -1.1310 -2.1274 -0.6729
16694TIP3    H271498   4.909   6.008   1.994  0.2025  0.8120  0.7224
16695TIP3   OH271499   0.808   0.420  16.254  0.4305 -0.0151 -0.1405
16695TIP3    H171500   0.742   0.412  16.185 -0.8449  1.3961  0.8871
16695TIP3    H271501   0.831   0.513  16.254  2.2226 -0.4568 -0.3103
16696TIP3   OH271502   0.006   0.618  11.812  0.1644 -0.2763  0.3937
16696TIP3    H171503  -0.009   0.709  11.837  0.2496  0.0982 -0.8783
16696TIP3    H271504   0.002   0.569  11.895 -1.1388  0.7106  0.9401
16697TIP3   OH271505   4.501   4.690  12.967  0.0097 -0.0535 -0.1431
16697TIP3    H171506   4.427   4.681  13.026  0.8985  0.1998  1.0341
16697TIP3    H271507   4.562   4.748  13.014 -0.2000  1.9247 -2.2106
16698TIP3   OH271508   1.059   2.972  12.445 -0.4893 -0.1993 -0.5580
16698TIP3    H171509   0.975   2.977  12.399 -1.5228 -0.3495  1.2598
16698TIP3    H271510   1.044   3.019  12.527  1.3890  0.2628 -0.4519
16699TIP3   OH271511   5.441   4.542   2.375  0.0928 -0.3998  0.2022
16699TIP3    H171512   5.399   4.460   2.350 -0.7372  0.1653 -0.2965
16699TIP3    H271513   5.533   4.529   2.355 -0.1586 -0.9182 -0.6428
16700TIP3   OH271514   3.081   5.213  15.927  0.1735  0.0111 -0.3335
16700TIP3    H171515   3.137   5.192  15.852  3.2490  0.2529  1.7823
16700TIP3    H271516   3.055   5.128  15.963  0.1899 -0.1098 -0.6092
16701TIP3   OH271517   0.541   5.656  14.892 -0.6133  0.4968 -0.5824
16701TIP3    H171518   0.544   5.619  14.804 -0.7059 -0.5101 -0.1642
16701TIP3    H271519   0.478   5.602  14.939 -0.1820  0.7125  0.2538
16702TIP3   OH271520   1.939   3.362   3.725  0.1163  0.2747 -0.3921
16702TIP3    H171521   1.893   3.279   3.718  2.5263 -1.1311  0.0652
16702TIP3    H271522   2.031   3.339   3.718  0.8245  2.9073 -0.1720
16703TIP3   OH271523   6.297   6.685  13.756 -0.0308  0.3015  0.2512
16703TIP3    H171524   6.347   6.630  13.817  1.6545  1.0428 -0.4424
16703TIP3    H271525   6.237   6.624  13.714  2.3002 -1.1913 -1.0178
16704TIP3   OH271526   5.104   4.523  15.496  0.1257  0.1228 -0.9354
16704TIP3    H171527   5.136   4.560  15.579  0.8138 -1.7754 -0.3461
16704TIP3    H271528   5.184   4.504  15.447 -0.1843 -1.5664 -0.7940
16705TIP3   OH271529   4.617   3.023  12.570  0.0048 -0.2775  0.5053
16705TIP3    H171530   4.653   3.092  12.625  1.9483 -1.7574  1.1545
16705TIP3    H271531   4.624   3.057  12.480  0.1373  0.7065  0.8819
16706TIP3   OH271532   2.790   3.214   2.033  0.3105  0.1287  0.0618
16706TIP3    H171533   2.792   3.157   1.956 -0.7214 -0.2831  0.3264
16706TIP3    H271534   2.843   3.169   2.098 -1.7244 -1.2902  0.7746
16707TIP3   OH271535   1.034   0.602  11.927  0.2951 -0.1050  0.8683
16707TIP3    H171536   0.997   0.638  11.846  0.7684 -0.0658  0.6715
16707TIP3    H271537   1.108   0.549  11.899 -0.3756 -1.2190  1.1689
16708TIP3   OH271538   6.039   5.991  15.983  0.0892  0.1143  0.2465
16708TIP3    H171539   5.980   6.034  15.921  0.2361 -0.8715 -0.5815
16708TIP3    H271540   5.991   5.912  16.011 -0.3084  0.9337  1.9903
16709TIP3   OH271541   3.494   2.930   3.878  0.1089  0.1218  0.1231
16709TIP3    H171542   3.521   3.012   3.835 -3.8120  1.5617  0.2634
16709TIP3    H271543   3.526   2.940   3.968  1.3451  0.6219 -0.3496
16710TIP3   OH271544   3.300   6.019   2.178  0.5357  0.2272  0.5842
16710TIP3    H171545   3.204   6.015   2.174  0.6031 -0.0995 -1.5841
16710TIP3    H271546   3.323   6.094   2.124  1.5491 -0.3987  0.1322
16711TIP3   OH271547   6.728   5.737  14.542 -0.3041 -0.1436  0.3266
16711TIP3    H171548   6.673   5.814  14.559 -0.6268 -0.5202  0.9663
16711TIP3    H271549   6.679   5.686  14.477 -0.8021 -0.5816  1.0487
16712TIP3   OH271550   0.184   5.517  13.775  0.0864 -0.7159  0.2141
16712TIP3    H171551   0.211   5.599  13.817 -0.3676 -0.9877  1.0652
16712TIP3    H271552   0.107   5.489  13.825 -1.2150 -0.4410 -1.5786
16713TIP3   OH271553   6.378   2.395   1.354 -0.3703 -0.2313  0.7746
16713TIP3    H171554   6.358   2.468   1.412  0.8184 -0.8369  1.9907
16713TIP3    H271555   6.293   2.367   1.319 -0.9657  0.8611  1.3498
16714TIP3   OH271556   1.521   0.365   2.438 -0.3003 -0.3075 -0.2532
16714TIP3    H171557   1.486   0.428   2.501  0.1450  0.2963 -0.6159
16714TIP3    H271558   1.565   0.299   2.492 -1.2376 -0.6081  0.1577
16715TIP3   OH271559   1.449   1.973  14.952 -0.2152 -0.1715  0.2514
16715TIP3    H171560   1.388   1.908  14.918  0.6971  0.2796 -2.3963
16715TIP3    H271561   1.409   2.057  14.927 -0.4122  0.2398  1.9096
16716TIP3   OH271562   6.217   6.776   4.459  0.9947 -0.4457  0.1577
16716TIP3    H171563   6.292   6.744   4.408  0.1425 -1.5706 -0.4105
16716TIP3    H271564   6.148   6.712   4.442 -0.1782  0.7248  0.4725
16717TIP3   OH271565   1.273   4.668  15.628 -0.2851  0.4560  0.0918
16717TIP3    H171566   1.184   4.661  15.663  0.4560 -0.2853  1.8684
16717TIP3    H271567   1.330   4.663  15.705  1.2797  1.7749 -0.9340
16718TIP3   OH271568   3.866   3.590  15.254 -0.3702 -0.3644  0.0683
16718TIP3    H171569   3.838   3.631  15.172 -0.6495 -1.4880 -0.4036
16718TIP3    H271570   3.962   3.588  15.249 -0.2529  1.9006  0.9140
16719TIP3   OH271571   0.053   3.389  12.381  0.0745  0.2636 -0.1577
16719TIP3    H171572   0.141   3.381  12.418  0.4637 -1.1296 -1.3482
16719TIP3    H271573  -0.002   3.415  12.455  1.4631  1.0714  0.6131
16720TIP3   OH271574   5.239   2.254  12.496  0.1241 -0.2526 -0.3844
16720TIP3    H171575   5.265   2.175  12.544  1.7315  0.2473 -0.4244
16720TIP3    H271576   5.237   2.226  12.405 -0.1869 -0.4777 -0.3100
16721TIP3   OH271577   1.393   4.716  14.687 -0.3555 -0.2277 -0.3382
16721TIP3    H171578   1.373   4.802  14.723  0.3654 -0.1002 -0.2244
16721TIP3    H271579   1.315   4.691  14.638 -0.7840  0.2400  0.1003
16722TIP3   OH271580   3.841   1.843   4.715 -0.5666 -0.4986  0.0461
16722TIP3    H171581   3.829   1.876   4.804 -0.5423 -1.3125  0.3509
16722TIP3    H271582   3.919   1.787   4.720 -0.9243 -1.0403 -0.3495
16723TIP3   OH271583   0.361   1.498   0.832 -0.3949 -0.2872  0.0813
16723TIP3    H171584   0.346   1.548   0.752  0.0874  1.6324  1.1684
16723TIP3    H271585   0.275   1.460   0.852 -0.2188 -1.9712 -2.0792
16724TIP3   OH271586   1.948   5.279  16.204 -0.4933 -0.7636  0.9808
16724TIP3    H171587   1.910   5.293  16.118  1.1523 -0.7895  0.2412
16724TIP3    H271588   1.880   5.233  16.253 -1.5796 -0.4034 -0.1656
16725TIP3   OH271589   2.694   1.325  12.917 -0.1579 -0.2764  0.3824
16725TIP3    H171590   2.668   1.410  12.953 -0.9758 -0.2134 -0.3471
16725TIP3    H271591   2.786   1.316  12.941  0.5698  1.8585 -1.5254
16726TIP3   OH271592   1.509   1.103  13.951 -0.1799 -0.0272  0.0992
16726TIP3    H171593   1.430   1.157  13.955 -0.6674 -0.6654 -0.6560
16726TIP3    H271594   1.574   1.150  14.004  0.2893  2.7838 -2.8062
16727TIP3   OH271595   3.965   3.111   0.547  0.3800 -0.0174  0.0011
16727TIP3    H171596   3.899   3.054   0.507 -0.6463  1.5645 -0.6105
16727TIP3    H271597   4.048   3.082   0.509  0.0336 -1.8431  0.5580
16728TIP3   OH271598   3.196   3.992   0.430  0.3464  0.8226  0.3478
16728TIP3    H171599   3.121   3.970   0.486  0.9621  0.1056  0.9035
16728TIP3    H271600   3.173   3.954   0.345  0.6963 -0.6353  0.8920
16729TIP3   OH271601   5.803   0.382  15.562  0.0178 -0.1188 -0.6451
16729TIP3    H171602   5.875   0.408  15.619 -0.1551  0.1912 -0.5658
16729TIP3    H271603   5.753   0.318  15.613 -0.8264  1.0580  0.0277
16730TIP3   OH271604   5.791   5.894   4.589 -0.3100 -0.1976  0.1569
16730TIP3    H171605   5.857   5.944   4.541 -1.5380 -0.3127 -1.7174
16730TIP3    H271606   5.709   5.913   4.543 -1.2416 -1.7222  1.1563
16731TIP3   OH271607   1.528   4.607  10.758  0.6514  0.1462  0.4110
16731TIP3    H171608   1.598   4.551  10.725  1.3963  1.6021 -0.4888
16731TIP3    H271609   1.447   4.563  10.730  1.2391 -0.1909 -0.7761
16732TIP3   OH271610   4.237   1.252  16.958 -0.0115 -0.4488  0.4429
16732TIP3    H171611   4.271   1.342  16.960  0.2682 -0.5436  0.0560
16732TIP3    H271612   4.163   1.256  16.898 -0.7407 -0.2297  1.3387
16733TIP3   OH271613   4.517   5.769   3.258 -0.7822 -0.1849  0.1425
16733TIP3    H171614   4.440   5.733   3.302 -0.3572 -0.0461  0.9982
16733TIP3    H271615   4.581   5.782   3.328  0.6368 -1.8900 -0.8079
16734TIP3   OH271616   1.781   6.036  16.158  0.4439 -0.0709 -0.2464
16734TIP3    H171617   1.843   6.008  16.092 -1.5462 -0.1156 -2.1620
16734TIP3    H271618   1.695   6.027  16.116 -0.5838  4.5417  0.5967
16735TIP3   OH271619   3.196   3.173  11.268 -0.3479 -0.3718 -0.5478
16735TIP3    H171620   3.147   3.183  11.187 -1.8867 -0.8296  0.2933
16735TIP3    H271621   3.190   3.258  11.311  2.8626  0.7661 -2.1503
16736TIP3   OH271622   4.895   6.185   5.212  0.5132 -0.4514 -0.6944
16736TIP3    H171623   4.973   6.237   5.231 -0.5419  0.9779 -0.1929
16736TIP3    H271624   4.852   6.231   5.140 -0.2874 -0.8002 -0.4450
16737TIP3   OH271625   1.001   3.832   3.080  0.1291  0.0161 -0.1976
16737TIP3    H171626   1.085   3.832   3.034  0.7656 -0.8248  0.9559
16737TIP3    H271627   0.937   3.806   3.013  0.3823  3.1654 -1.7350
16738TIP3   OH271628   1.925   3.600   5.777  0.5579 -0.0037  0.2752
16738TIP3    H171629   1.995   3.611   5.713  1.2175 -0.7575  0.8607
16738TIP3    H271630   1.968   3.607   5.862 -0.3229  1.0580  0.6474
16739TIP3   OH271631   6.563   3.613  11.602  0.9717 -0.2363  0.3207
16739TIP3    H171632   6.479   3.596  11.643  0.8406 -0.1856  0.0744
16739TIP3    H271633   6.548   3.688  11.545  0.3573 -2.1824 -2.1694
16740TIP3   OH271634   5.804   4.615  16.234  0.5735  0.1741  0.2014
16740TIP3    H171635   5.796   4.710  16.227  0.0295  0.0226 -1.5406
16740TIP3    H271636   5.719   4.582  16.206  0.6288 -0.8140  1.1982
16741TIP3   OH271637   2.373   4.752  14.201  0.4153 -0.7827  0.4631
16741TIP3    H171638   2.464   4.724  14.199  0.7836  0.3831  1.1741
16741TIP3    H271639   2.324   4.673  14.178  1.6714 -1.0570 -1.3351
16742TIP3   OH271640   1.134   5.100   2.745  0.0342  0.4538 -0.1268
16742TIP3    H171641   1.208   5.042   2.764  0.8339  0.9087 -1.6736
16742TIP3    H271642   1.066   5.042   2.709 -0.5486 -0.0329  1.7391
16743TIP3   OH271643   0.996   5.393  11.645 -0.1751  0.3128  0.5343
16743TIP3    H171644   1.057   5.360  11.580 -3.5047 -1.4879 -1.8014
16743TIP3    H271645   1.014   5.487  11.650  1.6556  0.0794 -1.2488
16744TIP3   OH271646   1.094   6.778  14.630 -0.3761  0.0299 -0.4086
16744TIP3    H171647   1.001   6.768  14.647 -0.5874  4.6601  2.0271
16744TIP3    H271648   1.136   6.708  14.680 -2.3905 -0.5742  0.4817
16745TIP3   OH271649   5.004   4.427  16.762 -0.6242 -0.5424 -0.4116
16745TIP3    H171650   5.069   4.421  16.692  0.5202 -0.9814  0.6544
16745TIP3    H271651   4.935   4.366  16.737 -0.7021  0.0152 -1.6168
16746TIP3   OH271652   4.831   4.181  10.799  0.2350  0.1852  0.3374
16746TIP3    H171653   4.887   4.115  10.840 -0.1868  0.0292  0.6759
16746TIP3    H271654   4.878   4.208  10.721  1.2421  0.7538  1.1178
16747TIP3   OH271655   5.739   5.761   4.828  0.3615 -0.0146  0.0639
16747TIP3    H171656   5.758   5.773   4.734  1.2171 -2.4914 -0.1059
16747TIP3    H271657   5.731   5.667   4.839 -2.7238  0.4192  1.9637
16748TIP3   OH271658   1.144   4.694  17.100  0.4154  0.0670  0.4228
16748TIP3    H171659   1.203   4.711  17.173 -0.7919  1.0374  1.1884
16748TIP3    H271660   1.086   4.770  17.097 -0.8985 -0.9337 -0.2093
16749TIP3   OH271661   2.111   0.765   0.883  0.4083 -0.8500 -0.0506
16749TIP3    H171662   2.142   0.769   0.974  0.7664 -1.6057 -0.1331
16749TIP3    H271663   2.113   0.856   0.853  0.9114 -0.6799  0.4887
16750TIP3   OH271664   3.047   3.239   5.400  0.2576  0.2203 -0.1063
16750TIP3    H171665   3.013   3.151   5.414  1.9565 -0.2703  1.0785
16750TIP3    H271666   3.018   3.289   5.476  0.6794  0.2586  0.0323
16751TIP3   OH271667   1.633   3.209  13.985  0.4273  0.7361  0.2197
16751TIP3    H171668   1.572   3.181  13.916  0.9574 -0.9034  0.4038
16751TIP3    H271669   1.585   3.276  14.034 -1.0151 -0.1335  0.0145
16752TIP3   OH271670   2.493   1.003   5.026  0.0257 -0.3580 -0.1483
16752TIP3    H171671   2.535   1.047   4.952 -1.6804  3.3650  0.9682
16752TIP3    H271672   2.401   0.998   5.002 -0.0503 -1.9612  0.4292
16753TIP3   OH271673   5.131   3.370  13.119 -0.2972 -0.5540 -0.0135
16753TIP3    H171674   5.122   3.441  13.055 -0.6533 -0.4701  0.1297
16753TIP3    H271675   5.180   3.302  13.073 -0.4104 -0.4274 -0.3222
16754TIP3   OH271676   2.260   5.279  13.285 -0.5135 -0.2893 -0.2854
16754TIP3    H171677   2.171   5.310  13.273 -0.1925 -0.0607 -2.1923
16754TIP3    H271678   2.313   5.333  13.226  0.9693 -0.0550  1.2216
16755TIP3   OH271679   3.685   3.990   2.086 -0.2036 -0.2469 -0.0433
16755TIP3    H171680   3.768   4.031   2.060  1.7348 -3.9970 -0.1607
16755TIP3    H271681   3.658   3.941   2.009 -2.7137  1.1239 -0.0743
16756TIP3   OH271682   2.674   2.128   2.992 -0.1116 -0.3373  0.2878
16756TIP3    H171683   2.753   2.083   2.960 -0.9856 -1.1519 -0.7671
16756TIP3    H271684   2.620   2.058   3.028 -2.7169 -0.6445 -3.8535
16757TIP3   OH271685   6.536   2.264  16.743  0.3391 -0.0640  0.4510
16757TIP3    H171686   6.626   2.259  16.710 -0.7347 -2.4724 -2.2860
16757TIP3    H271687   6.487   2.305  16.672 -1.5650 -3.1086 -0.0901
16758TIP3   OH271688   0.676   2.615  11.244 -0.8815 -0.2405 -0.3345
16758TIP3    H171689   0.651   2.601  11.335 -0.5166  1.1627 -0.0195
16758TIP3    H271690   0.752   2.673  11.248 -2.0265  1.3883 -1.6112
16759TIP3   OH271691   4.196   0.861   3.511 -0.3383 -0.3114  0.2579
16759TIP3    H171692   4.285   0.852   3.547 -0.3570 -0.0401  0.3754
16759TIP3    H271693   4.140   0.817   3.575 -0.3188 -0.2392  0.3249
16760TIP3   OH271694   5.674   3.287   4.335 -0.4734 -0.1931  0.4391
16760TIP3    H171695   5.754   3.260   4.289 -0.1245 -0.2756  1.0863
16760TIP3    H271696   5.644   3.364   4.287  0.1618  0.0146  0.3702
16761TIP3   OH271697   1.958   4.003  14.690 -0.1005  0.0358  0.0275
16761TIP3    H171698   2.018   3.928  14.691  0.6466  0.6268 -0.6193
16761TIP3    H271699   2.003   4.070  14.641  0.1277  1.6901  2.3941
16762TIP3   OH271700   0.873   6.262   1.987  0.0553 -0.0535  0.2273
16762TIP3    H171701   0.847   6.173   1.963  0.4108  0.3297 -1.6820
16762TIP3    H271702   0.968   6.260   1.987  0.1237  0.9006 -2.2789
16763TIP3   OH271703   5.659   1.182   1.851 -0.0249 -0.1629 -0.1551
16763TIP3    H171704   5.753   1.188   1.837 -0.1416  0.4934 -0.7033
16763TIP3    H271705   5.634   1.267   1.887 -0.3585 -0.4431  0.2843
16764TIP3   OH271706   1.141   3.335   3.936  0.0054 -0.5258 -0.6074
16764TIP3    H171707   1.224   3.378   3.960 -0.6958  0.4335  0.1212
16764TIP3    H271708   1.079   3.365   4.002 -0.5943 -2.3745 -0.3211
16765TIP3   OH271709   0.774   4.748   6.005 -0.5062 -0.1188  0.0504
16765TIP3    H171710   0.683   4.741   6.035 -0.7484  0.4348 -0.5357
16765TIP3    H271711   0.814   4.809   6.068 -1.1991  1.5998 -1.1300
16766TIP3   OH271712   2.615   4.935   1.879 -0.0005 -0.3532 -0.5286
16766TIP3    H171713   2.548   4.894   1.934  0.2775 -1.4563 -0.9820
16766TIP3    H271714   2.610   4.886   1.796  1.1667 -0.2480 -0.6608
16767TIP3   OH271715   0.419   0.319  12.866  0.1398  0.8698 -0.7893
16767TIP3    H171716   0.416   0.378  12.942 -0.3712 -2.9213  2.2465
16767TIP3    H271717   0.499   0.268  12.878  0.9849  1.3791 -3.8078
16768TIP3   OH271718   4.025   6.355  10.541 -0.1430  0.4360 -0.3042
16768TIP3    H171719   4.073   6.319  10.467  2.2224 -0.0925  1.4212
16768TIP3    H271720   3.985   6.279  10.583 -1.1686  0.6894 -0.8064
16769TIP3   OH271721   1.480   1.305  16.767  0.4478 -0.0010 -0.1454
16769TIP3    H171722   1.495   1.324  16.674  0.6302  0.7120  0.0222
16769TIP3    H271723   1.439   1.385  16.801  0.2771 -0.3038  0.3603
16770TIP3   OH271724   6.774   4.679  15.606  0.3724  0.5210  0.2985
16770TIP3    H171725   6.711   4.709  15.540 -0.1404  1.4683  1.1930
16770TIP3    H271726   6.720   4.662  15.683  0.8298 -1.5366  0.1941
16771TIP3   OH271727   5.762   2.770  15.844  0.1471 -0.2428 -0.1652
16771TIP3    H171728   5.853   2.797  15.848 -0.2988  1.1482  0.8195
16771TIP3    H271729   5.737   2.783  15.753  1.0463 -1.0284 -0.5312
16772TIP3   OH271730   0.225   3.666   4.178  0.1202 -0.5695 -0.0327
16772TIP3    H171731   0.319   3.650   4.181  0.0237 -1.1849 -0.1826
16772TIP3    H271732   0.201   3.650   4.086  0.1413  1.1987 -0.3810
16773TIP3   OH271733   4.361   4.710   1.607 -0.2295  0.5137 -0.2331
16773TIP3    H171734   4.413   4.764   1.667 -2.0871  1.5026  0.5184
16773TIP3    H271735   4.401   4.725   1.521  0.3726  1.7049  0.2440
16774TIP3   OH271736   4.879   3.569  13.812  0.1481  0.4673 -0.8925
16774TIP3    H171737   4.909   3.486  13.774 -2.1008 -1.3639  1.1129
16774TIP3    H271738   4.793   3.548  13.850 -0.3618  3.6736 -0.0977
16775TIP3   OH271739   0.456   2.356   2.252  0.3143  0.1064  0.1274
16775TIP3    H171740   0.535   2.331   2.204  0.5874  1.1756  0.0139
16775TIP3    H271741   0.484   2.428   2.308 -0.6808  0.7561 -0.2079
16776TIP3   OH271742   2.004   3.187  11.255  0.5615 -0.0749  0.1595
16776TIP3    H171743   2.000   3.272  11.299  0.0946  0.5784 -1.1323
16776TIP3    H271744   2.094   3.181  11.223 -0.2114  1.2922 -2.3832
16777TIP3   OH271745   2.413   1.046  11.653 -0.2566  0.0805 -0.7702
16777TIP3    H171746   2.383   0.981  11.589  1.0547 -0.1491 -1.1678
16777TIP3    H271747   2.480   1.000  11.704  0.1945  0.9013 -0.6131
16778TIP3   OH271748   4.042   5.320  16.364 -0.2924  0.6262  0.3242
16778TIP3    H171749   4.043   5.271  16.447 -0.2300  0.0897  0.0045
16778TIP3    H271750   4.043   5.412  16.391  0.4493  0.4529  0.9069
16779TIP3   OH271751   0.745   2.744   5.130  0.0932 -0.4422  0.6618
16779TIP3    H171752   0.727   2.811   5.196  0.6284 -0.9904  1.3699
16779TIP3    H271753   0.781   2.671   5.180  1.9593 -0.2769 -0.4045
16780TIP3   OH271754   3.237   1.306  13.095 -0.3263  0.2956  0.8294
16780TIP3    H171755   3.168   1.332  13.156 -1.7656 -2.6321  0.5510
16780TIP3    H271756   3.194   1.303  13.010  0.1215 -1.5185  0.6400
16781TIP3   OH271757   2.168   6.460  11.878  0.5269 -0.1983 -0.4766
16781TIP3    H171758   2.138   6.414  11.799 -1.8654  1.4504 -0.5851
16781TIP3    H271759   2.105   6.435  11.946  2.3464 -1.2990  0.8707
16782TIP3   OH271760   5.827   3.082   6.398  0.2202  0.1604  0.0739
16782TIP3    H171761   5.747   3.050   6.439 -0.1248  1.6831  0.6384
16782TIP3    H271762   5.896   3.028   6.435 -0.5389 -1.2103 -0.4666
16783TIP3   OH271763   5.193   4.976   1.813 -0.5216 -0.2285 -0.5381
16783TIP3    H171764   5.246   5.013   1.742 -1.7127  0.9084 -0.8525
16783TIP3    H271765   5.177   5.049   1.872  0.5248 -1.1855  0.9781
16784TIP3   OH271766   4.866   4.253   1.885  0.1286  0.0727 -0.3765
16784TIP3    H171767   4.936   4.188   1.890 -1.0905 -1.2314 -0.0749
16784TIP3    H271768   4.902   4.331   1.927  1.5999 -0.3998 -0.7354
16785TIP3   OH271769   6.074   3.475   2.977 -0.3985  0.8246  0.3308
16785TIP3    H171770   6.095   3.557   2.933  1.2301  0.7353  0.9165
16785TIP3    H271771   5.978   3.475   2.982 -0.4389  2.5061 -0.0192
16786TIP3   OH271772   4.087   0.767   1.464 -0.2089  0.2149 -0.0410
16786TIP3    H171773   4.057   0.719   1.541 -0.2173  0.7242  0.2814
16786TIP3    H271774   4.035   0.733   1.392  0.2528 -0.7294  0.0607
16787TIP3   OH271775   0.790   2.199   0.596 -0.0096  0.1106  0.1549
16787TIP3    H171776   0.810   2.134   0.529 -1.1291 -0.3763  0.2708
16787TIP3    H271777   0.822   2.160   0.677 -0.0604 -0.0032  0.1214
16788TIP3   OH271778   2.605   5.661   1.515  0.0477  0.0895  0.3097
16788TIP3    H171779   2.636   5.594   1.576  0.2728  0.8537  1.0554
16788TIP3    H271780   2.582   5.613   1.435 -1.3766 -1.0689  1.3972
16789TIP3   OH271781   3.119   2.069   1.902  0.1900 -0.5925  0.4573
16789TIP3    H171782   3.040   2.051   1.851  1.0505 -2.0868 -0.4023
16789TIP3    H271783   3.114   2.009   1.977 -0.0068  0.0559  0.9645
16790TIP3   OH271784   4.840   6.214  11.023 -0.7643  0.1662 -0.5436
16790TIP3    H171785   4.886   6.298  11.017 -1.5506  0.7996  1.6217
16790TIP3    H271786   4.779   6.226  11.097 -0.5224 -2.4656  0.1216
16791TIP3   OH271787   4.037   0.184   3.490 -0.2260 -0.2759  1.0238
16791TIP3    H171788   4.082   0.182   3.405 -1.1523  1.4760  0.4474
16791TIP3    H271789   3.995   0.098   3.497 -1.8718  0.2674 -1.3120
16792TIP3   OH271790   6.237   5.029  15.140  0.0920  0.3232 -0.2837
16792TIP3    H171791   6.228   5.004  15.048 -0.5298  0.0158 -0.1438
16792TIP3    H271792   6.249   5.124  15.139 -1.8801  0.5926 -0.5731
16793TIP3   OH271793   1.571   1.687  11.742 -0.3046  0.2365 -0.2739
16793TIP3    H171794   1.597   1.597  11.764 -1.2553 -0.0736 -0.3895
16793TIP3    H271795   1.535   1.681  11.653 -0.2942  0.7399 -0.3129
16794TIP3   OH271796   3.013   3.212   1.780  0.5558 -0.4759  0.5739
16794TIP3    H171797   2.937   3.155   1.772  0.2131 -0.2700  2.2428
16794TIP3    H271798   3.086   3.158   1.749 -0.0167 -1.2449  0.5531
16795TIP3   OH271799   1.481   0.136   0.356 -0.2662 -0.3121 -0.3255
16795TIP3    H171800   1.454   0.154   0.265 -1.2282 -0.8644 -0.1531
16795TIP3    H271801   1.404   0.098   0.397  0.6995 -1.6571  0.2680
16796TIP3   OH271802   5.921   1.160  14.873  0.3764  0.3499  0.3699
16796TIP3    H171803   5.929   1.107  14.794  0.3993  0.5155  0.2598
16796TIP3    H271804   5.829   1.152  14.898  0.7497 -1.1554  1.3560
16797TIP3   OH271805   2.795   4.391  13.316  0.8246 -0.4747  0.1215
16797TIP3    H171806   2.772   4.314  13.367 -1.2597 -0.1788 -0.3221
16797TIP3    H271807   2.759   4.464  13.365  1.2236  0.0595 -0.3691
16798TIP3   OH271808   1.180   2.094  13.607 -0.3725 -0.0982  0.1034
16798TIP3    H171809   1.086   2.086  13.591 -0.3315 -0.2077 -0.0819
16798TIP3    H271810   1.214   2.138  13.530  0.1589 -2.5419 -1.0991
16799TIP3   OH271811   6.145   0.445   3.984  0.2307  0.5439 -0.3366
16799TIP3    H171812   6.096   0.519   4.019  1.1040  0.1514  1.7504
16799TIP3    H271813   6.232   0.480   3.966  1.1724 -0.3443  2.2878
16800TIP3   OH271814   0.541   5.519  15.744  0.3697  0.0367  0.1377
16800TIP3    H171815   0.532   5.568  15.826  0.4621 -0.4448  0.4345
16800TIP3    H271816   0.605   5.451  15.764 -0.3880 -0.7311 -0.0253
16801TIP3   OH271817   3.551   3.093  16.756 -0.2538  0.1058  0.1394
16801TIP3    H171818   3.499   3.026  16.711  0.6076 -0.1574 -0.4770
16801TIP3    H271819   3.538   3.076  16.849 -1.0232 -0.1443 -0.0119
16802TIP3   OH271820   0.123   3.354  15.359 -0.0135 -0.3664 -0.3089
16802TIP3    H171821   0.118   3.259  15.368 -0.0976 -0.3272  0.0796
16802TIP3    H271822   0.105   3.387  15.447  0.9737 -0.0269 -0.2277
16803TIP3   OH271823   4.416   2.055   1.379  0.2081 -0.3461  0.3764
16803TIP3    H171824   4.338   2.056   1.322  1.7199 -1.6490 -1.7976
16803TIP3    H271825   4.418   1.966   1.415 -1.4120  0.8173  3.5285
16804TIP3   OH271826   1.984   3.347  13.104  0.2257  0.1023  0.4292
16804TIP3    H171827   2.015   3.349  13.194  3.1181  1.7695 -0.5430
16804TIP3    H271828   2.055   3.306  13.055 -2.5676 -3.6526 -0.6894
16805TIP3   OH271829   3.737   3.656  12.337 -0.5309  0.2666  0.0162
16805TIP3    H171830   3.695   3.655  12.251 -2.7386 -2.6047  1.0609
16805TIP3    H271831   3.831   3.654  12.318 -0.9805  0.0115 -2.3162
16806TIP3   OH271832   5.577   0.970   4.412  0.2817  0.3452 -0.0189
16806TIP3    H171833   5.542   1.056   4.389  1.0899  0.6486 -0.1333
16806TIP3    H271834   5.561   0.962   4.505  0.8835  0.9535  0.1484
16807TIP3   OH271835   6.393   5.305   0.959  0.2661  0.2659  0.4103
16807TIP3    H171836   6.405   5.400   0.955  0.4014  0.1878 -1.1868
16807TIP3    H271837   6.301   5.294   0.982 -0.9078  0.8051 -3.6647
16808TIP3   OH271838   2.821   0.933  12.477 -0.0302 -0.6625 -0.1644
16808TIP3    H171839   2.760   0.949  12.405  0.7846  1.4652 -0.4214
16808TIP3    H271840   2.844   0.841  12.468 -4.1946 -1.8947  0.7739
16809TIP3   OH271841   1.978   0.332   0.597  0.5042  0.7476 -0.0770
16809TIP3    H171842   2.035   0.396   0.639  0.6426  0.4723  0.1611
16809TIP3    H271843   1.967   0.263   0.663  1.1140  0.0732 -0.6697
16810TIP3   OH271844   4.298   4.648  16.460 -0.0037 -0.5399  0.0440
16810TIP3    H171845   4.341   4.601  16.389  1.6612  0.9782  0.0191
16810TIP3    H271846   4.254   4.722  16.416  1.3304  0.6095  0.6108
16811TIP3   OH271847   5.627   4.457   4.794  0.0879 -0.1572  0.4029
16811TIP3    H171848   5.549   4.509   4.810  0.4433  0.2793  0.7465
16811TIP3    H271849   5.699   4.519   4.801  0.4309 -0.4476 -0.4299
16812TIP3   OH271850   3.551   1.741   3.169 -0.1639  0.3274  0.4275
16812TIP3    H171851   3.586   1.759   3.256 -1.5897  2.6251  0.5626
16812TIP3    H271852   3.561   1.646   3.159  0.0382  0.0113  3.0824
16813TIP3   OH271853   1.548   3.120   6.255 -0.1107 -0.7583  0.4829
16813TIP3    H171854   1.581   3.178   6.186 -0.3378  0.7689  1.6192
16813TIP3    H271855   1.466   3.085   6.220  0.3240 -0.8608 -0.4529
16814TIP3   OH271856   0.325   3.037  15.669  0.2868 -0.4924  0.0507
16814TIP3    H171857   0.337   3.049  15.575 -1.2023  2.4994  0.1986
16814TIP3    H271858   0.361   3.116  15.708 -1.0814 -0.7132  1.8331
16815TIP3   OH271859   4.003   4.110  12.642 -0.0599 -0.8517  0.4606
16815TIP3    H171860   4.090   4.071  12.638  0.2202 -0.3559  1.3323
16815TIP3    H271861   3.992   4.154  12.558  0.0949 -1.8260 -0.0655
16816TIP3   OH271862   2.190   2.983  11.557 -0.2429  0.3287  0.3470
16816TIP3    H171863   2.172   3.076  11.571  0.9002  0.6342 -0.1549
16816TIP3    H271864   2.273   2.982  11.510  0.2213 -0.9815  1.1878
16817TIP3   OH271865   2.755   0.003  13.793 -0.1187  0.6315 -0.2680
16817TIP3    H171866   2.841   0.043  13.786 -0.1542  0.3485 -2.8573
16817TIP3    H271867   2.703   0.065  13.844  0.6847  2.4451 -1.6049
16818TIP3   OH271868   3.230   0.647  12.209  0.9366  0.0519 -0.3191
16818TIP3    H171869   3.281   0.591  12.150 -0.5103 -0.6751 -0.9120
16818TIP3    H271870   3.207   0.590  12.282  0.8094  0.3293 -0.1404
16819TIP3   OH271871   3.990   1.905   5.756 -0.1699  0.0613  0.5632
16819TIP3    H171872   4.011   1.877   5.667  1.5024  3.3144 -0.1352
16819TIP3    H271873   4.059   1.868   5.810 -0.0683 -0.2590  0.2180
16820TIP3   OH271874   0.746   0.299  12.717  0.2441 -0.3039 -0.0356
16820TIP3    H171875   0.797   0.372  12.679  1.4374 -1.7953 -1.3608
16820TIP3    H271876   0.712   0.252  12.641 -0.1651 -1.3750  0.8105
16821TIP3   OH271877   1.392   3.141  13.345 -0.4861 -0.2389  0.0449
16821TIP3    H171878   1.406   3.191  13.426  1.0292  1.0842 -1.0027
16821TIP3    H271879   1.479   3.106  13.324 -0.9181 -0.7397 -0.9215
16822TIP3   OH271880   4.499   3.701  15.517  0.2148 -0.0904 -0.2047
16822TIP3    H171881   4.586   3.690  15.557  0.0941  0.6944  0.2929
16822TIP3    H271882   4.491   3.795  15.504 -2.1961  0.2889  3.4655
16823TIP3   OH271883   4.754   0.053  14.319  0.1311 -0.1317  0.4341
16823TIP3    H171884   4.726  -0.034  14.292 -1.0955  0.0169  1.1850
16823TIP3    H271885   4.846   0.042  14.345 -0.3301 -1.4406  1.5953
16824TIP3   OH271886   4.368   6.657   3.074 -0.0339 -0.4203  0.6047
16824TIP3    H171887   4.435   6.589   3.063 -1.1155 -1.4617  0.2941
16824TIP3    H271888   4.416   6.739   3.069  1.2453 -1.1560  0.5388
16825TIP3   OH271889   3.276   0.533  16.041 -0.4229  0.1405 -0.4807
16825TIP3    H171890   3.278   0.551  15.947  1.1254 -1.1693 -0.7233
16825TIP3    H271891   3.347   0.586  16.077  0.6704 -1.3380 -0.4336
16826TIP3   OH271892   5.421   4.737  15.611  0.0805 -0.2071  0.5121
16826TIP3    H171893   5.385   4.712  15.526  0.2817 -1.8956  0.9080
16826TIP3    H271894   5.344   4.754  15.665 -0.0381  1.6184 -0.2195
16827TIP3   OH271895   0.506   1.250   3.224 -0.0610 -0.3426 -0.0563
16827TIP3    H171896   0.480   1.163   3.192  0.3140 -0.1298 -0.9758
16827TIP3    H271897   0.601   1.250   3.216  0.0102 -0.1467  0.7467
16828TIP3   OH271898   6.342   1.840   4.450 -0.9493 -0.3234  0.0948
16828TIP3    H171899   6.381   1.830   4.363 -0.3851  0.3997  0.2538
16828TIP3    H271900   6.349   1.754   4.490  1.3889  0.0137  0.4847
16829TIP3   OH271901   3.587   6.363   5.039  0.1713 -0.1343 -0.0211
16829TIP3    H171902   3.620   6.289   4.988 -0.5775  0.5951 -1.6061
16829TIP3    H271903   3.644   6.368   5.115 -0.0033 -2.5721  0.2844
16830TIP3   OH271904   1.987   2.636  11.715 -0.7208  0.0608  0.1676
16830TIP3    H171905   2.063   2.687  11.745  0.0414  0.4898 -2.2866
16830TIP3    H271906   1.912   2.675  11.759  0.2450  1.1682  0.8612
16831TIP3   OH271907   0.835   0.831   2.777  0.2811 -0.3691  0.2245
16831TIP3    H171908   0.896   0.879   2.833 -0.4238  0.1080  0.5845
16831TIP3    H271909   0.828   0.745   2.818 -1.8045  0.6335  2.0349
16832TIP3   OH271910   3.851   5.302  12.172 -0.0278 -0.0789  0.2649
16832TIP3    H171911   3.787   5.241  12.136 -0.6337  1.5427 -1.4774
16832TIP3    H271912   3.805   5.344  12.245 -0.3793 -0.0634  0.0325
16833TIP3   OH271913   4.178   2.102  13.630  0.2623  0.7193 -0.5562
16833TIP3    H171914   4.129   2.183  13.643 -0.2898  0.2764  0.1772
16833TIP3    H271915   4.148   2.068  13.546 -0.2569  0.7574 -0.3881
16834TIP3   OH271916   0.365   0.155  12.399 -0.1767 -0.5458 -0.3332
16834TIP3    H171917   0.279   0.186  12.429 -0.4201 -0.7360 -0.8317
16834TIP3    H271918   0.390   0.216  12.330  0.8968  0.5643  1.0080
16835TIP3   OH271919   5.977   1.168   6.292 -0.4829 -0.1093 -1.1124
16835TIP3    H171920   5.952   1.248   6.244  0.2525  0.1131 -1.1293
16835TIP3    H271921   6.073   1.171   6.295 -0.5748  0.6942  1.7979
16836TIP3   OH271922   6.015   2.906  13.596  0.2472  0.4988 -0.5734
16836TIP3    H171923   6.054   2.939  13.515  1.0848  1.2843  0.1330
16836TIP3    H271924   5.931   2.869  13.569  0.2108  1.3750 -1.7081
16837TIP3   OH271925   4.188   6.593  10.582  0.0372  0.0988 -0.5475
16837TIP3    H171926   4.247   6.574  10.510  1.0973  1.1675  0.0242
16837TIP3    H271927   4.130   6.517  10.586  0.9146 -0.6436 -1.5592
16838TIP3   OH271928   3.464   0.914   5.525  0.3732 -0.0532 -0.3692
16838TIP3    H171929   3.537   0.908   5.587  0.8901 -0.6321 -1.0283
16838TIP3    H271930   3.386   0.895   5.578  0.7743 -0.1389  0.1900
16839TIP3   OH271931   4.849   6.575   0.792  0.3436 -0.6923  0.0836
16839TIP3    H171932   4.905   6.571   0.870  0.6790 -0.7346 -0.1610
16839TIP3    H271933   4.876   6.654   0.746 -1.7207  0.8507  1.4188
16840TIP3   OH271934   2.902   5.600   6.550  0.2404  0.1987  0.0320
16840TIP3    H171935   2.983   5.645   6.529  0.2132 -0.0007 -0.5075
16840TIP3    H271936   2.833   5.664   6.533  0.2598  0.2330  0.0837
16841TIP3   OH271937   5.395   0.832  16.395  0.0140 -0.1199  0.0869
16841TIP3    H171938   5.346   0.895  16.448 -0.2004 -0.0979 -0.1370
16841TIP3    H271939   5.455   0.790  16.457 -1.6966 -1.5883  0.7654
16842TIP3   OH271940   1.968   5.465  12.490 -0.1076  0.6136 -1.0945
16842TIP3    H171941   1.971   5.419  12.574  2.7700  1.7811 -0.4919
16842TIP3    H271942   1.927   5.404  12.430 -2.4234 -0.1574  1.2214
16843TIP3   OH271943   4.128   6.449   4.083  0.1544  0.5619  0.1719
16843TIP3    H171944   4.198   6.507   4.054 -0.6857  2.2111  1.3359
16843TIP3    H271945   4.065   6.507   4.125 -1.1570 -1.0953  0.5587
16844TIP3   OH271946   1.049   4.626  16.059 -0.0886  0.1863 -0.5674
16844TIP3    H171947   1.090   4.679  15.991 -0.9397  0.4572 -0.8704
16844TIP3    H271948   1.031   4.542  16.018 -0.1691  0.1884 -0.5362
16845TIP3   OH271949   3.305   5.383  14.572  0.3056  0.1425 -0.2145
16845TIP3    H171950   3.314   5.289  14.589 -1.7233 -0.2996 -1.4711
16845TIP3    H271951   3.385   5.421  14.608  0.3333 -1.8408  1.9544
16846TIP3   OH271952   2.207   6.662   3.164  0.2641 -0.3144  0.1927
16846TIP3    H171953   2.116   6.671   3.192  0.3112 -2.7167  1.2360
16846TIP3    H271954   2.249   6.744   3.190 -1.6235  0.9027 -0.4848
16847TIP3   OH271955   4.220   6.607   0.864 -0.1015 -0.0858 -0.3213
16847TIP3    H171956   4.223   6.581   0.956  1.1158 -0.0420 -0.3454
16847TIP3    H271957   4.252   6.531   0.816  0.5215  0.3446 -0.6047
16848TIP3   OH271958   4.908   4.080  15.215  0.0638 -0.5060 -0.7153
16848TIP3    H171959   4.919   4.107  15.306  2.6530 -0.9256 -0.8643
16848TIP3    H271960   4.907   4.162  15.166 -0.6092 -0.3134 -0.3883
16849TIP3   OH271961   5.739   6.707   2.539 -0.2270 -0.6934 -0.3429
16849TIP3    H171962   5.681   6.708   2.615  0.5198 -2.7764  0.2815
16849TIP3    H271963   5.800   6.780   2.554 -1.8969  0.7420 -0.4145
16850TIP3   OH271964   4.808   1.121   0.854 -0.2916 -0.4764 -0.2930
16850TIP3    H171965   4.846   1.041   0.890  0.1000 -0.4259 -0.5947
16850TIP3    H271966   4.853   1.134   0.771  0.3686  0.6164  0.2137
16851TIP3   OH271967   0.517   5.756   2.437  0.1861  0.1479  0.7291
16851TIP3    H171968   0.575   5.819   2.480  0.9725 -0.1758  0.1617
16851TIP3    H271969   0.451   5.736   2.502  1.3394 -0.3113  1.7790
16852TIP3   OH271970   2.494   4.485   2.624 -0.1419  0.2902  0.1868
16852TIP3    H171971   2.430   4.499   2.555 -0.8029  1.7670  1.0722
16852TIP3    H271972   2.579   4.494   2.580 -0.5289 -0.8100 -0.8133
16853TIP3   OH271973   6.662   0.216   2.500 -0.4872 -0.2888  0.0122
16853TIP3    H171974   6.634   0.214   2.591 -0.3519  0.1139  0.0653
16853TIP3    H271975   6.757   0.214   2.504 -0.4500  0.9261 -0.0733
16854TIP3   OH271976   3.457   0.825   2.239  0.0400  0.2465  0.0613
16854TIP3    H171977   3.487   0.744   2.198 -0.7382 -0.5787  1.0847
16854TIP3    H271978   3.362   0.822   2.230  0.0784  1.5377 -0.7778
16855TIP3   OH271979   1.499   0.330   4.393 -0.5162  0.4274  0.1780
16855TIP3    H171980   1.485   0.364   4.305 -0.8085 -3.6644 -1.4746
16855TIP3    H271981   1.417   0.286   4.415 -0.3607  1.1948  2.4328
16856TIP3   OH271982   1.846   1.027   3.111 -0.0361  0.3525 -0.1448
16856TIP3    H171983   1.794   1.063   3.040  0.2306 -0.3758 -0.7078
16856TIP3    H271984   1.842   1.094   3.180 -1.9822  0.1634 -0.0440
16857TIP3   OH271985   1.538   1.345  12.440  0.4751 -0.1947  0.4090
16857TIP3    H171986   1.527   1.433  12.475  0.8537  0.4811 -1.1750
16857TIP3    H271987   1.484   1.342  12.362  0.4155 -1.3921  0.4750
16858TIP3   OH271988   5.011   0.694   4.790 -0.9968 -0.5451 -0.4140
16858TIP3    H171989   5.046   0.634   4.725 -0.4060 -0.6090 -0.0356
16858TIP3    H271990   4.940   0.646   4.832 -0.8842 -0.7798 -0.4931
16859TIP3   OH271991   1.187   6.786  14.344 -0.3332  0.1055  0.1298
16859TIP3    H171992   1.175   6.762  14.436  0.3271 -1.6027 -0.2145
16859TIP3    H271993   1.098   6.800  14.311 -0.5746  0.6859  1.0041
16860TIP3   OH271994   3.412   1.577   6.116 -0.2644  0.6222 -0.3648
16860TIP3    H171995   3.501   1.565   6.148 -1.4509 -1.3664  2.3443
16860TIP3    H271996   3.398   1.672   6.118  1.1999  0.8275  0.8365
16861TIP3   OH271997   5.768   0.248  14.121  0.5019 -0.1021  0.1559
16861TIP3    H171998   5.744   0.321  14.064 -1.0442  1.1870  2.3893
16861TIP3    H271999   5.717   0.174  14.088  0.7773  0.2317 -1.0555
16862TIP3   OH272000   0.378   3.211   2.843  0.2407 -0.0364  0.6962
16862TIP3    H172001   0.397   3.304   2.844  0.0963 -0.0158  1.6313
16862TIP3    H272002   0.462   3.168   2.862  0.6326 -0.1675 -1.1606
16863TIP3   OH272003   4.287   0.702   0.587  0.0715  0.4626  0.3762
16863TIP3    H172004   4.310   0.782   0.635  0.7291  0.6211 -0.2078
16863TIP3    H272005   4.225   0.731   0.520  1.0603  0.6537 -0.4705
16864TIP3   OH272006   1.525   4.865  13.402  0.1165 -0.4239 -0.0342
16864TIP3    H172007   1.528   4.802  13.330 -1.3146  0.1133 -0.5929
16864TIP3    H272008   1.438   4.851  13.441 -0.1299  1.0413 -0.0336
16865TIP3   OH272009   4.006   0.477   5.217 -0.4678  0.4684 -0.3302
16865TIP3    H172010   4.093   0.437   5.221 -0.2791  0.9632  0.4918
16865TIP3    H272011   3.964   0.435   5.141 -0.0180 -0.7766  0.0987
16866TIP3   OH272012   4.691   3.161   2.794  0.2753 -0.2363  0.0357
16866TIP3    H172013   4.708   3.130   2.883 -0.6558 -1.8183 -0.3067
16866TIP3    H272014   4.638   3.091   2.755 -0.3631  1.0128 -1.3614
16867TIP3   OH272015   5.732   2.612  17.098 -0.1828 -0.0203 -0.6354
16867TIP3    H172016   5.673   2.673  17.054  0.6752  2.7190  1.8194
16867TIP3    H272017   5.811   2.664  17.115  1.6180 -2.6133 -0.8588
16868TIP3   OH272018   3.137   0.354  16.503 -0.4524 -0.7813 -0.1171
16868TIP3    H172019   3.101   0.432  16.544 -0.7840 -2.0301  2.0732
16868TIP3    H272020   3.148   0.292  16.575  2.4898 -1.7736 -1.3387
16869TIP3   OH272021   0.973   2.958  13.537 -0.1578  0.0499  0.2089
16869TIP3    H172022   0.970   2.904  13.616 -1.5708  0.3786  0.3787
16869TIP3    H272023   0.955   3.047  13.568  0.4657  0.3650 -0.3229
16870TIP3   OH272024   5.390   3.087  15.485  0.5134  0.1264 -0.0328
16870TIP3    H172025   5.308   3.076  15.437 -0.0346 -1.1822  1.1467
16870TIP3    H272026   5.363   3.116  15.572  1.2206 -1.5360  0.7530
16871TIP3   OH272027   2.177   0.018   5.215 -0.3693 -0.0413  0.1322
16871TIP3    H172028   2.271   0.003   5.201 -0.4216 -0.2341 -0.0112
16871TIP3    H272029   2.134  -0.047   5.161 -0.5898  0.1165  0.1168
16872TIP3   OH272030   5.783   6.744   0.621  0.0372  0.5127  0.0316
16872TIP3    H172031   5.804   6.671   0.563 -0.2578 -0.8433  1.6318
16872TIP3    H272032   5.840   6.734   0.696  0.0227  1.9540  0.2629
16873TIP3   OH272033   0.192   1.821  12.765  0.2039  0.2376 -0.0122
16873TIP3    H172034   0.264   1.880  12.744  0.4050 -0.0585 -0.1563
16873TIP3    H272035   0.233   1.735  12.772 -0.3259 -0.1279 -1.3125
16874TIP3   OH272036   0.410   6.607  15.913  0.3230  0.0595 -0.1833
16874TIP3    H172037   0.337   6.592  15.853 -0.0305  0.7692  0.0643
16874TIP3    H272038   0.485   6.621  15.856 -0.0582  0.9557 -0.4728
16875TIP3   OH272039   3.085   4.794  11.826  0.1611 -0.4500 -0.0416
16875TIP3    H172040   3.111   4.730  11.760  1.1733 -0.4677  0.3563
16875TIP3    H272041   3.166   4.842  11.846 -0.7871  1.6521 -1.0804
16876TIP3   OH272042   2.290   6.488   2.163  0.6885  0.4751  0.6545
16876TIP3    H172043   2.358   6.534   2.114  2.5084 -1.7189  1.0525
16876TIP3    H272044   2.328   6.403   2.182 -1.7073 -0.3233  2.0135
16877TIP3   OH272045   5.595   1.987  13.094  0.1373  0.6466 -0.0732
16877TIP3    H172046   5.655   1.923  13.131  1.1337  1.5632 -0.0869
16877TIP3    H272047   5.555   1.942  13.019 -0.3280 -0.4807  0.8461
16878TIP3   OH272048   3.252   4.987  17.129 -0.1481  0.0867  0.1203
16878TIP3    H172049   3.158   4.972  17.114 -0.4605 -1.4649  3.2848
16878TIP3    H272050   3.260   5.082  17.135 -1.7041  0.1893  0.8808
16879TIP3   OH272051   6.722   3.468   2.313  0.0808  0.0062  0.4774
16879TIP3    H172052   6.698   3.466   2.220 -0.6393 -0.6941  0.6705
16879TIP3    H272053   6.788   3.536   2.319  0.7628 -0.5255 -0.7162
16880TIP3   OH272054   2.316   1.141   2.839  0.4692 -0.3926  0.1944
16880TIP3    H172055   2.405   1.131   2.873 -0.0798  0.4624  1.9190
16880TIP3    H272056   2.323   1.210   2.773  0.8487  0.6380  1.2923
16881TIP3   OH272057   1.029   3.265   1.672  0.2570 -0.4287 -0.3265
16881TIP3    H172058   1.058   3.216   1.748 -0.7115  0.0481  0.3674
16881TIP3    H272059   0.951   3.217   1.641 -0.5541  0.5299  0.2152
16882TIP3   OH272060   4.713   1.245   2.628 -0.1882 -0.3200  0.1356
16882TIP3    H172061   4.696   1.154   2.604 -1.0536 -0.7432  2.2273
16882TIP3    H272062   4.630   1.290   2.610  0.1869  0.0318 -0.7391
16883TIP3   OH272063   0.173   5.376  16.319 -0.7872 -0.2846  0.5424
16883TIP3    H172064   0.139   5.342  16.236 -0.4265  1.1647 -0.2061
16883TIP3    H272065   0.177   5.470  16.306  2.1046 -0.3018  1.1721
16884TIP3   OH272066   1.645   0.340   3.894 -0.4275  0.0694 -0.4547
16884TIP3    H172067   1.614   0.258   3.856  0.9513  0.4568 -2.4806
16884TIP3    H272068   1.740   0.330   3.901 -0.5014  0.5726  1.5979
16885TIP3   OH272069   1.531   1.217  15.449 -0.3200  0.5669  0.3882
16885TIP3    H172070   1.550   1.131  15.412  0.5738  0.9145  0.0443
16885TIP3    H272071   1.441   1.209  15.482  0.5120 -1.1861  2.3529
16886TIP3   OH272072   2.367   0.198  13.524 -0.3478  0.1578  0.1577
16886TIP3    H172073   2.453   0.154  13.522  0.6373  2.0129  0.7022
16886TIP3    H272074   2.328   0.178  13.439  0.2603 -1.3895  0.2116
16887TIP3   OH272075   0.655   4.823  14.419 -0.3823 -0.1012  0.3457
16887TIP3    H172076   0.698   4.796  14.338  2.6546 -1.3761  2.3344
16887TIP3    H272077   0.588   4.756  14.434 -1.5632  0.6166 -1.5087
16888TIP3   OH272078   2.166   4.763  15.753 -0.1468 -0.4911 -0.1929
16888TIP3    H172079   2.218   4.686  15.727 -1.0642 -0.1324 -3.3309
16888TIP3    H272080   2.221   4.838  15.730  0.1191 -0.1740  1.4495
16889TIP3   OH272081   6.266   5.314   1.722  0.3517  0.1899  0.1906
16889TIP3    H172082   6.221   5.255   1.662 -2.2714  2.7032 -0.4073
16889TIP3    H272083   6.348   5.268   1.744 -0.2233 -2.2936 -2.5574
16890TIP3   OH272084   3.581   1.132  10.386 -0.3374  0.0164 -0.1347
16890TIP3    H172085   3.503   1.151  10.334  0.5416 -1.3224 -2.0366
16890TIP3    H272086   3.573   1.039  10.408  0.3711  0.0412  0.2359
16891TIP3   OH272087   6.281   0.674   1.327 -0.2548  0.1980  0.2120
16891TIP3    H172088   6.362   0.681   1.379 -0.6882  1.3088  0.7506
16891TIP3    H272089   6.214   0.715   1.382 -1.0908 -0.2729 -0.4477
16892TIP3   OH272090   3.783   2.122   1.758  0.1188 -0.4863  0.0846
16892TIP3    H172091   3.867   2.122   1.805  0.3775  0.3855 -0.3647
16892TIP3    H272092   3.805   2.148   1.669 -0.7421  0.7274  0.2025
16893TIP3   OH272093   3.979   4.342   3.796  0.0924  0.4797  0.4883
16893TIP3    H172094   3.893   4.360   3.834 -1.1564  0.7596 -2.3274
16893TIP3    H272095   3.963   4.272   3.733  2.7212 -2.3449  2.7962
16894TIP3   OH272096   5.181   0.405   1.964  0.3442 -0.2082  0.8215
16894TIP3    H172097   5.095   0.415   1.924  0.4092 -1.2568  0.4152
16894TIP3    H272098   5.216   0.324   1.927  1.8572  0.6454  0.3262
16895TIP3   OH272099   3.622   1.279   5.065 -0.3166  0.0802  0.2188
16895TIP3    H172100   3.544   1.329   5.086 -0.2039  0.2223  0.3018
16895TIP3    H272101   3.666   1.330   4.996  0.4835  0.7876  1.2295
16896TIP3   OH272102   5.931   4.570   0.296  0.7816  0.4666  0.2715
16896TIP3    H172103   5.919   4.600   0.386  2.0634  0.3419  0.4995
16896TIP3    H272104   5.845   4.579   0.256 -0.0059 -0.2545  1.7450
16897TIP3   OH272105   2.589   6.656  13.603  0.5757 -0.6194 -0.3902
16897TIP3    H172106   2.593   6.714  13.527  2.2574  1.4339  1.2002
16897TIP3    H272107   2.617   6.711  13.676  0.3102 -2.9304  1.4976
16898TIP3   OH272108   6.274   6.485  12.301  0.4600  0.3369  0.0034
16898TIP3    H172109   6.260   6.536  12.221 -2.3066 -0.9392 -0.4298
16898TIP3    H272110   6.313   6.403  12.270  2.5944  1.1670  0.4063
16899TIP3   OH272111   3.218   3.984   7.005  0.1085  0.2296 -0.0064
16899TIP3    H172112   3.199   3.890   6.992  1.9436  0.1025 -2.1739
16899TIP3    H272113   3.310   3.993   6.980 -0.1216  2.6660 -0.0572
16900TIP3   OH272114   3.959   1.128   6.154  0.2550  0.6981  0.0541
16900TIP3    H172115   3.989   1.162   6.070  0.9799  0.6084  0.2743
16900TIP3    H272116   3.945   1.206   6.208 -0.7085  0.7877 -0.3024
16901TIP3   OH272117   4.772   5.441  14.432  0.3468  0.0589 -0.2236
16901TIP3    H172118   4.783   5.357  14.386  1.4356 -0.0384  0.1927
16901TIP3    H272119   4.780   5.506  14.363 -3.6798 -0.2443 -1.0814
16902TIP3   OH272120   5.553   5.393   1.030 -0.5530  0.1266 -0.0086
16902TIP3    H172121   5.538   5.487   1.036  0.9782  0.3234  1.1926
16902TIP3    H272122   5.486   5.362   0.970 -1.6371  1.8491  0.2574
16903TIP3   OH272123   2.701   0.012  15.158 -0.4793 -0.0536  0.6122
16903TIP3    H172124   2.611   0.024  15.188 -0.5817  1.2029 -0.1399
16903TIP3    H272125   2.736   0.101  15.152  0.6362 -0.4961  0.3623
16904TIP3   OH272126   1.061   4.384   1.014  0.3482  1.0055 -0.0768
16904TIP3    H172127   1.066   4.288   1.013 -0.5878  0.9387  0.8378
16904TIP3    H272128   1.137   4.412   0.964  0.8578 -0.2127 -0.0076
16905TIP3   OH272129   4.572   4.488  11.514 -0.1384 -0.0429 -0.4368
16905TIP3    H172130   4.535   4.399  11.515  1.3630 -0.6661  0.3633
16905TIP3    H272131   4.512   4.539  11.568 -0.6433 -0.7257 -0.3403
16906TIP3   OH272132   1.256   5.829   1.534 -0.1558  0.0181 -0.2054
16906TIP3    H172133   1.195   5.821   1.608 -0.7730 -2.6500 -0.9674
16906TIP3    H272134   1.205   5.801   1.458  1.2388  0.3052 -1.2609
16907TIP3   OH272135   5.534   2.800  15.979 -0.1361 -0.3014  0.5300
16907TIP3    H172136   5.567   2.816  16.067  0.6893  0.9064  0.0073
16907TIP3    H272137   5.612   2.777  15.928 -0.5393 -0.4827 -0.0065
16908TIP3   OH272138   4.054   1.580  15.460  0.6108  0.3048  0.1410
16908TIP3    H172139   4.019   1.505  15.508  0.4672  0.5870  0.4792
16908TIP3    H272140   4.002   1.583  15.380  1.7829 -1.0051 -0.6830
16909TIP3   OH272141   4.653   6.228  14.990  0.0376  0.2469  0.1740
16909TIP3    H172142   4.635   6.286  15.064  0.3498 -1.3930  1.5526
16909TIP3    H272143   4.609   6.146  15.011  1.3597 -0.7338 -0.7437
16910TIP3   OH272144   0.401   2.718   5.154 -0.4803  0.4141  0.7094
16910TIP3    H172145   0.387   2.810   5.174  0.1514  0.9780 -1.3075
16910TIP3    H272146   0.491   2.715   5.120 -1.1040 -0.6503 -0.8896
16911TIP3   OH272147   3.451   6.272  16.348  0.9997 -0.2001 -0.1509
16911TIP3    H172148   3.415   6.352  16.387 -0.4048 -0.7029 -0.3767
16911TIP3    H272149   3.545   6.289  16.340  0.9425  0.8495  1.1875
16912TIP3   OH272150   2.810   4.075   2.793 -0.0291 -0.7191  0.0541
16912TIP3    H172151   2.799   3.982   2.773 -0.0729 -0.6862 -0.0723
16912TIP3    H272152   2.901   4.083   2.819 -0.1117 -0.8602  0.3951
16913TIP3   OH272153   3.753   3.348   1.957 -0.1980 -0.1141  0.2219
16913TIP3    H172154   3.675   3.314   2.003 -0.2359 -1.8921 -1.0946
16913TIP3    H272155   3.802   3.394   2.025 -1.4411 -0.6383  1.5160
16914TIP3   OH272156   0.615   3.416   3.728  0.0650  0.1079  0.2641
16914TIP3    H172157   0.588   3.508   3.727  0.8291  0.3205 -1.2658
16914TIP3    H272158   0.580   3.382   3.811  1.4803  2.2714  1.7830
16915TIP3   OH272159   1.893   1.386  17.203 -0.8533 -0.2300  0.2293
16915TIP3    H172160   1.883   1.359  17.294  1.8016 -0.4001  0.5246
16915TIP3    H272161   1.907   1.304  17.156  0.1406  0.0429  0.0403
16916TIP3   OH272162   6.647   5.875   2.287  0.1984 -0.2212  0.3152
16916TIP3    H172163   6.638   5.957   2.239 -0.1070 -0.5361 -0.1830
16916TIP3    H272164   6.740   5.867   2.305  0.3708 -0.2632 -0.5442
16917TIP3   OH272165   1.979   5.097  13.576  0.7214 -0.2559 -0.0757
16917TIP3    H172166   1.904   5.061  13.529  1.0012 -1.7551  0.5753
16917TIP3    H272167   1.978   5.051  13.660  1.8373  0.3803  0.2939
16918TIP3   OH272168   2.534   3.105   3.682  0.3465  0.6121 -0.1393
16918TIP3    H172169   2.488   3.120   3.599  0.6336 -1.4585 -0.7162
16918TIP3    H272170   2.533   3.190   3.726 -1.7617  1.2098 -1.2811
16919TIP3   OH272171   6.516   3.870   4.273  0.0989 -0.5054  0.1851
16919TIP3    H172172   6.567   3.888   4.352  0.5143  0.6976 -0.3404
16919TIP3    H272173   6.575   3.818   4.218  1.5130  2.4224 -1.2003
16920TIP3   OH272174   1.984   5.525   0.287  0.2408 -0.2461  0.3666
16920TIP3    H172175   1.938   5.605   0.311  0.5358  0.7361 -2.1721
16920TIP3    H272176   1.914   5.464   0.261  0.1148 -0.3251  0.8771
16921TIP3   OH272177   4.917   5.010  12.912 -0.2382 -0.6092 -0.1654
16921TIP3    H172178   5.003   4.976  12.937  0.1509  0.1859 -0.4195
16921TIP3    H272179   4.928   5.039  12.822 -0.5153  0.3694  0.1132
16922TIP3   OH272180   3.160   1.795   5.137 -0.5185  0.0701  0.2889
16922TIP3    H172181   3.074   1.798   5.096 -0.0783 -1.8549 -0.8061
16922TIP3    H272182   3.178   1.702   5.150 -0.4018  0.5872  4.3999
16923TIP3   OH272183   6.450   1.016   5.661  0.3311 -0.3739 -0.1902
16923TIP3    H172184   6.383   1.084   5.655 -0.4357 -1.1658 -0.7247
16923TIP3    H272185   6.516   1.041   5.597 -0.3444 -0.5610 -0.9667
16924TIP3   OH272186   5.041   0.973   1.277 -0.4036  0.7626 -0.4219
16924TIP3    H172187   5.057   0.981   1.371 -0.0741  0.2636 -0.4292
16924TIP3    H272188   5.085   1.049   1.238 -1.5817  1.6337 -0.0704
16925TIP3   OH272189   6.119   4.942  11.199  0.8569  0.1232  0.3535
16925TIP3    H172190   6.076   4.864  11.233  0.9375  0.2475  0.7351
16925TIP3    H272191   6.087   4.949  11.108 -0.0998  0.3336  0.6986
16926TIP3   OH272192   3.352   5.650   6.138  0.2740 -0.8891  0.1946
16926TIP3    H172193   3.297   5.600   6.078  0.8668 -1.6092  0.2398
16926TIP3    H272194   3.293   5.713   6.179 -0.5463 -1.7681  0.3760
16927TIP3   OH272195   6.178   3.226   6.508  0.6129  0.2801  0.7043
16927TIP3    H172196   6.147   3.314   6.527  0.8934  0.3334  0.9133
16927TIP3    H272197   6.273   3.234   6.501  0.6809 -0.0855  1.1751
16928TIP3   OH272198   0.544   2.211  16.445 -0.7754  0.7208 -0.1880
16928TIP3    H172199   0.556   2.230  16.352  1.5767 -0.6135 -0.1908
16928TIP3    H272200   0.522   2.296  16.484 -0.1961  1.5825 -1.6989
16929TIP3   OH272201   3.860   4.280   1.080 -0.5928 -0.2459 -0.1283
16929TIP3    H172202   3.935   4.220   1.088 -0.6582 -0.2116  0.7344
16929TIP3    H272203   3.900   4.365   1.059 -0.4572 -0.4303 -0.6383
16930TIP3   OH272204   6.241   5.299  15.250 -0.5205  0.3985  0.2394
16930TIP3    H172205   6.336   5.289  15.255 -0.2011  1.7600 -2.1954
16930TIP3    H272206   6.214   5.316  15.341  1.2917 -1.9209  1.2543
16931TIP3   OH272207   3.179   4.688  15.097  0.0108 -0.1552  0.2424
16931TIP3    H172208   3.130   4.751  15.044 -2.1770 -0.6261  1.6495
16931TIP3    H272209   3.269   4.694  15.064 -0.9119  0.9275 -2.2167
16932TIP3   OH272210   6.387   3.260   0.415  0.3604  0.2021  0.0330
16932TIP3    H172211   6.364   3.167   0.407  0.4396  0.0452  1.5820
16932TIP3    H272212   6.430   3.267   0.500 -0.7440  1.8797  0.4687
16933TIP3   OH272213   2.399   0.093   3.881 -0.3769  0.2065 -0.4085
16933TIP3    H172214   2.410   0.041   3.961 -1.4397  0.8607  0.1803
16933TIP3    H272215   2.415   0.183   3.909  0.0769  0.3483 -1.1209
16934TIP3   OH272216   1.834   4.759   4.163  0.1431  0.1988 -0.0186
16934TIP3    H172217   1.844   4.670   4.129  0.7682 -0.1159  0.9480
16934TIP3    H272218   1.849   4.750   4.257 -0.8834  1.1565  0.2465
16935TIP3   OH272219   4.424   1.266   6.476 -0.0622 -0.3695 -0.3517
16935TIP3    H172220   4.477   1.203   6.525 -0.5297 -0.1177  0.4942
16935TIP3    H272221   4.472   1.280   6.394  0.5873 -1.0049 -0.0855
16936TIP3   OH272222   4.641   1.525  13.692 -0.7685 -0.7877  0.1992
16936TIP3    H172223   4.730   1.558  13.698  0.1017 -2.5497 -2.4020
16936TIP3    H272224   4.636   1.454  13.757  0.5806 -2.4805 -1.5061
16937TIP3   OH272225   4.896   1.615  11.945  0.4212  0.1189  0.2767
16937TIP3    H172226   4.879   1.524  11.970  0.2965  0.0857  0.0664
16937TIP3    H272227   4.843   1.666  12.006 -0.9309 -0.0024 -0.7861
16938TIP3   OH272228   6.457   0.193  14.742  0.7058 -0.0902  0.1828
16938TIP3    H172229   6.522   0.202  14.672  0.1927 -2.1838 -0.5958
16938TIP3    H272230   6.505   0.216  14.822  2.1194 -0.5578 -0.5070
16939TIP3   OH272231   6.134   5.484  16.616 -0.2974 -0.2550 -0.2187
16939TIP3    H172232   6.085   5.401  16.617  0.4563 -0.6968  0.4141
16939TIP3    H272233   6.080   5.543  16.669  0.4984 -1.1346  1.6376
16940TIP3   OH272234   0.720   4.482  12.525  0.1187 -0.0961  0.1653
16940TIP3    H172235   0.751   4.569  12.549  1.6937 -0.5131 -0.3159
16940TIP3    H272236   0.665   4.496  12.448  0.0180  0.5147  0.3413
16941TIP3   OH272237   2.368   6.178   1.675 -0.2450 -0.2667  0.6351
16941TIP3    H172238   2.367   6.127   1.595 -0.8217  0.7468 -0.0184
16941TIP3    H272239   2.456   6.166   1.711  0.6036  0.6982 -1.0691
16942TIP3   OH272240   1.540   6.701  13.482 -0.1185 -0.3427  0.5513
16942TIP3    H172241   1.462   6.648  13.500  0.0846 -0.6242  0.6216
16942TIP3    H272242   1.612   6.637  13.482 -0.1504 -0.4022 -1.6375
16943TIP3   OH272243   4.170   6.608  17.094  0.3856  0.3678  0.0037
16943TIP3    H172244   4.152   6.586  17.186 -0.2169  0.8587 -0.0020
16943TIP3    H272245   4.260   6.640  17.095  0.2107  0.8600  0.5095
16944TIP3   OH272246   4.151   0.372   5.795  0.1520  0.1401 -0.5091
16944TIP3    H172247   4.142   0.296   5.853  2.1892  0.1882 -0.1042
16944TIP3    H272248   4.151   0.336   5.707 -4.4878  0.1823 -0.6762
16945TIP3   OH272249   0.830   6.338   0.331 -0.1504  0.2925 -0.1240
16945TIP3    H172250   0.881   6.267   0.371 -0.2712 -0.2642 -0.9298
16945TIP3    H272251   0.894   6.409   0.319  0.5561 -0.5296 -1.4594
16946TIP3   OH272252   5.193   1.567  15.482  0.5588  0.3631  0.0543
16946TIP3    H172253   5.190   1.473  15.464  0.8072  0.3177  0.2474
16946TIP3    H272254   5.271   1.598  15.438 -0.0402  0.6532 -0.8063
16947TIP3   OH272255   0.064   2.750   3.991  0.2476  0.5850  0.6063
16947TIP3    H172256   0.055   2.781   4.081  1.0139 -0.9633  1.2345
16947TIP3    H272257  -0.007   2.793   3.943 -1.4614 -0.1858  2.3760
16948TIP3   OH272258   0.312   1.222  15.884  0.0872 -0.3979 -0.2520
16948TIP3    H172259   0.364   1.284  15.935  1.7719 -1.7990 -0.2153
16948TIP3    H272260   0.367   1.199  15.810 -1.3512 -0.2798 -1.3767
16949TIP3   OH272261   5.916   0.542  15.325  0.0911 -0.0644  0.1351
16949TIP3    H172262   5.826   0.508  15.316 -0.9520  2.0841  1.9142
16949TIP3    H272263   5.917   0.584  15.411  2.9795 -0.4701  0.3472
16950TIP3   OH272264   6.307   0.805  11.971 -0.2715 -0.0218  0.2058
16950TIP3    H172265   6.288   0.844  12.057 -1.7875 -1.7578  0.6862
16950TIP3    H272266   6.221   0.792  11.931  0.3894  0.0542 -1.2545
16951TIP3   OH272267   2.476   3.419   3.243 -0.4629  0.0649 -0.6019
16951TIP3    H172268   2.417   3.493   3.235  1.1149  1.1837 -2.3881
16951TIP3    H272269   2.532   3.441   3.318 -1.1459 -0.1763 -0.0127
16952TIP3   OH272270   4.088   2.343   3.163 -0.1390  0.2083 -0.0251
16952TIP3    H172271   4.147   2.296   3.222 -1.1153  0.4965  1.2042
16952TIP3    H272272   4.059   2.277   3.100  0.0979 -0.3616  0.4599
16953TIP3   OH272273   6.600   6.391  11.160  0.0833 -0.0475 -0.0051
16953TIP3    H172274   6.531   6.397  11.093 -1.1095  2.2791  1.3607
16953TIP3    H272275   6.656   6.467  11.143 -0.8827  1.2193  2.2934
16954TIP3   OH272276   1.888   2.990  13.342  0.2826 -0.3925  0.3567
16954TIP3    H172277   1.861   2.908  13.300 -0.7437  0.3812 -0.5541
16954TIP3    H272278   1.839   3.058  13.294  0.8181  0.7108  1.3498
16955TIP3   OH272279   2.056   0.719   4.747  0.8288 -0.1077  0.0181
16955TIP3    H172280   2.054   0.805   4.706  1.6256 -0.3723 -0.5633
16955TIP3    H272281   2.002   0.664   4.690  0.7707 -0.1352  0.0982
16956TIP3   OH272282   3.981   5.669  11.151  0.6984  0.5997 -0.5959
16956TIP3    H172283   3.906   5.695  11.096 -0.8987  0.1691  1.3185
16956TIP3    H272284   4.038   5.745  11.150  1.1712  0.2993 -3.5687
16957TIP3   OH272285   5.845   0.946   4.063  0.3936  0.4101  0.3884
16957TIP3    H172286   5.882   0.996   3.990 -0.2869  1.8742  1.0132
16957TIP3    H272287   5.833   1.012   4.132  1.1269 -0.9615  1.8619
16958TIP3   OH272288   2.715   4.467   2.429 -0.2915 -0.0184 -0.2170
16958TIP3    H172289   2.642   4.439   2.374 -1.2835 -2.0605  2.0565
16958TIP3    H272290   2.734   4.556   2.399 -0.3907 -1.2314 -4.2313
16959TIP3   OH272291   0.164   0.304   1.065 -0.3667  0.7211  0.3818
16959TIP3    H172292   0.167   0.326   0.971  0.0816  0.6967  0.3924
16959TIP3    H272293   0.170   0.209   1.067  0.4342  0.7738  0.4780
16960TIP3   OH272294   4.436   5.500   2.632 -0.5590  0.1158  0.2454
16960TIP3    H172295   4.348   5.504   2.669 -0.1089 -1.2794  1.5185
16960TIP3    H272296   4.489   5.556   2.690 -0.4907  0.5274 -0.2072
16961TIP3   OH272297   1.025   0.039   0.716  0.8948 -0.2149  0.0265
16961TIP3    H172298   1.046   0.091   0.638  1.8778  0.7463  0.9104
16961TIP3    H272299   0.930   0.039   0.719  0.8795  2.8155  0.8202
16962TIP3   OH272300   1.611   0.769  15.820  0.0640  0.7180 -0.2178
16962TIP3    H172301   1.670   0.760  15.895 -0.5195  2.7132  0.5138
16962TIP3    H272302   1.534   0.718  15.844  0.9680 -0.8777 -0.6423
16963TIP3   OH272303   4.452   4.240  11.506 -0.0372 -0.5873  0.1526
16963TIP3    H172304   4.475   4.148  11.520 -0.7632 -0.7241  0.4552
16963TIP3    H272305   4.367   4.250  11.547  0.1462  0.2859  0.3332
16964TIP3   OH272306   1.030   4.451   5.286 -0.2616 -0.0888  0.1222
16964TIP3    H172307   1.028   4.361   5.321 -0.1645  0.0705  0.5429
16964TIP3    H272308   0.992   4.504   5.356  0.0646  0.2552  0.0365
16965TIP3   OH272309   0.151   5.666  14.262 -0.6215 -0.0609  0.5391
16965TIP3    H172310   0.060   5.640  14.272 -0.4880 -0.4953  0.6158
16965TIP3    H272311   0.155   5.754  14.301 -1.4871  0.9076 -1.4531
16966TIP3   OH272312   5.839   1.131   4.306 -0.1051 -0.7373 -0.5095
16966TIP3    H172313   5.844   1.048   4.354 -2.2884 -0.6968 -0.1480
16966TIP3    H272314   5.798   1.192   4.368  0.0617  0.1925 -1.3012
16967TIP3   OH272315   0.861   5.621  11.388  0.0689  0.0464  0.0621
16967TIP3    H172316   0.889   5.586  11.304 -1.0415  0.6877 -0.5766
16967TIP3    H272317   0.796   5.558  11.420  0.5266 -0.2241  0.4725
16968TIP3   OH272318   6.125   1.736   0.896  0.1356  0.7913 -0.4458
16968TIP3    H172319   6.114   1.665   0.833 -0.3657 -0.2018  0.7471
16968TIP3    H272320   6.165   1.695   0.973  0.1511  1.8657  0.1371
16969TIP3   OH272321   5.359   1.025  12.680 -0.1731 -0.1843 -0.3458
16969TIP3    H172322   5.401   0.951  12.637  0.3160  0.5842 -1.2145
16969TIP3    H272323   5.273   0.992  12.706  0.8011 -1.6471  1.0974
16970TIP3   OH272324   6.655   5.866  10.298  0.2070 -0.2409  0.0342
16970TIP3    H172325   6.744   5.878  10.329 -0.0849  1.7331  0.1693
16970TIP3    H272326   6.628   5.953  10.268 -1.2565 -1.0580 -1.0952
16971TIP3   OH272327   1.387   4.603   0.139 -0.2379 -0.4012  0.5032
16971TIP3    H172328   1.395   4.689   0.097 -1.8465 -1.0325 -1.1481
16971TIP3    H272329   1.434   4.543   0.081 -1.3144 -1.0569  0.2978
16972TIP3   OH272330   5.469   1.266  16.105 -0.2411  0.1293 -0.2035
16972TIP3    H172331   5.464   1.316  16.024 -0.0087 -1.3349 -1.1324
16972TIP3    H272332   5.382   1.227  16.115  0.5537 -1.9833 -1.2551
16973TIP3   OH272333   1.325   4.139  13.892  0.3672  0.0138  0.1747
16973TIP3    H172334   1.387   4.171  13.826  1.5505 -1.0643  0.7497
16973TIP3    H272335   1.366   4.061  13.928 -0.3281  0.5039  2.1014
16974TIP3   OH272336   2.570   3.814  13.105  0.9685 -0.2171  0.2093
16974TIP3    H172337   2.582   3.901  13.144 -0.1554 -1.1657  2.7354
16974TIP3    H272338   2.512   3.830  13.030  0.7082  1.1852  0.6968
16975TIP3   OH272339   4.753   3.840   2.468  0.3465  0.6392  0.2619
16975TIP3    H172340   4.697   3.770   2.502  0.2927  0.5700  0.0307
16975TIP3    H272341   4.726   3.851   2.377  0.2360  1.0804  0.3474
16976TIP3   OH272342   4.450   3.992   6.202  0.0381  0.4358  0.3084
16976TIP3    H172343   4.418   3.907   6.171  1.3778  0.9116 -2.5972
16976TIP3    H272344   4.507   3.971   6.276 -0.4609 -1.1080  0.2681
16977TIP3   OH272345   0.449   3.646   4.690 -0.4046 -0.2311  0.3580
16977TIP3    H172346   0.480   3.680   4.605 -0.4436  0.1753  0.5032
16977TIP3    H272347   0.477   3.713   4.753  1.2884 -1.4369  0.9238
16978TIP3   OH272348   4.821   4.800  11.305 -0.4246 -0.0079 -0.1723
16978TIP3    H172349   4.906   4.808  11.263 -1.2808  0.5076 -1.8786
16978TIP3    H272350   4.838   4.754  11.387  1.6429  1.1118  0.0450
16979TIP3   OH272351   2.270   4.645   5.206 -0.1368  0.4040 -0.6594
16979TIP3    H172352   2.250   4.680   5.119  0.4472  0.2290 -0.8645
16979TIP3    H272353   2.365   4.653   5.214 -0.4577  3.2179  1.1344
16980TIP3   OH272354   6.285   0.494  14.977 -0.5676  0.6698 -0.2341
16980TIP3    H172355   6.253   0.509  15.066  0.2910 -0.6780  0.3062
16980TIP3    H272356   6.212   0.450  14.933 -0.3539 -0.2198  0.3012
16981TIP3   OH272357   1.219   4.534  13.486 -0.1330 -0.0693  0.3307
16981TIP3    H172358   1.218   4.504  13.395  0.2997  0.7694  0.0455
16981TIP3    H272359   1.263   4.464  13.534  0.9406  0.1336 -0.3409
16982TIP3   OH272360   5.472   4.894   3.657  0.2843 -0.4409  0.7800
16982TIP3    H172361   5.492   4.927   3.570  0.3239 -1.2819  0.4600
16982TIP3    H272362   5.480   4.970   3.715  0.3710  0.0923  0.0678
16983TIP3   OH272363   5.161   0.916   4.813 -0.5143  0.1764 -1.0595
16983TIP3    H172364   5.093   0.851   4.790 -0.5640 -0.3318  0.5063
16983TIP3    H272365   5.220   0.869   4.872  0.2429  1.1511 -1.0365
16984TIP3   OH272366   1.452   1.562   3.767  0.2038 -0.1989  0.0592
16984TIP3    H172367   1.401   1.488   3.733 -0.8128  0.7813 -0.5526
16984TIP3    H272368   1.402   1.593   3.842  0.9721 -0.5308  0.7230
16985TIP3   OH272369   1.697   1.005  12.695  0.0750 -0.0762  0.2692
16985TIP3    H172370   1.645   0.951  12.635  0.6764 -0.1974 -0.1428
16985TIP3    H272371   1.675   0.972  12.782  0.3692 -0.9241  0.0244
16986TIP3   OH272372   1.921   3.097   4.275  0.1737  0.3198 -0.1912
16986TIP3    H172373   1.915   3.192   4.286  1.3213  0.1833  2.0813
16986TIP3    H272374   1.861   3.077   4.204 -0.7477  2.6474 -0.1289
16987TIP3   OH272375   1.506   2.586  16.929  0.3159  0.3286 -0.0257
16987TIP3    H172376   1.489   2.524  17.000  0.8040  1.1633  0.8379
16987TIP3    H272377   1.509   2.671  16.973  2.0261  0.7028 -0.8256
16988TIP3   OH272378   0.772   6.453  14.770 -0.4522  0.7195  0.0210
16988TIP3    H172379   0.855   6.461  14.817 -0.4000  0.7930 -0.0856
16988TIP3    H272380   0.733   6.541  14.776 -0.2459  0.8437 -0.4545
16989TIP3   OH272381   3.053   6.743  13.085  0.7946  0.3086 -0.0163
16989TIP3    H172382   3.015   6.657  13.066  0.4411  0.8912 -2.0828
16989TIP3    H272383   3.140   6.740  13.046  1.1076  0.5762  0.6639
16990TIP3   OH272384   6.032   0.213  16.259  0.1591 -0.4705 -0.3113
16990TIP3    H172385   6.004   0.178  16.344 -1.5432 -0.4992 -0.8555
16990TIP3    H272386   6.034   0.136  16.202 -2.2566  0.0887 -1.1790
16991TIP3   OH272387   2.407   3.017   6.184  0.3221 -0.1407 -0.3869
16991TIP3    H172388   2.415   3.108   6.157 -3.0617  0.9708  1.9758
16991TIP3    H272389   2.369   3.021   6.272 -0.9919 -3.8364 -0.6795
16992TIP3   OH272390   3.512   1.749  12.441  0.2251  0.6755 -0.3470
16992TIP3    H172391   3.541   1.763  12.532  1.8004  1.9781 -1.0215
16992TIP3    H272392   3.443   1.813  12.428 -2.1643 -1.5667  0.8604
16993TIP3   OH272393   6.304   1.201   0.593 -0.0920 -0.2944 -0.0353
16993TIP3    H172394   6.328   1.263   0.523 -1.9964 -0.5609 -0.9432
16993TIP3    H272395   6.387   1.161   0.619  1.1610  2.4923  0.4372
16994TIP3   OH272396   6.330   5.424  13.877 -0.0107  0.1469  0.0180
16994TIP3    H172397   6.399   5.481  13.844  0.0639  0.5036  0.7758
16994TIP3    H272398   6.373   5.372  13.945  0.2822 -1.8063 -1.6047
16995TIP3   OH272399   0.003   3.735   5.286 -0.7152 -0.1366  0.0509
16995TIP3    H172400  -0.039   3.768   5.365 -2.4386 -1.8571 -0.1055
16995TIP3    H272401  -0.032   3.789   5.216 -0.3455  0.4048  0.2822
16996TIP3   OH272402   5.326   6.508   2.626  0.0871 -0.1728  0.2807
16996TIP3    H172403   5.284   6.589   2.655  0.1902 -0.8267  2.3102
16996TIP3    H272404   5.261   6.440   2.643  0.1884 -0.5929 -0.9696
16997TIP3   OH272405   6.147   1.135  14.115  0.3424 -0.1252  0.3092
16997TIP3    H172406   6.053   1.127  14.133  0.2513 -1.8680 -0.7478
16997TIP3    H272407   6.174   1.214  14.160 -1.5599  0.1582  0.9912
16998TIP3   OH272408   5.578   2.318  11.660  0.4578  0.3719  0.3855
16998TIP3    H172409   5.521   2.241  11.651  1.0690 -0.0591  0.2050
16998TIP3    H272410   5.524   2.391  11.630  0.0457 -0.0564  0.0804
16999TIP3   OH272411   4.391   5.290  15.585  0.0403  0.7734  0.0212
16999TIP3    H172412   4.386   5.383  15.561 -2.6179  0.4816 -0.6933
16999TIP3    H272413   4.340   5.283  15.666  0.3906 -0.0442  0.1825
17000TIP3   OH272414   4.934   6.034   6.141  0.4289  0.1058  0.4520
17000TIP3    H172415   4.950   6.004   6.230  0.4721 -2.5197 -0.3766
17000TIP3    H272416   4.950   5.956   6.087  1.1075  1.8321 -1.9078
17001TIP3   OH272417   5.905   5.716  15.302 -0.3015  0.3842 -0.3005
17001TIP3    H172418   5.815   5.741  15.321 -0.2362  0.5312 -0.1777
17001TIP3    H272419   5.957   5.789  15.335  0.0180 -0.6777  1.5833
17002TIP3   OH272420   5.532   4.306  16.755 -0.1761  0.0358 -0.2194
17002TIP3    H172421   5.603   4.306  16.690  1.0741 -2.7173  1.0481
17002TIP3    H272422   5.577   4.302  16.839 -1.8124  1.7769  0.7520
17003TIP3   OH272423   5.856   2.683   4.069 -0.2282  0.4030  0.0663
17003TIP3    H172424   5.891   2.757   4.019  0.6885  0.0780  0.2079
17003TIP3    H272425   5.862   2.711   4.160 -0.2158  0.2893  0.0996
17004TIP3   OH272426   3.240   0.536   1.984  0.1514  0.5766  0.1119
17004TIP3    H172427   3.210   0.492   1.905  0.2132  0.3456  0.2166
17004TIP3    H272428   3.253   0.628   1.958 -1.5827  0.8863  0.3043
17005TIP3   OH272429   5.150   2.120  14.515 -0.2212  0.2090 -0.3649
17005TIP3    H172430   5.088   2.119  14.441 -0.6838 -1.2876  0.0439
17005TIP3    H272431   5.235   2.103  14.475 -0.1222  1.6841 -0.8448
17006TIP3   OH272432   2.295   3.642   6.268 -0.1013 -0.6466  0.0058
17006TIP3    H172433   2.310   3.671   6.179  0.8602 -1.5718 -0.1543
17006TIP3    H272434   2.225   3.576   6.261  0.4126 -1.1786 -0.1555
17007TIP3   OH272435   5.759   0.533   2.002  0.8572  0.3430 -0.0689
17007TIP3    H172436   5.804   0.461   2.046  2.0070  0.6457 -0.7434
17007TIP3    H272437   5.802   0.612   2.035 -0.7983  0.7794  1.1335
17008TIP3   OH272438   2.138   6.762   1.604 -0.2484 -0.1969 -0.1395
17008TIP3    H172439   2.173   6.766   1.693  0.8990  0.8951 -0.6362
17008TIP3    H272440   2.097   6.848   1.591 -1.8408 -0.9381 -0.0882
17009TIP3   OH272441   6.440   1.833  15.678  0.1967  0.0132  0.6619
17009TIP3    H172442   6.380   1.791  15.740  0.9197 -0.2968  1.1545
17009TIP3    H272443   6.384   1.892  15.627 -0.6978 -1.0122  0.4485
17010TIP3   OH272444   4.574   3.539  12.327 -0.2273 -0.1804  0.1837
17010TIP3    H172445   4.579   3.563  12.234 -1.7462  2.4165  0.7275
17010TIP3    H272446   4.663   3.553  12.360 -0.5182  2.5807 -0.0663
17011TIP3   OH272447   2.406   4.056  17.102  0.5408 -0.2348 -0.0040
17011TIP3    H172448   2.418   4.127  17.165  0.5383 -0.3374  0.1151
17011TIP3    H272449   2.340   4.088  17.041 -0.0662 -0.4484  0.5268
17012TIP3   OH272450   4.243   0.584   3.063 -0.7605 -0.3729 -0.3059
17012TIP3    H172451   4.223   0.593   3.156 -0.4735  0.0601 -0.2841
17012TIP3    H272452   4.179   0.641   3.019  0.5768  1.2693 -0.2158
17013TIP3   OH272453   6.629   0.685  15.793  0.5457 -0.0145  0.9016
17013TIP3    H172454   6.618   0.652  15.883  0.9112 -1.7143  0.3529
17013TIP3    H272455   6.660   0.774  15.803  0.0563 -0.0086  2.4739
17014TIP3   OH272456   6.304   2.225   3.393 -0.6447 -0.0531 -0.0425
17014TIP3    H172457   6.363   2.296   3.366  1.2102 -1.1728  0.9834
17014TIP3    H272458   6.234   2.226   3.328  0.8272  0.9031 -1.6489
17015TIP3   OH272459   1.053   0.542   0.234  0.4578 -0.6401 -0.0117
17015TIP3    H172460   0.962   0.515   0.247  0.3394 -0.4621 -0.4664
17015TIP3    H272461   1.102   0.490   0.297 -0.0468 -0.1689  0.7857
17016TIP3   OH272462   2.648   0.637   2.276 -0.5147  1.0709 -0.0675
17016TIP3    H172463   2.676   0.724   2.248  0.3700  0.7873 -0.0641
17016TIP3    H272464   2.697   0.621   2.357  0.6830 -0.1689 -1.0203
17017TIP3   OH272465   2.564   5.523  13.785  0.0621 -0.1078  0.2317
17017TIP3    H172466   2.555   5.487  13.874  0.9485  0.1384  0.4223
17017TIP3    H272467   2.538   5.451  13.728 -1.5550  0.0638  0.7091
17018TIP3   OH272468   6.177   5.168   4.033 -0.2428 -0.1077 -0.4814
17018TIP3    H172469   6.111   5.113   3.991 -0.3164  0.6977 -1.4232
17018TIP3    H272470   6.176   5.140   4.125  0.5004 -2.4346 -1.1408
17019TIP3   OH272471   3.201   1.998   5.388  0.6919 -0.5768  0.4321
17019TIP3    H172472   3.223   1.941   5.313  1.1370  0.5976 -0.3447
17019TIP3    H272473   3.270   1.981   5.452  1.7648  0.2768 -0.4629
17020TIP3   OH272474   1.363   4.089  13.372 -0.1457  0.1366  0.0146
17020TIP3    H172475   1.309   4.011  13.379 -1.0313  0.7852  0.4704
17020TIP3    H272476   1.444   4.059  13.331 -1.4785 -0.5546 -2.1973
17021TIP3   OH272477   0.673   0.729  12.648 -0.0889  0.5906  0.1002
17021TIP3    H172478   0.591   0.727  12.696  0.5214  2.1209  1.2405
17021TIP3    H272479   0.684   0.820  12.622  1.9519  0.6937  1.2091
17022TIP3   OH272480   0.717   0.985   5.144  0.2883 -0.8860  0.8531
17022TIP3    H172481   0.754   1.048   5.206  0.3297  1.8433 -1.8254
17022TIP3    H272482   0.792   0.954   5.095 -0.3607  1.7170 -1.9577
17023TIP3   OH272483   3.076   0.972  10.333 -0.1426 -0.3126 -0.2384
17023TIP3    H172484   2.992   0.967  10.288  0.0960 -0.9183 -0.6314
17023TIP3    H272485   3.084   0.888  10.379 -0.0052 -0.0335  0.2619
17024TIP3   OH272486   6.292   3.325   3.017 -0.0584 -0.6105 -0.1628
17024TIP3    H172487   6.361   3.377   2.975  1.1115 -0.3086  2.0800
17024TIP3    H272488   6.215   3.381   3.015  0.0698 -0.4492 -1.5273
17025TIP3   OH272489   2.594   3.394   3.784 -0.1214 -0.4107 -0.1547
17025TIP3    H172490   2.657   3.466   3.785 -1.5364  0.8639 -0.3466
17025TIP3    H272491   2.595   3.360   3.873 -2.2094  2.3839  1.0428
17026TIP3   OH272492   0.959   0.923   1.927 -0.1496 -0.2538  0.0683
17026TIP3    H172493   0.938   0.890   1.839  1.0767 -1.6300  0.2666
17026TIP3    H272494   1.050   0.951   1.921  0.7137 -2.6155  1.5051
17027TIP3   OH272495   2.090   6.707  17.232  0.0643 -0.4635  0.1927
17027TIP3    H172496   2.005   6.702  17.276 -0.1920 -1.0060 -0.3613
17027TIP3    H272497   2.120   6.797  17.248  0.2898 -0.8425  2.0490
17028TIP3   OH272498   2.388   3.238  15.265  0.1083 -0.6241  0.1188
17028TIP3    H172499   2.355   3.223  15.176 -0.5306  0.4363  0.1640
17028TIP3    H272500   2.338   3.179  15.320  0.6925 -1.4777 -0.2601
17029TIP3   OH272501   3.590   1.256  11.398 -0.4397  0.0079  0.0342
17029TIP3    H172502   3.498   1.267  11.372  0.4863  3.4732 -2.2202
17029TIP3    H272503   3.604   1.325  11.463  1.1587  1.1514 -1.4888
17030TIP3   OH272504   1.549   1.257   1.519 -0.1435  0.4668 -0.0920
17030TIP3    H172505   1.574   1.300   1.437 -0.8523  0.6850 -0.1968
17030TIP3    H272506   1.502   1.179   1.491  1.5664 -0.6480  0.0946
17031TIP3   OH272507   3.053   0.068  15.797  0.3125 -0.4673  0.6408
17031TIP3    H172508   3.023  -0.013  15.838  1.2771 -2.3110 -2.1080
17031TIP3    H272509   2.973   0.117  15.778 -0.8755 -3.5251 -3.0182
17032TIP3   OH272510   5.054   6.010  15.192  0.1938 -0.3782  0.4665
17032TIP3    H172511   5.146   6.030  15.172  0.2205 -1.2990 -0.3575
17032TIP3    H272512   5.035   6.061  15.270  1.3957 -0.1249  0.6007
17033TIP3   OH272513   4.071   5.076  11.090  0.1614  0.7045  0.0432
17033TIP3    H172514   4.157   5.090  11.051  0.4746 -3.4259 -0.9126
17033TIP3    H272515   4.009   5.095  11.019  0.4199  0.3705 -0.2702
17034TIP3   OH272516   0.994   2.114   4.665 -0.2450  0.0250  0.0712
17034TIP3    H172517   0.916   2.125   4.610  0.4777 -0.5033 -1.0854
17034TIP3    H272518   1.039   2.039   4.626  0.0387 -0.6576  1.6841
17035TIP3   OH272519   3.922   1.566  15.780 -0.2326  0.3908  0.4893
17035TIP3    H172520   3.836   1.569  15.739 -0.6461 -0.1300  1.2943
17035TIP3    H272521   3.908   1.519  15.862  0.7388  0.6636  0.8257
17036TIP3   OH272522   5.713   6.277   0.388 -0.1679  0.2798  0.1682
17036TIP3    H172523   5.683   6.222   0.316  1.6555 -1.9879  1.0790
17036TIP3    H272524   5.677   6.235   0.467  1.7861 -0.0135  0.9268
17037TIP3   OH272525   1.095   4.947  12.170 -0.0172 -0.2646 -0.3124
17037TIP3    H172526   1.061   4.870  12.126  1.1700 -1.6083  1.0214
17037TIP3    H272527   1.189   4.930  12.177  0.0736  0.7264  1.0925
17038TIP3   OH272528   1.048   1.899   0.704 -0.0467  0.3487  0.0422
17038TIP3    H172529   1.003   1.881   0.786  1.7843  0.4506  1.0934
17038TIP3    H272530   1.074   1.990   0.710  0.9888  0.0739 -0.2060
17039TIP3   OH272531   4.370   5.257   3.144  0.2105  0.1536 -0.8562
17039TIP3    H172532   4.332   5.172   3.122 -0.0191 -0.1923  0.7915
17039TIP3    H272533   4.447   5.265   3.088  0.7019 -1.5208 -0.4364
17040TIP3   OH272534   4.109   6.287  16.020 -0.2784  0.0926 -0.0454
17040TIP3    H172535   4.201   6.309  16.012  0.0289 -0.3868  1.8353
17040TIP3    H272536   4.085   6.250  15.935  1.8160 -1.8007  0.1457
17041TIP3   OH272537   3.452   1.326   3.012  0.0117 -0.1105 -0.2628
17041TIP3    H172538   3.398   1.403   2.992 -0.3714 -0.2222  0.3463
17041TIP3    H272539   3.539   1.362   3.029 -0.4138  0.2907  1.0895
17042TIP3   OH272540   2.842   0.071  13.236  0.1495  0.5076  0.4684
17042TIP3    H172541   2.770   0.068  13.174  1.3921  0.4599 -0.9928
17042TIP3    H272542   2.915   0.028  13.191  1.4168  1.5371  1.4811
17043TIP3   OH272543   1.729   3.613  17.204 -0.0561  0.0998  0.1874
17043TIP3    H172544   1.720   3.704  17.175 -1.9056 -0.1583 -0.0908
17043TIP3    H272545   1.779   3.570  17.134  0.2569  0.7484  0.0125
17044TIP3   OH272546   5.258   4.044  11.081  0.2690  0.2368 -0.2036
17044TIP3    H172547   5.319   3.982  11.120 -2.4662 -1.3002  1.8716
17044TIP3    H272548   5.308   4.125  11.072  2.6453 -1.0252  1.1340
17045TIP3   OH272549   0.530   0.866   6.178 -0.3584  0.1708  0.2714
17045TIP3    H172550   0.482   0.920   6.241 -0.3432 -0.1325  0.5410
17045TIP3    H272551   0.559   0.790   6.228 -1.4561 -0.7116 -0.3818
17046TIP3   OH272552   2.072   3.291   2.277  0.2335  0.1619 -0.0755
17046TIP3    H172553   1.979   3.293   2.254 -0.0606  1.3906  1.1329
17046TIP3    H272554   2.084   3.209   2.324 -0.3981  0.3153  0.3543
17047TIP3   OH272555   2.772   5.929  16.156  0.0901 -0.1585  0.5474
17047TIP3    H172556   2.854   5.887  16.132 -0.2679 -0.1938 -0.6750
17047TIP3    H272557   2.793   5.983  16.232  1.4290  0.5051 -0.2938
17048TIP3   OH272558   4.592   5.270   4.468 -0.0969 -0.6996  0.5127
17048TIP3    H172559   4.629   5.338   4.522 -1.8790 -0.7801  1.8835
17048TIP3    H272560   4.616   5.188   4.511  1.1690 -0.9287 -0.5742
17049TIP3   OH272561   3.093   2.549  13.979  0.0060  0.1410 -0.1342
17049TIP3    H172562   3.086   2.530  14.073 -0.6556  2.9484  0.4283
17049TIP3    H272563   3.179   2.589  13.969  0.2453 -0.5364 -0.8065
17050TIP3   OH272564   4.671   4.974   0.441 -0.8782  1.0822 -0.1165
17050TIP3    H172565   4.589   4.928   0.459 -1.8885  3.0115  0.3425
17050TIP3    H272566   4.702   4.936   0.358 -1.6079 -0.4959  0.3179
17051TIP3   OH272567   1.438   5.293   6.173 -0.3406 -0.0514  0.2863
17051TIP3    H172568   1.382   5.216   6.178  0.0554 -0.3178  0.6410
17051TIP3    H272569   1.520   5.266   6.213  0.1473  0.2449 -0.4973
17052TIP3   OH272570   1.308   5.840  12.488  0.0600 -0.7918 -0.0205
17052TIP3    H172571   1.354   5.836  12.405  1.4661  0.4659  0.6696
17052TIP3    H272572   1.242   5.771  12.483  0.9894 -1.5782 -1.6556
17053TIP3   OH272573   1.137   2.912  17.228 -0.0446  0.2477 -0.4830
17053TIP3    H172574   1.207   2.978  17.233 -0.0650  0.1961  0.6279
17053TIP3    H272575   1.057   2.962  17.242 -0.0181 -0.0874  0.8870
17054TIP3   OH272576   4.159   4.364   2.027 -0.5301 -0.1926 -0.3831
17054TIP3    H172577   4.209   4.422   1.970  0.4852 -1.0927 -0.4098
17054TIP3    H272578   4.110   4.308   1.967 -0.7007 -0.0711 -0.3582
17055TIP3   OH272579   1.462   5.980   0.381 -0.5698  0.3539  0.4759
17055TIP3    H172580   1.512   5.929   0.445 -0.7676 -0.5637 -0.1022
17055TIP3    H272581   1.478   5.937   0.297 -1.1082  0.9637  0.0534
17056TIP3   OH272582   0.218   2.942  11.230  0.0690  0.2757 -0.3783
17056TIP3    H172583   0.292   2.946  11.291  0.3765  0.4685 -0.7610
17056TIP3    H272584   0.258   2.927  11.145 -0.1705  2.3425 -0.8990
17057TIP3   OH272585   6.243   1.159   3.387  0.3723  0.0537  0.4117
17057TIP3    H172586   6.222   1.102   3.462  0.2392  0.0999  0.4083
17057TIP3    H272587   6.160   1.172   3.342  0.3277  0.6012  0.6536
17058TIP3   OH272588   6.106   3.869  15.655 -0.7374 -0.6928  0.2476
17058TIP3    H172589   6.169   3.811  15.699  0.6129 -1.1369 -2.1456
17058TIP3    H272590   6.148   3.955  15.656 -0.9524 -0.5883  0.2971
17059TIP3   OH272591   2.352   6.359  12.948 -0.4869 -0.6556  0.7673
17059TIP3    H172592   2.394   6.283  12.988 -0.2064 -0.7866  0.2282
17059TIP3    H272593   2.295   6.322  12.880 -1.9887 -0.5266  1.9312
17060TIP3   OH272594   5.208   0.331  14.381 -0.0228  0.5078 -0.0356
17060TIP3    H172595   5.183   0.415  14.342 -0.6494  0.3323 -0.0146
17060TIP3    H272596   5.291   0.310  14.338  0.2492  1.2431  0.1188
17061TIP3   OH272597   4.909   2.436   4.700 -0.9012 -0.3652 -0.1249
17061TIP3    H172598   4.963   2.510   4.670  0.3622 -1.2878 -0.1470
17061TIP3    H272599   4.897   2.382   4.622 -1.8544 -0.1740 -0.1124
17062TIP3   OH272600   0.105   2.276   3.199  0.1832 -0.1823  0.6102
17062TIP3    H172601   0.061   2.340   3.142 -1.9027 -0.4545  1.8791
17062TIP3    H272602   0.070   2.294   3.286  1.8817 -1.0736  1.4874
17063TIP3   OH272603   6.198   3.883  15.019  0.2678  0.7163  0.0769
17063TIP3    H172604   6.285   3.901  15.055  2.0939 -0.3692 -3.5570
17063TIP3    H272605   6.186   3.950  14.951 -0.2349 -1.1749 -1.7550
17064TIP3   OH272606   5.069   3.378   4.005 -0.2553 -0.3401  0.1829
17064TIP3    H172607   5.148   3.327   3.987  0.1814 -0.0369  1.1966
17064TIP3    H272608   5.100   3.456   4.050 -1.3160 -1.2509  2.6104
17065TIP3   OH272609   4.929   4.710   1.576 -0.1437  0.1509 -0.3953
17065TIP3    H172610   4.872   4.651   1.526 -1.0915 -0.0659  0.8939
17065TIP3    H272611   4.993   4.652   1.617 -1.0234 -0.0145  0.8025
17066TIP3   OH272612   6.674   4.916  16.654 -0.2702 -0.2601  0.1324
17066TIP3    H172613   6.769   4.906  16.649 -0.3307 -0.2637 -1.0314
17066TIP3    H272614   6.649   4.864  16.731  0.4961 -1.5314 -0.4541
17067TIP3   OH272615   1.634   2.023  15.188 -0.1722  0.1432 -0.2385
17067TIP3    H172616   1.582   1.986  15.117 -0.2188 -0.1558 -0.0500
17067TIP3    H272617   1.725   2.009  15.161 -0.1892  0.6586 -0.5634
17068TIP3   OH272618   2.177   3.240  16.126 -0.2414  0.1463  0.1659
17068TIP3    H172619   2.209   3.318  16.081  1.9070 -0.3682  0.7263
17068TIP3    H272620   2.107   3.271  16.183 -0.5639  1.3756 -0.8791
17069TIP3   OH272621   3.699   5.470   0.447 -0.0530 -0.2801 -0.3676
17069TIP3    H172622   3.786   5.450   0.412  1.2329 -0.3157  2.6725
17069TIP3    H272623   3.675   5.552   0.405  1.6038 -0.0825 -0.9702
17070TIP3   OH272624   5.692   1.280   4.469  0.1272 -0.8102  0.8615
17070TIP3    H172625   5.623   1.240   4.523  0.7372 -0.3215  2.0129
17070TIP3    H272626   5.711   1.363   4.512  0.5405 -0.3668 -0.1816
17071TIP3   OH272627   0.887   6.172  10.833 -0.3259 -0.1113 -0.4853
17071TIP3    H172628   0.952   6.164  10.764  0.5220 -0.2696  0.3205
17071TIP3    H272629   0.804   6.148  10.791 -0.1241  1.5994 -1.9063
17072TIP3   OH272630   0.659   6.164  16.848  0.2603 -0.1891 -0.5246
17072TIP3    H172631   0.688   6.189  16.936 -0.7433 -1.6244  0.2595
17072TIP3    H272632   0.596   6.232  16.823 -0.5416 -0.5263  0.5033
17073TIP3   OH272633   3.998   5.989  15.957 -0.3703 -0.2837  0.2538
17073TIP3    H172634   3.921   6.046  15.955 -1.6298 -1.9595  0.0567
17073TIP3    H272635   3.990   5.939  16.038  1.1289  0.3175  0.8071
17074TIP3   OH272636   2.598   6.468   4.446 -0.1601 -0.0602  0.1044
17074TIP3    H172637   2.633   6.381   4.430 -0.0699  0.0256 -0.1600
17074TIP3    H272638   2.521   6.474   4.390  0.3529  0.3659 -0.5615
17075TIP3   OH272639   4.840   1.410   0.016  0.0547 -0.0783 -0.1230
17075TIP3    H172640   4.782   1.452  -0.047  1.0719  0.9527 -0.4100
17075TIP3    H272641   4.809   1.320   0.023 -0.5193  0.0024 -1.5398
17076TIP3   OH272642   2.743   2.952   5.927  0.0002 -0.1693 -0.1626
17076TIP3    H172643   2.777   2.917   6.009  0.5140  0.1614 -0.2353
17076TIP3    H272644   2.786   3.036   5.916 -0.7521  0.2045 -0.3182
17077TIP3   OH272645   1.755   5.637  15.518 -0.1644  0.1429 -0.1360
17077TIP3    H172646   1.772   5.597  15.603  0.2149 -0.4024 -0.4631
17077TIP3    H272647   1.757   5.564  15.456 -0.5655  0.5191 -0.5949
17078TIP3   OH272648   3.367   6.648  13.464 -0.5541 -0.0069  0.0900
17078TIP3    H172649   3.442   6.708  13.464  0.5095 -1.2891  2.3209
17078TIP3    H272650   3.380   6.592  13.387 -0.5457  1.3408 -0.9140
17079TIP3   OH272651   1.832   3.312  14.939  0.2558 -0.4762 -0.6150
17079TIP3    H172652   1.913   3.271  14.908  0.0544 -1.0257 -0.4286
17079TIP3    H272653   1.774   3.313  14.863 -0.1532 -1.6055 -0.3269
17080TIP3   OH272654   0.495   3.786   4.419  0.0210 -0.0116  0.0707
17080TIP3    H172655   0.407   3.812   4.445 -0.1981 -0.3376 -0.3380
17080TIP3    H272656   0.535   3.865   4.384  0.0545  0.2485  0.6892
17081TIP3   OH272657   3.090   3.060  17.163 -0.1979 -0.2063  0.2984
17081TIP3    H172658   3.027   3.010  17.215 -0.3062  0.1665  0.5269
17081TIP3    H272659   3.112   3.136  17.218  0.0671 -0.0719  0.0088
17082TIP3   OH272660   4.878   5.375  13.579 -0.4950  0.0445 -0.1966
17082TIP3    H172661   4.827   5.400  13.656 -1.2833 -1.2202 -0.2927
17082TIP3    H272662   4.872   5.279  13.577 -0.3700  0.0637 -1.7481
17083TIP3   OH272663   0.138   5.110   0.840  0.3993 -0.0681  0.1540
17083TIP3    H172664   0.068   5.055   0.804 -0.4198  0.9221  0.2308
17083TIP3    H272665   0.208   5.104   0.775 -1.0072  1.5637 -1.5476
17084TIP3   OH272666   5.541   4.673  11.603  0.0913  0.0649 -0.3657
17084TIP3    H172667   5.534   4.590  11.651  0.7676  0.0145 -0.3543
17084TIP3    H272668   5.565   4.647  11.514  0.2283  0.2426 -0.3812
17085TIP3   OH272669   4.032   5.146  15.686  0.0028  0.0885 -0.3137
17085TIP3    H172670   3.986   5.229  15.674 -0.6972 -0.3466 -0.7401
17085TIP3    H272671   4.118   5.159  15.646 -0.1024  0.6099 -0.3679
17086TIP3   OH272672   4.219   2.479  16.843 -0.1596  0.4292  0.2240
17086TIP3    H172673   4.275   2.441  16.776 -0.4055  0.3160  0.0801
17086TIP3    H272674   4.260   2.563  16.865 -1.0713  1.3325 -1.3857
17087TIP3   OH272675   6.112   5.938  11.404 -0.0146 -0.4195  0.4845
17087TIP3    H172676   6.076   5.899  11.484  0.3982 -0.4158  0.6754
17087TIP3    H272677   6.037   5.975  11.358 -0.8188 -3.7213 -0.9887
17088TIP3   OH272678   5.636   4.646  17.110  0.0259 -0.3249 -0.3375
17088TIP3    H172679   5.701   4.623  17.044  2.2890 -0.5519  1.9190
17088TIP3    H272680   5.552   4.622  17.070  1.4002 -1.2774 -2.7497
17089TIP3   OH272681   2.354   6.109   2.678  0.0480 -0.1234  0.7939
17089TIP3    H172682   2.343   6.202   2.696 -1.1008 -0.1882  0.4723
17089TIP3    H272683   2.271   6.082   2.640  0.2739 -1.3472  1.1407
17090TIP3   OH272684   0.268   3.150   4.148 -0.3522  0.3270  0.4182
17090TIP3    H172685   0.203   3.126   4.082  1.2515 -3.3488  0.0688
17090TIP3    H272686   0.268   3.076   4.210  1.8786  1.2919  1.6499
17091TIP3   OH272687   4.617   1.268   0.280 -0.2742  0.1888  0.3021
17091TIP3    H172688   4.608   1.274   0.375 -3.8924  0.6044  0.0002
17091TIP3    H272689   4.613   1.359   0.250  1.5757  0.1194 -0.2555
17092TIP3   OH272690   3.984   1.074  10.873 -0.7145  0.2499  0.7058
17092TIP3    H172691   3.905   1.072  10.927 -1.7773  4.2867 -0.4691
17092TIP3    H272692   3.978   0.996  10.818 -2.1971 -1.2053  2.8343
17093TIP3   OH272693   5.251   5.653   3.995  0.4389 -0.5840 -0.3147
17093TIP3    H172694   5.206   5.582   4.042  0.7218 -2.2614 -2.4937
17093TIP3    H272695   5.344   5.636   4.009  0.6156 -2.4203 -3.2079
17094TIP3   OH272696   0.622   5.077  15.081 -0.1981 -0.1462  0.7331
17094TIP3    H172697   0.642   4.984  15.089 -0.3983 -0.4584 -1.9916
17094TIP3    H272698   0.532   5.079  15.050  0.1525  0.9387 -0.2057
17095TIP3   OH272699   4.763   4.799   4.855 -0.3282  0.6184  0.1153
17095TIP3    H172700   4.858   4.784   4.856 -0.0049  2.2744 -1.3543
17095TIP3    H272701   4.733   4.755   4.775 -0.8814 -0.2920  0.8182
17096TIP3   OH272702   2.228   0.841  13.969  0.1749  0.2138  0.3696
17096TIP3    H172703   2.173   0.846  14.047 -0.7596 -1.8586 -0.1332
17096TIP3    H272704   2.177   0.790  13.906  1.3051  1.0638 -1.2854
17097TIP3   OH272705   1.351   2.345  12.317 -0.5663  0.0611  0.0551
17097TIP3    H172706   1.279   2.299  12.361 -1.5717  1.8083  0.2616
17097TIP3    H272707   1.337   2.328  12.224  0.4188 -1.9850  0.2590
17098TIP3   OH272708   0.897   4.322  12.326 -0.1148  0.0231  0.0328
17098TIP3    H172709   0.951   4.257  12.279  0.7329  0.3465  0.5545
17098TIP3    H272710   0.958   4.393  12.346 -0.4071 -0.2258  1.8644
17099TIP3   OH272711   1.946   1.723  13.538  0.1244 -0.3897  0.1954
17099TIP3    H172712   1.906   1.783  13.601  1.9132  1.1960 -0.1154
17099TIP3    H272713   1.938   1.637  13.578 -1.0758  0.2575  1.3895
17100TIP3   OH272714   5.839   4.965  15.106 -0.0219  0.3844  0.1821
17100TIP3    H172715   5.896   4.944  15.180 -1.5654  0.6257  1.4569
17100TIP3    H272716   5.888   5.030  15.056  2.4796 -2.1732 -0.8630
17101TIP3   OH272717   2.209   4.875   4.320 -0.4100  0.2057 -0.5264
17101TIP3    H172718   2.140   4.940   4.318 -0.7125 -0.0675  0.6382
17101TIP3    H272719   2.265   4.901   4.393 -0.4997 -0.7996 -0.0902
17102TIP3   OH272720   6.287   0.458  16.383  0.1242  0.2949  0.4372
17102TIP3    H172721   6.320   0.541  16.349  0.5344 -0.3650 -0.8071
17102TIP3    H272722   6.197   0.453  16.351 -0.5327  1.1262  2.0944
17103TIP3   OH272723   5.335   1.102  14.721 -0.0710 -0.3498  0.1945
17103TIP3    H172724   5.390   1.156  14.779 -0.5077 -0.2359  0.5047
17103TIP3    H272725   5.325   1.019  14.768 -0.8269 -0.0850  0.5026
17104TIP3   OH272726   5.562   6.492   0.352  0.1568 -0.5153  0.9495
17104TIP3    H172727   5.528   6.491   0.442  1.4120 -1.9465  1.4297
17104TIP3    H272728   5.614   6.412   0.345 -0.2665 -0.6257 -1.1969
17105TIP3   OH272729   5.751   3.689   1.092 -0.9078 -0.5408 -0.0549
17105TIP3    H172730   5.795   3.772   1.111  0.0609 -0.4260 -2.5865
17105TIP3    H272731   5.710   3.664   1.175 -0.2055  1.8492  1.0616
17106TIP3   OH272732   3.218   5.185   4.736  0.0705  0.0052  0.7325
17106TIP3    H172733   3.283   5.252   4.759 -0.2730 -0.1548  2.2154
17106TIP3    H272734   3.201   5.200   4.643 -1.2092  3.0629  1.3795
17107TIP3   OH272735   5.930   2.937   0.641  0.0930 -0.5559 -0.5056
17107TIP3    H172736   5.842   2.959   0.668 -0.2271 -2.0597 -0.2650
17107TIP3    H272737   5.932   2.956   0.547 -0.9572 -1.8954 -0.8184
17108TIP3   OH272738   4.791   2.283   0.225 -0.1215 -0.2241  0.3470
17108TIP3    H172739   4.828   2.199   0.199 -1.4223 -0.6227 -0.2441
17108TIP3    H272740   4.710   2.261   0.270 -0.8851  0.7514 -0.5263
17109TIP3   OH272741   4.259   3.797  13.860  0.2643 -0.5021 -0.1627
17109TIP3    H172742   4.265   3.733  13.931  0.0780 -1.2857 -0.8479
17109TIP3    H272743   4.175   3.841  13.875  2.4795  2.9099  3.0717
17110TIP3   OH272744   6.377   0.456   2.204 -0.0679 -0.0393  1.1505
17110TIP3    H172745   6.344   0.481   2.290 -0.4216  0.5204  0.8486
17110TIP3    H272746   6.428   0.376   2.221  0.8864  0.7382  2.0794
17111TIP3   OH272747   6.331   4.970   3.123  0.4702  0.1325  0.3198
17111TIP3    H172748   6.300   5.009   3.041  0.0987 -0.2146  0.2927
17111TIP3    H272749   6.294   4.882   3.123  1.8514 -0.4718  0.0521
17112TIP3   OH272750   5.456   1.470  13.092 -0.1972 -0.2744 -0.0098
17112TIP3    H172751   5.398   1.402  13.127  0.0725 -0.8248 -0.6209
17112TIP3    H272752   5.429   1.479  13.001 -1.8792  2.1990  0.6845
17113TIP3   OH272753   1.056   5.674  12.418  0.7035 -0.1734 -0.1218
17113TIP3    H172754   1.016   5.743  12.471 -0.2193  0.0480 -1.0711
17113TIP3    H272755   1.024   5.692  12.329  0.5148 -1.7876 -0.3821
17114TIP3   OH272756   2.718   3.642  16.979  0.0693 -0.2517 -0.5683
17114TIP3    H172757   2.798   3.692  16.966 -0.1591  0.3882  0.4634
17114TIP3    H272758   2.651   3.692  16.932 -0.5733  1.5707  2.1818
17115TIP3   OH272759   5.298   5.032  15.083 -0.3704  0.2401 -0.3206
17115TIP3    H172760   5.387   5.000  15.076 -0.6235 -0.6108  0.2051
17115TIP3    H272761   5.249   4.959  15.120 -1.0530  1.0773  0.4759
17116TIP3   OH272762   3.270   6.070  15.590  0.2735  0.1495 -0.2855
17116TIP3    H172763   3.225   6.137  15.539  2.4863  0.7119 -1.5419
17116TIP3    H272764   3.359   6.104  15.602  0.1467 -0.4848  3.0035
17117TIP3   OH272765   4.363   0.134  13.604  0.2157  0.2343  0.1558
17117TIP3    H172766   4.381   0.224  13.628  1.0478  0.4179 -1.0804
17117TIP3    H272767   4.289   0.139  13.542  0.4029  0.0951 -0.0833
17118TIP3   OH272768   0.787   4.958  13.686  0.2313  0.1015  0.0245
17118TIP3    H172769   0.803   4.876  13.638 -1.5240  0.6363 -1.5526
17118TIP3    H272770   0.816   4.940  13.775 -0.0802 -2.2372 -0.3054
17119TIP3   OH272771   2.672   1.533   0.603  0.6036 -0.0234  0.3238
17119TIP3    H172772   2.635   1.621   0.608  2.3885  0.8774 -1.7213
17119TIP3    H272773   2.609   1.482   0.553  0.6432  0.7119 -0.4837
17120TIP3   OH272774   2.527   3.646  16.027 -0.1068  0.7475 -0.0598
17120TIP3    H172775   2.542   3.614  15.938  0.6759  1.8358 -0.3418
17120TIP3    H272776   2.543   3.570  16.083  0.0158  0.2094 -0.8140
17121TIP3   OH272777   4.064   1.946  14.465  0.4174 -0.3991 -0.4941
17121TIP3    H172778   4.078   1.935  14.371 -0.7657  0.1312 -0.7347
17121TIP3    H272779   4.149   1.976  14.498  0.4812  0.6676 -1.5905
17122TIP3   OH272780   2.410   3.562   1.047  0.4379  0.3705  0.6900
17122TIP3    H172781   2.435   3.639   0.997  1.2643 -0.4921 -0.2602
17122TIP3    H272782   2.451   3.489   1.000 -1.9395 -0.8431  0.4588
17123TIP3   OH272783   5.460   5.808  12.455 -0.6340 -0.4906  0.1255
17123TIP3    H172784   5.370   5.833  12.434 -0.6049  1.4507  2.1940
17123TIP3    H272785   5.465   5.814  12.550  1.8589  0.0167 -0.0049
17124TIP3   OH272786   4.926   0.888  13.853  0.4613  0.2954 -0.2273
17124TIP3    H172787   4.989   0.885  13.781  1.5079 -1.6172  0.7325
17124TIP3    H272788   4.967   0.837  13.923 -1.7743 -0.2788  0.7166
17125TIP3   OH272789   5.345   4.921   4.369  0.0934 -0.2643 -0.4404
17125TIP3    H172790   5.428   4.894   4.329 -0.5584 -0.7684 -1.4607
17125TIP3    H272791   5.311   4.840   4.408  1.1524  0.3920  1.9537
17126TIP3   OH272792   3.789   5.968   3.878  0.1115  0.1318 -0.1195
17126TIP3    H172793   3.801   5.919   3.960  1.7641 -0.0999 -0.4697
17126TIP3    H272794   3.816   6.057   3.900  0.1751  0.1582 -0.3065
17127TIP3   OH272795   2.359   1.727   2.252  0.4312  0.4402 -0.6198
17127TIP3    H172796   2.266   1.721   2.270  0.6648  1.1455  0.8763
17127TIP3    H272797   2.397   1.646   2.286  0.3357  0.0567 -1.4241
17128TIP3   OH272798   0.270   4.894   2.246 -0.0016  0.7508  0.3489
17128TIP3    H172799   0.342   4.877   2.306  0.5376  1.5628 -0.0483
17128TIP3    H272800   0.191   4.875   2.296  0.5021 -0.5990  0.6432
17129TIP3   OH272801   5.622   2.320   6.112 -0.1055 -0.1252  0.2237
17129TIP3    H172802   5.680   2.317   6.188 -0.0626  0.8442  0.2369
17129TIP3    H272803   5.535   2.304   6.148  0.0906 -1.0854  0.2744
17130TIP3   OH272804   5.253   1.558   5.577 -0.0130 -0.4904  0.0976
17130TIP3    H172805   5.341   1.521   5.576  0.6514  1.0523  0.7079
17130TIP3    H272806   5.219   1.538   5.664  0.0310 -0.3469  0.1454
17131TIP3   OH272807   0.352   3.627  17.146  0.0199 -0.0659 -0.2599
17131TIP3    H172808   0.389   3.612  17.233  0.9206 -2.2448 -0.9838
17131TIP3    H272809   0.261   3.651  17.162  0.5684  0.9861  1.3378
17132TIP3   OH272810   6.109   3.142  15.215 -0.1424 -0.2688  0.4872
17132TIP3    H172811   6.177   3.116  15.276  0.9160  0.5095 -0.3461
17132TIP3    H272812   6.119   3.081  15.141  0.8879  1.0263 -0.4695
17133TIP3   OH272813   0.748   0.130   1.384 -0.0687  0.4865  0.4453
17133TIP3    H172814   0.826   0.165   1.341 -0.0233  1.1758  1.0962
17133TIP3    H272815   0.681   0.197   1.371 -0.7470 -0.3735 -0.6615
17134TIP3   OH272816   1.169   2.789   1.117  0.1984  0.3975 -0.3907
17134TIP3    H172817   1.238   2.726   1.139 -0.3309 -0.7785 -1.9555
17134TIP3    H272818   1.214   2.873   1.112  1.0862  0.0224  0.8695
17135TIP3   OH272819   4.048   2.224  12.441  0.5047 -0.6050  0.8145
17135TIP3    H172820   4.021   2.137  12.414 -0.7539 -0.7929  2.5760
17135TIP3    H272821   4.143   2.219  12.450  0.4169 -1.8340  1.0591
17136TIP3   OH272822   2.114   5.033   5.151 -0.0559 -0.3782  0.3940
17136TIP3    H172823   2.193   5.019   5.203 -0.9373 -2.3051  1.2754
17136TIP3    H272824   2.043   5.036   5.215 -0.6039  2.7109 -0.2595
17137TIP3   OH272825   0.704   0.294  12.117 -0.5207  0.1647 -0.8077
17137TIP3    H172826   0.724   0.381  12.150  2.1521 -0.6608 -0.0968
17137TIP3    H272827   0.785   0.244  12.130 -1.9496 -2.3909 -1.2897
17138TIP3   OH272828   5.985   0.741   1.695  0.2684 -0.4220 -0.0328
17138TIP3    H172829   5.949   0.659   1.730  1.1759 -0.7125  0.2339
17138TIP3    H272830   6.068   0.752   1.741 -0.2200  1.0804  0.5235
17139TIP3   OH272831   0.463   5.374   3.748  0.0361  0.7323 -0.0240
17139TIP3    H172832   0.380   5.360   3.703  0.9150  2.0472 -2.1164
17139TIP3    H272833   0.440   5.422   3.827 -1.2900  0.1934 -0.0751
17140TIP3   OH272834   4.220   5.847   2.695 -0.1719  0.1310 -0.8593
17140TIP3    H172835   4.253   5.913   2.634  0.0450 -1.0078 -1.9994
17140TIP3    H272836   4.171   5.786   2.640 -0.8693 -0.3344  0.2690
17141TIP3   OH272837   4.361   3.271   6.072 -0.2711  0.3458 -0.5717
17141TIP3    H172838   4.313   3.310   5.999 -0.6960  0.1577 -0.3913
17141TIP3    H272839   4.314   3.190   6.092 -0.2584  0.4840  0.0274
17142TIP3   OH272840   6.769   5.380  12.561 -0.2810  0.5890 -0.1959
17142TIP3    H172841   6.738   5.365  12.472 -0.3022  0.8290 -0.2319
17142TIP3    H272842   6.692   5.366  12.616 -0.3035  0.5811 -0.2293
17143TIP3   OH272843   3.652   0.360  17.200 -0.3752 -0.3514  0.4528
17143TIP3    H172844   3.659   0.274  17.242  0.9185  0.0858  1.1647
17143TIP3    H272845   3.618   0.417  17.268 -2.6783 -0.5900 -0.4549
17144TIP3   OH272846   2.813   6.459  14.340  0.5456  0.3188  0.1552
17144TIP3    H172847   2.749   6.447  14.411  0.1165 -0.2652 -0.3221
17144TIP3    H272848   2.759   6.468  14.262  1.0795 -1.3675 -0.4248
17145TIP3   OH272849   0.145   3.893  12.552  0.4871 -0.0897  0.5354
17145TIP3    H172850   0.136   3.801  12.577  2.1668 -0.4682 -0.1597
17145TIP3    H272851   0.060   3.932  12.572 -0.2082 -1.7675  0.9366
17146TIP3   OH272852   6.073   2.349  16.219  0.0032  0.0280  0.3960
17146TIP3    H172853   6.014   2.276  16.235  0.9879 -1.0419 -0.6899
17146TIP3    H272854   6.035   2.422  16.267 -1.1349 -1.1335  1.3034
17147TIP3   OH272855   3.683   2.276  10.231  0.6064 -0.1935 -0.1713
17147TIP3    H172856   3.765   2.307  10.267 -0.6259  0.1320  2.4507
17147TIP3    H272857   3.649   2.215  10.296 -2.3539  1.4270 -0.0925
17148TIP3   OH272858   6.628   0.249   1.542  0.3572  0.2192  0.5023
17148TIP3    H172859   6.575   0.328   1.529  3.1545  1.8194 -1.8777
17148TIP3    H272860   6.626   0.205   1.457 -0.9023 -2.1524  1.7104
17149TIP3   OH272861   4.692   0.797   4.887 -0.4646 -0.0340 -0.4539
17149TIP3    H172862   4.614   0.791   4.942  1.1385 -0.0902  1.8752
17149TIP3    H272863   4.738   0.714   4.901 -0.3544 -0.3347 -2.4281
17150TIP3   OH272864   4.196   3.812  15.663 -0.0908 -0.1778  0.6918
17150TIP3    H172865   4.242   3.825  15.580  0.7732 -0.2289  1.1606
17150TIP3    H272866   4.211   3.893  15.712 -2.0359  0.5459  0.1170
17151TIP3   OH272867   5.565   3.003  17.094  0.3158  0.2855  0.0186
17151TIP3    H172868   5.596   3.093  17.098 -1.4458  0.9629 -0.9067
17151TIP3    H272869   5.573   2.979  17.002  0.6175 -0.4461  0.2301
17152TIP3   OH272870   4.912   3.647   2.208 -0.6488  0.1335  0.2950
17152TIP3    H172871   4.902   3.656   2.302  0.7843  1.7541  0.3087
17152TIP3    H272872   4.843   3.701   2.171 -1.3697 -0.6998  0.3890
17153TIP3   OH272873   3.418   1.710   0.464 -0.2414 -0.5656  0.5157
17153TIP3    H172874   3.380   1.720   0.377 -1.7408 -3.3615  0.7737
17153TIP3    H272875   3.420   1.798   0.500 -2.0574  0.2845 -1.3462
17154TIP3   OH272876   3.876   1.755   1.785  0.2262 -0.1155 -0.7074
17154TIP3    H172877   3.919   1.797   1.711 -0.4883 -0.5922 -1.4058
17154TIP3    H272878   3.790   1.730   1.752 -0.2502  0.0111  0.4033
17155TIP3   OH272879   5.864   1.438  14.116  0.0748  0.3219 -0.1284
17155TIP3    H172880   5.775   1.463  14.092 -0.1511 -0.1840  0.1742
17155TIP3    H272881   5.901   1.516  14.157 -0.6652  0.1291  0.9145
17156TIP3   OH272882   4.550   0.983   0.463 -0.1330  0.1741  0.6430
17156TIP3    H172883   4.599   1.065   0.472 -0.5376  0.6354 -1.1966
17156TIP3    H272884   4.598   0.920   0.516  0.2793  1.5479  1.9603
17157TIP3   OH272885   2.201   6.564   3.900  0.2545  0.1990 -0.0807
17157TIP3    H172886   2.226   6.654   3.919  1.1340  0.5069 -2.5658
17157TIP3    H272887   2.179   6.564   3.807 -0.7512 -1.9395  0.1244
17158TIP3   OH272888   3.992   4.704  16.291 -0.4206 -0.2337  0.4019
17158TIP3    H172889   3.963   4.659  16.371 -0.0073 -2.2261 -0.5365
17158TIP3    H272890   3.999   4.634  16.225  1.4972  0.9893 -0.7593
17159TIP3   OH272891   2.928   1.364  13.940 -0.5074  0.3106 -0.0071
17159TIP3    H172892   2.890   1.276  13.935  0.2143  0.0870 -2.3156
17159TIP3    H272893   2.859   1.421  13.906 -0.1600  0.3693 -0.6065
17160TIP3   OH272894   3.036   1.552   2.432  0.5567  0.1392 -0.1368
17160TIP3    H172895   2.962   1.521   2.379 -0.7043 -0.7724  2.0744
17160TIP3    H272896   3.070   1.473   2.473  2.3897  0.6492 -0.6476
17161TIP3   OH272897   2.118   6.247   3.026  0.6025  0.9344  0.3276
17161TIP3    H172898   2.065   6.223   2.950 -0.8797  2.5440  0.8053
17161TIP3    H272899   2.089   6.187   3.095  1.1627  0.1972 -0.0735
17162TIP3   OH272900   6.669   3.202   5.608  0.4298  0.6371 -0.4469
17162TIP3    H172901   6.661   3.277   5.667  1.9604  0.2819  0.2365
17162TIP3    H272902   6.705   3.240   5.527 -1.4353  1.0818 -1.0932
17163TIP3   OH272903   2.669   3.359  10.789  0.4339 -0.2742 -0.0863
17163TIP3    H172904   2.688   3.434  10.845  0.4785 -0.7153  0.5007
17163TIP3    H272905   2.755   3.324  10.767  0.3660 -1.9239  2.0897
17164TIP3   OH272906   6.097   3.282  11.857 -0.2829  0.2901  0.3107
17164TIP3    H172907   6.047   3.255  11.780  1.7091 -0.8048 -0.6136
17164TIP3    H272908   6.045   3.251  11.931 -0.6754 -1.3783 -0.6440
17165TIP3   OH272909   5.808   0.458   5.562  0.0120 -0.2057  0.9385
17165TIP3    H172910   5.722   0.436   5.527  0.3227  1.7855 -1.2320
17165TIP3    H272911   5.800   0.446   5.657 -2.9081  0.7964  0.8594
17166TIP3   OH272912   4.142   2.596   6.603 -0.2262 -0.4457 -0.7796
17166TIP3    H172913   4.092   2.517   6.622  0.3177 -1.0721 -1.9799
17166TIP3    H272914   4.130   2.651   6.681 -1.7891 -1.0928 -0.5548
17167TIP3   OH272915   1.198   0.569   0.731  0.3152  0.3508 -0.5375
17167TIP3    H172916   1.165   0.479   0.733  0.0019  0.4686 -0.2173
17167TIP3    H272917   1.263   0.570   0.661  0.1609 -0.0708 -0.6872
17168TIP3   OH272918   0.983   5.441   3.213  0.6292 -0.4295 -0.2312
17168TIP3    H172919   0.909   5.405   3.164  0.9039 -0.1924 -0.8279
17168TIP3    H272920   0.963   5.421   3.304  0.6764 -1.9008 -0.5322
17169TIP3   OH272921   3.780   6.056   6.193 -0.1294  0.3033  0.5497
17169TIP3    H172922   3.720   6.031   6.123  1.5352  0.3969 -0.9649
17169TIP3    H272923   3.813   5.973   6.227  1.7109  0.2607 -1.1968
17170TIP3   OH272924   6.581   1.389  14.667  0.0237  0.1282 -0.0457
17170TIP3    H172925   6.526   1.448  14.718 -0.5291 -0.4314  0.0147
17170TIP3    H272926   6.578   1.306  14.715 -0.0078 -0.2260 -0.6567
17171TIP3   OH272927   5.736   4.108  11.323  0.7831  0.2463 -0.0029
17171TIP3    H172928   5.826   4.078  11.317  1.0312  0.8619  0.6625
17171TIP3    H272929   5.735   4.192  11.278  1.0727  1.3877  2.0562
17172TIP3   OH272930   4.843   4.212  16.687  0.5346 -0.2014 -0.0422
17172TIP3    H172931   4.852   4.133  16.740 -1.0443 -0.4618 -0.1193
17172TIP3    H272932   4.834   4.179  16.597 -0.7949  0.0080 -0.0022
17173TIP3   OH272933   5.082   2.804  14.133 -0.4094 -0.5492 -0.1630
17173TIP3    H172934   5.060   2.730  14.077 -0.4973  1.1960 -2.5435
17173TIP3    H272935   5.003   2.858  14.132 -0.8105 -1.0267  2.5966
17174TIP3   OH272936   3.552   5.895   2.759  0.5862 -0.7222 -1.0229
17174TIP3    H172937   3.496   5.829   2.720 -1.4507  0.0882  0.4377
17174TIP3    H272938   3.515   5.910   2.846  2.3357  0.7193 -0.4831
17175TIP3   OH272939   2.626   0.895  16.166 -0.4185 -0.0497  0.0254
17175TIP3    H172940   2.676   0.976  16.176  0.1657 -0.5447  1.2060
17175TIP3    H272941   2.587   0.879  16.252 -1.3781 -0.4768 -0.4792
17176TIP3   OH272942   0.328   5.105  12.560 -0.3746 -0.2764  0.3114
17176TIP3    H172943   0.375   5.138  12.637 -0.6961  0.9695 -0.0140
17176TIP3    H272944   0.237   5.097  12.590 -0.3674 -0.4912  0.2738
17177TIP3   OH272945   6.244   6.336  13.347  0.3787  0.7239  0.1839
17177TIP3    H172946   6.184   6.270  13.311  1.3842  0.7063 -1.5137
17177TIP3    H272947   6.281   6.295  13.425 -0.6378  0.1356  0.3749
17178TIP3   OH272948   3.753   6.382  15.185 -0.0966 -0.3638 -0.0588
17178TIP3    H172949   3.697   6.315  15.147 -0.2745 -0.4836  0.4194
17178TIP3    H272950   3.717   6.465  15.153  1.7970 -0.5769 -2.9848
17179TIP3   OH272951   3.798   3.473   0.075 -0.3170 -0.1728  0.3573
17179TIP3    H172952   3.725   3.478   0.013 -2.4035 -0.4350  2.7172
17179TIP3    H272953   3.783   3.392   0.123  1.7261 -0.3899  0.6584
17180TIP3   OH272954   1.693   1.370  13.653 -0.0208 -0.2449  0.6182
17180TIP3    H172955   1.612   1.387  13.701  1.0197  0.1174  2.2988
17180TIP3    H272956   1.738   1.304  13.705  1.1935  0.2482  0.2150
17181TIP3   OH272957   0.506   2.413  16.915 -0.2809 -0.4868 -0.4434
17181TIP3    H172958   0.420   2.444  16.942 -0.1017  0.0988 -0.5340
17181TIP3    H272959   0.544   2.486  16.867  0.2477 -0.7599 -0.4499
17182TIP3   OH272960   1.010   4.295  14.860 -0.3407  0.3204 -0.1532
17182TIP3    H172961   0.963   4.372  14.895  0.6955  0.1559  1.6676
17182TIP3    H272962   1.011   4.233  14.933  2.3443  0.1506 -0.2876
17183TIP3   OH272963   5.710   6.450  12.141 -0.0182  0.4772 -0.5309
17183TIP3    H172964   5.767   6.523  12.165  0.8621  0.5553 -2.7899
17183TIP3    H272965   5.742   6.376  12.192  1.6248  0.7118 -1.2133
17184TIP3   OH272966   4.448   1.352  16.173  0.6522  0.3368  0.1438
17184TIP3    H172967   4.475   1.260  16.170  0.0132  0.0301  2.3142
17184TIP3    H272968   4.506   1.397  16.111  1.3497 -1.4296 -0.5177
17185TIP3   OH272969   2.678   1.173   5.542 -0.1661 -0.7856 -0.2634
17185TIP3    H172970   2.746   1.201   5.604 -1.7583 -3.1464  2.6508
17185TIP3    H272971   2.724   1.112   5.483  0.5017 -1.5793  1.0475
17186TIP3   OH272972   3.107   4.578  14.436 -0.5818 -0.1453  0.0618
17186TIP3    H172973   3.081   4.643  14.370 -0.2756  0.3983  0.4719
17186TIP3    H272974   3.071   4.496  14.404 -1.7784  0.3867  0.0017
17187TIP3   OH272975   4.742   2.373  13.786  0.2933  0.0543 -0.1060
17187TIP3    H172976   4.748   2.380  13.690  0.5167 -0.2544 -0.1165
17187TIP3    H272977   4.784   2.289  13.806 -0.8947 -0.4913  0.1425
17188TIP3   OH272978   5.100   4.042  12.093 -0.3195 -0.9521  0.0741
17188TIP3    H172979   5.179   4.002  12.058 -0.4997 -1.8246  0.6278
17188TIP3    H272980   5.100   4.131  12.059  0.2422 -1.3430 -0.9550
17189TIP3   OH272981   0.692   4.835   5.015 -0.1906 -0.2309 -0.5664
17189TIP3    H172982   0.669   4.909   5.070 -0.6518  0.0197 -1.0961
17189TIP3    H272983   0.788   4.832   5.019 -0.1993  0.0417 -0.0917
17190TIP3   OH272984   2.206   1.326  16.301  0.4508  0.2542 -0.3018
17190TIP3    H172985   2.275   1.390  16.282  0.8925 -0.6556 -1.8221
17190TIP3    H272986   2.251   1.255  16.347  0.5065 -0.2605 -1.1408
17191TIP3   OH272987   2.263   6.493  11.490  0.2857  0.0541 -0.0591
17191TIP3    H172988   2.222   6.428  11.547  0.4699 -0.3443 -0.3784
17191TIP3    H272989   2.331   6.444  11.443 -1.0530 -0.0599 -1.9387
17192TIP3   OH272990   0.184   0.067   3.171  0.5525  0.3563 -0.0718
17192TIP3    H172991   0.275   0.045   3.192  0.7550  2.1852  1.0858
17192TIP3    H272992   0.140   0.074   3.256 -0.1263  1.6531 -0.5025
17193TIP3   OH272993   2.381   0.860   1.933  0.0846  0.1561 -0.2603
17193TIP3    H172994   2.374   0.887   1.841  0.9624  1.2399 -0.0241
17193TIP3    H272995   2.421   0.773   1.929 -0.8854 -0.2713 -0.9481
17194TIP3   OH272996   0.975   5.272  15.464  0.2733 -0.4413  0.2495
17194TIP3    H172997   0.960   5.271  15.369 -0.4907 -0.1380  0.3654
17194TIP3    H272998   0.892   5.244  15.502  0.7332 -1.0476  0.8175
17195TIP3   OH272999   1.452   5.420  17.205  0.4732 -0.3967 -0.1950
17195TIP3    H173000   1.464   5.508  17.170  0.1420  0.5263  1.9455
17195TIP3    H273001   1.406   5.373  17.135  2.1991  0.6027 -2.0414
17196TIP3   OH273002   1.589   4.572   3.276 -0.4151  0.0808 -0.2285
17196TIP3    H173003   1.581   4.609   3.187 -0.7667  0.1858 -0.1553
17196TIP3    H273004   1.530   4.626   3.329 -0.6238 -0.3313 -0.0389
17197TIP3   OH273005   4.704   4.219   6.800 -0.1178  0.1257  0.4703
17197TIP3    H173006   4.762   4.142   6.791  0.7997  0.7967  0.5339
17197TIP3    H273007   4.752   4.289   6.756 -0.4986  0.8968  1.2838
17198TIP3   OH273008   3.145   4.962   3.431 -0.3652  0.3288  0.2865
17198TIP3    H173009   3.108   4.877   3.406  0.9979 -0.8192  1.9963
17198TIP3    H273010   3.164   5.006   3.349 -2.2094 -0.5169 -0.6197
17199TIP3   OH273011   3.182   6.015   1.627  0.6691 -0.1968 -0.0135
17199TIP3    H173012   3.213   6.059   1.549  0.3055  3.3019  1.7148
17199TIP3    H273013   3.257   6.013   1.686  0.2354 -0.4209  0.5481
17200TIP3   OH273014   5.999   0.203   5.963  0.1787 -0.5486  0.6460
17200TIP3    H173015   5.986   0.147   5.886 -0.3734 -0.0353  0.3623
17200TIP3    H273016   5.911   0.226   5.991  0.4135  0.9438  0.1926
17201TIP3   OH273017   2.947   2.601   0.492 -0.2002  0.5010  0.1607
17201TIP3    H173018   2.881   2.621   0.426  0.2210  0.1487 -0.3765
17201TIP3    H273019   2.978   2.513   0.469  0.1222  0.4742  0.6823
17202TIP3   OH273020   2.299   3.654   1.810 -0.3989  0.0032 -0.1163
17202TIP3    H173021   2.344   3.641   1.727  0.7756 -0.3977  0.5779
17202TIP3    H273022   2.328   3.740   1.841 -0.1625 -0.2242  0.3011
17203TIP3   OH273023   4.078   1.632  11.998  0.4703 -0.6240 -0.1126
17203TIP3    H173024   4.040   1.719  11.997 -0.9339 -1.2259  0.1573
17203TIP3    H273025   4.091   1.610  11.905  1.6360  0.1970 -0.1583
17204TIP3   OH273026   2.220   3.827   4.057 -0.1987 -0.1646 -0.0097
17204TIP3    H173027   2.200   3.896   4.121 -1.6337 -0.8134  0.2667
17204TIP3    H273028   2.190   3.863   3.973 -0.4053 -0.2235  0.0396
17205TIP3   OH273029   2.539   5.288   0.698  0.2304  0.4448 -0.4909
17205TIP3    H173030   2.572   5.293   0.608  1.1691 -0.6160 -0.2130
17205TIP3    H273031   2.545   5.195   0.720  0.0823  0.7153  0.6941
17206TIP3   OH273032   4.899   4.035  11.356 -0.2968  0.4072  0.4281
17206TIP3    H173033   4.959   3.961  11.362 -0.9984 -0.2766 -0.7931
17206TIP3    H273034   4.954   4.109  11.334  0.3255  0.1285  1.0257
17207TIP3   OH273035   3.090   2.311   1.691  0.6256  0.0094 -0.4395
17207TIP3    H173036   3.135   2.274   1.615  1.1271  2.0845 -1.1738
17207TIP3    H273037   2.998   2.317   1.662  0.2883 -1.8310  0.1549
17208TIP3   OH273038   0.186   5.407   2.199  0.1393 -0.1281  0.0765
17208TIP3    H173039   0.163   5.430   2.289 -0.9547 -1.3099  0.1110
17208TIP3    H273040   0.230   5.485   2.165 -1.9105  1.3687  0.7449
17209TIP3   OH273041   2.324   3.021   1.332  0.4328 -0.4559  0.0162
17209TIP3    H173042   2.361   3.109   1.335 -0.2208 -0.1834  0.1865
17209TIP3    H273043   2.265   3.022   1.257  2.0143 -1.3930 -1.2644
17210TIP3   OH273044   6.240   6.526  15.972  0.4068  0.0249 -0.5232
17210TIP3    H173045   6.247   6.435  16.002 -1.6598 -0.2179 -0.7192
17210TIP3    H273046   6.271   6.578  16.046  0.0742 -0.7762  0.1835
17211TIP3   OH273047   3.560   2.728   0.746 -0.5874  0.3566 -0.1127
17211TIP3    H173048   3.615   2.794   0.789  0.6098 -1.0397  0.5315
17211TIP3    H273049   3.480   2.726   0.798 -0.5812  1.2182 -0.0669
17212TIP3   OH273050   5.616   5.000  16.872  0.1220 -0.5690  0.4788
17212TIP3    H173051   5.591   5.052  16.948  0.2749 -0.2395  0.3042
17212TIP3    H273052   5.544   4.939  16.860 -1.9125  2.1342 -1.6574
17213TIP3   OH273053   4.283   4.724  13.159  0.8774  0.2477 -0.0797
17213TIP3    H173054   4.211   4.713  13.097  0.3768 -0.7696  0.6808
17213TIP3    H273055   4.265   4.809  13.201 -0.1307 -0.2086  0.4272
17214TIP3   OH273056   5.637   6.149   3.264  0.3159 -0.3921 -0.2966
17214TIP3    H173057   5.626   6.055   3.255 -0.7934 -0.4008  1.0156
17214TIP3    H273058   5.698   6.160   3.337 -1.9709 -0.0536  1.6073
17215TIP3   OH273059   1.645   5.938  16.951 -0.2316  0.4481 -0.5084
17215TIP3    H173060   1.671   5.986  16.872  0.9879  1.3003  0.4042
17215TIP3    H273061   1.609   6.005  17.009  2.4065  0.4525  1.1864
17216TIP3   OH273062   6.492   2.600  15.339 -0.1285  0.4460  0.7277
17216TIP3    H173063   6.470   2.514  15.304  0.9858 -1.3413  4.1393
17216TIP3    H273064   6.408   2.637  15.367 -0.4709 -0.1059  0.4432
17217TIP3   OH273065   2.492   0.872   0.735 -0.3135  0.1047 -0.1648
17217TIP3    H173066   2.553   0.814   0.781 -0.9015 -0.1795  0.2737
17217TIP3    H273067   2.489   0.951   0.788 -0.0517  0.2588 -0.3801
17218TIP3   OH273068   6.018   0.092   1.674 -0.4817 -0.3571  0.1687
17218TIP3    H173069   5.975   0.111   1.591 -0.3700 -0.8019  0.0041
17218TIP3    H273070   6.055   0.004   1.662 -0.7276 -0.5505  0.7884
17219TIP3   OH273071   2.331   1.204   1.046 -0.3832 -0.2445  0.2046
17219TIP3    H173072   2.344   1.133   0.983 -0.4513 -0.7926  0.8006
17219TIP3    H273073   2.414   1.250   1.049  0.0142 -0.9881  0.6508
17220TIP3   OH273074   2.282   2.417   3.771 -0.1662  0.2689  0.1171
17220TIP3    H173075   2.368   2.445   3.804  0.2829 -0.6242 -0.2726
17220TIP3    H273076   2.221   2.437   3.842  0.1719  2.0034 -0.0457
17221TIP3   OH273077   6.536   0.570   5.492 -0.0140 -0.1194  0.2047
17221TIP3    H173078   6.627   0.599   5.486 -0.4086  1.0669 -0.2660
17221TIP3    H273079   6.534   0.511   5.567  0.8354  1.0579  1.1645
17222TIP3   OH273080   3.228   3.990   2.085 -0.1366  0.4901  0.0443
17222TIP3    H173081   3.217   4.012   1.992  0.2457  1.4059  0.2039
17222TIP3    H273082   3.145   4.015   2.126 -0.0927  0.6388  0.0439
17223TIP3   OH273083   0.584   6.038  12.794  0.1864 -0.4440  0.0051
17223TIP3    H173084   0.594   6.106  12.862 -1.3865 -1.4123  1.2244
17223TIP3    H273085   0.606   5.956  12.838 -0.8900 -1.0939 -0.6363
17224TIP3   OH273086   2.958   0.871  16.222 -0.3360  0.5101 -0.1957
17224TIP3    H173087   2.988   0.798  16.168 -0.3924  0.8568 -0.7021
17224TIP3    H273088   2.870   0.846  16.251 -1.0060  1.0700 -1.6928
17225TIP3   OH273089   3.904   4.872  17.191 -0.2815  0.1399 -0.0993
17225TIP3    H173090   3.811   4.890  17.204 -0.1976 -0.0288  0.7653
17225TIP3    H273091   3.907   4.819  17.112 -0.7657  1.6161 -1.1258
17226TIP3   OH273092   4.910   3.668   0.509 -0.7284  0.0668  0.0385
17226TIP3    H173093   4.901   3.590   0.563  1.0623 -0.2360 -0.0691
17226TIP3    H273094   4.961   3.729   0.563 -2.3782  1.3145  0.2518
17227TIP3   OH273095   1.966   5.770  16.852  0.0745  0.3154  0.4221
17227TIP3    H173096   1.900   5.702  16.864  0.1434  0.4725  1.7694
17227TIP3    H273097   2.036   5.727  16.803  0.7288 -1.0026  2.4440
17228TIP3   OH273098   0.900   4.971  16.271 -0.3808  0.1171  0.5987
17228TIP3    H173099   0.968   5.020  16.316 -0.9775  2.2760 -0.8004
17228TIP3    H273100   0.932   4.880  16.271  2.2878  1.0133  0.3584
17229TIP3   OH273101   4.577   4.146  14.128  0.5199  0.6764  0.2733
17229TIP3    H173102   4.592   4.089  14.203 -3.0885  0.6945  1.0904
17229TIP3    H273103   4.662   4.188  14.113  1.9901 -1.2940  2.6677
17230TIP3   OH273104   3.975   2.527   0.607 -0.7311  0.5239  0.1447
17230TIP3    H173105   3.993   2.476   0.528 -2.9466  0.2163 -0.1926
17230TIP3    H273106   4.045   2.503   0.667  0.2070 -0.2910 -1.2433
17231TIP3   OH273107   6.622   6.193   3.429 -0.0157  0.3242 -0.7335
17231TIP3    H173108   6.659   6.117   3.385  0.2139  0.6911 -1.1726
17231TIP3    H273109   6.556   6.157   3.488  0.8842 -0.3023 -0.1126
17232TIP3   OH273110   2.247   5.864  16.795 -0.0057  0.1260 -0.7097
17232TIP3    H173111   2.318   5.927  16.810  1.2271 -0.7315 -2.6850
17232TIP3    H273112   2.167   5.914  16.808  0.9626  1.7404 -0.8602
17233TIP3   OH273113   3.218   3.104  10.855 -0.4929  0.5248 -0.1412
17233TIP3    H173114   3.302   3.138  10.822  1.1467 -2.0906  1.1395
17233TIP3    H273115   3.220   3.123  10.949 -1.5313  0.8413 -0.1844
17234TIP3   OH273116   2.483   0.853  14.411 -0.3891 -0.0842 -0.1572
17234TIP3    H173117   2.400   0.847  14.459  0.6106 -1.9965  1.4285
17234TIP3    H273118   2.547   0.880  14.477  0.5123 -0.0766 -1.0334
17235TIP3   OH273119   5.464   2.429   0.501  0.0592  0.4600 -0.2469
17235TIP3    H173120   5.545   2.441   0.451  0.2833  1.4567  0.3524
17235TIP3    H273121   5.413   2.508   0.483 -0.8059 -0.1857 -0.6533
17236TIP3   OH273122   2.767   1.215   0.618  1.0344  0.0693  0.1956
17236TIP3    H173123   2.807   1.302   0.613 -0.1572  0.5263 -1.7685
17236TIP3    H273124   2.685   1.223   0.571  0.3057 -1.8164  1.0710
17237TIP3   OH273125   2.334   4.142   3.893 -0.1767 -0.2757  0.5076
17237TIP3    H173126   2.287   4.064   3.863  0.5196  1.0090 -4.4501
17237TIP3    H273127   2.281   4.215   3.863  1.9019  1.1509  0.1910
17238TIP3   OH273128   6.519   4.107   2.739  0.5901  0.1373  0.1882
17238TIP3    H173129   6.561   4.133   2.821  2.2090  0.6485 -0.7773
17238TIP3    H273130   6.458   4.178   2.719  0.4386  0.1722  0.7776
17239TIP3   OH273131   4.762   0.908   1.420  0.5059 -0.1131 -0.5365
17239TIP3    H173132   4.752   0.892   1.326  0.6790 -0.8543 -0.4320
17239TIP3    H273133   4.792   0.999   1.426 -0.2764  0.1980 -1.1539
17240TIP3   OH273134   0.211   1.775   6.396 -0.7442  0.1421  0.4997
17240TIP3    H173135   0.182   1.865   6.380 -0.5142  0.2801  0.8521
17240TIP3    H273136   0.234   1.773   6.489  1.7733  0.4436 -0.0828
17241TIP3   OH273137   5.325   4.530  11.237  0.3514  0.3478 -0.2546
17241TIP3    H173138   5.322   4.441  11.202 -0.6167  0.2344  0.0997
17241TIP3    H273139   5.374   4.522  11.318 -0.3329  0.0036  0.1312
17242TIP3   OH273140   3.904   0.174  12.256 -0.3113 -0.4987  0.5576
17242TIP3    H173141   3.880   0.195  12.166 -1.2220 -1.1591  0.6407
17242TIP3    H273142   3.908   0.078  12.258  2.3298 -0.4346  0.5514
17243TIP3   OH273143   1.599   0.376   5.924  0.3702  0.4947  0.1587
17243TIP3    H173144   1.659   0.441   5.959  2.0341 -0.1525 -1.4029
17243TIP3    H273145   1.588   0.312   5.994 -0.0329  1.6238  1.1339
17244TIP3   OH273146   1.755   2.357   4.688  0.6507  0.3603 -0.3715
17244TIP3    H173147   1.759   2.389   4.598  2.8562 -1.5608 -1.0299
17244TIP3    H273148   1.666   2.325   4.699  0.0512  1.6306 -1.5142
17245TIP3   OH273149   5.573   6.484  11.675 -0.5783  0.2925 -0.0037
17245TIP3    H173150   5.650   6.537  11.696 -1.0756  0.6505  0.9584
17245TIP3    H273151   5.532   6.528  11.600 -0.5407  0.8155  0.2806
17246TIP3   OH273152   1.447   4.976  16.416  0.2837 -0.2050  0.3231
17246TIP3    H173153   1.379   4.944  16.356  0.9211 -1.9151  0.4783
17246TIP3    H273154   1.421   5.066  16.437 -2.3638 -1.0844  0.9830
17247TIP3   OH273155   0.166   4.819  13.881  0.2530 -0.5997 -0.3846
17247TIP3    H173156   0.137   4.892  13.826 -0.3923  1.1317  2.1910
17247TIP3    H273157   0.096   4.754  13.873 -0.1258 -0.1154 -1.0929
17248TIP3   OH273158   5.159   5.803  11.027  0.1821 -0.0606  0.8092
17248TIP3    H173159   5.103   5.879  11.006  0.6979  0.5553  1.6636
17248TIP3    H273160   5.142   5.786  11.119 -0.3184 -1.3224  0.4917
17249TIP3   OH273161   0.214   5.448   0.806  0.0793  0.6383 -0.1538
17249TIP3    H173162   0.289   5.389   0.813 -0.5490 -0.2169 -0.5912
17249TIP3    H273163   0.140   5.398   0.840 -1.0589 -0.0032 -3.3839
17250TIP3   OH273164   4.080   1.750  13.589  0.0806  0.2176 -0.2258
17250TIP3    H173165   4.170   1.785  13.582  0.3215 -0.7301 -2.0479
17250TIP3    H273166   4.046   1.753  13.499 -0.6983 -2.1147 -0.0273
17251TIP3   OH273167   1.025   4.225  11.030  0.4373 -0.1524 -0.2131
17251TIP3    H173168   0.983   4.178  11.102  0.5928 -0.5327 -0.3690
17251TIP3    H273169   1.090   4.164  10.997  0.5373  0.1188 -0.5163
17252TIP3   OH273170   0.946   1.461   0.124 -0.4411 -0.4220 -0.7614
17252TIP3    H173171   0.970   1.541   0.171 -1.9140 -0.5430  0.2453
17252TIP3    H273172   0.915   1.402   0.193  0.8280 -1.9486 -1.4682
17253TIP3   OH273173   1.837   5.045   1.059 -0.5395  0.9750 -0.4887
17253TIP3    H173174   1.767   5.097   1.097 -1.1531 -0.0193 -0.2380
17253TIP3    H273175   1.805   4.955   1.064  0.3074  0.6224 -1.3443
17254TIP3   OH273176   4.670   6.524  11.696  0.1583 -0.1838 -0.7481
17254TIP3    H173177   4.619   6.444  11.694 -0.7541  0.4059 -2.6374
17254TIP3    H273178   4.749   6.504  11.646  0.6110 -0.3270  0.0098
17255TIP3   OH273179   2.529   1.668  13.455  0.1276  0.1073 -0.2665
17255TIP3    H173180   2.486   1.717  13.385  0.5033 -0.3459 -0.8107
17255TIP3    H273181   2.598   1.618  13.412  0.1830 -0.3890  0.3824
17256TIP3   OH273182   2.160   0.581  13.538  0.0338 -1.0589  0.0360
17256TIP3    H173183   2.205   0.522  13.478 -0.6804 -0.3091 -1.2630
17256TIP3    H273184   2.072   0.591  13.501 -0.6732 -1.1765  1.6180
17257TIP3   OH273185   1.366   4.249  14.667 -0.7912  0.0330  0.0150
17257TIP3    H173186   1.323   4.165  14.684  0.5312 -0.2520  2.1976
17257TIP3    H273187   1.420   4.264  14.745 -1.5470  3.2376 -0.0079
17258TIP3   OH273188   5.478   4.082   5.974 -0.0483  0.3946 -0.2431
17258TIP3    H173189   5.425   4.038   6.041 -1.0264  1.7114 -0.1224
17258TIP3    H273190   5.541   4.135   6.023  0.8689 -0.5559 -0.3846
17259TIP3   OH273191   3.211   5.302   3.469 -0.1824  0.2182  0.1132
17259TIP3    H173192   3.195   5.230   3.530 -0.0275  0.2424  0.1841
17259TIP3    H273193   3.156   5.373   3.501 -1.0212 -0.1524 -0.4819
17260TIP3   OH273194   0.235   0.575  14.827  0.6367 -0.1140 -0.2569
17260TIP3    H173195   0.177   0.504  14.854  0.6757  0.3349  1.0577
17260TIP3    H273196   0.260   0.618  14.909 -0.5846  2.3435 -1.1303
17261TIP3   OH273197   2.925   3.006   5.520 -0.5140  0.0908 -0.0632
17261TIP3    H173198   2.884   2.950   5.586  0.1957 -1.0219 -0.5665
17261TIP3    H273199   2.883   2.982   5.438 -1.6372  1.7185  0.0175
17262TIP3   OH273200   4.434   2.378   4.210  0.9081 -0.3262 -0.1604
17262TIP3    H173201   4.438   2.341   4.298 -0.9945  0.3808  0.2615
17262TIP3    H273202   4.524   2.376   4.179  1.5958 -0.6754  1.7731
17263TIP3   OH273203   5.048   1.262  11.898  0.2462  0.1433 -0.3061
17263TIP3    H173204   5.040   1.211  11.978 -0.6383 -0.2444 -0.6340
17263TIP3    H273205   5.014   1.204  11.829 -0.4046  1.0238 -0.7349
17264TIP3   OH273206   3.537   3.246  14.148 -0.7065  0.2005 -0.1538
17264TIP3    H173207   3.458   3.195  14.161  0.0050 -0.4261  1.9200
17264TIP3    H273208   3.594   3.189  14.097 -1.0270  0.0711 -0.3666
17265TIP3   OH273209   1.065   2.514  14.115  0.1763 -0.0333  0.5776
17265TIP3    H173210   1.133   2.477  14.171 -0.4857  0.1477  1.5195
17265TIP3    H273211   1.006   2.440  14.096 -1.4965  0.6328  2.9814
17266TIP3   OH273212   0.626   6.548   4.403 -0.6186  0.1956 -0.0623
17266TIP3    H173213   0.548   6.551   4.459 -0.6356 -0.3418 -0.0597
17266TIP3    H273214   0.637   6.456   4.382 -0.4906  0.3693 -0.7781
17267TIP3   OH273215   4.374   1.485   2.147  0.0920 -0.4359 -0.4526
17267TIP3    H173216   4.442   1.515   2.087 -0.0141  1.0112  0.1470
17267TIP3    H273217   4.310   1.556   2.150  0.1208 -0.4595  1.4256
17268TIP3   OH273218   0.281   1.769   2.014  0.7904 -0.4119 -0.0688
17268TIP3    H173219   0.331   1.778   1.933  1.1869  2.5914  0.4771
17268TIP3    H273220   0.347   1.767   2.083  0.2922  0.5451  0.4391
17269TIP3   OH273221   4.644   5.877  11.755  0.1239 -0.1082  0.9164
17269TIP3    H173222   4.657   5.955  11.809 -1.9513  0.8771  0.0398
17269TIP3    H273223   4.688   5.807  11.803  0.8941  1.3403  2.3680
17270TIP3   OH273224   6.545   3.121  13.165  0.4592 -0.3405 -0.0634
17270TIP3    H173225   6.455   3.143  13.144  0.8184  0.3344 -0.9270
17270TIP3    H273226   6.568   3.050  13.105  0.1443 -1.3318  0.9483
17271TIP3   OH273227   4.206   6.300  16.531 -0.1871  0.0511  0.5638
17271TIP3    H173228   4.260   6.250  16.469 -0.2490 -0.9527  1.3104
17271TIP3    H273229   4.221   6.391  16.507 -1.1560 -0.3551 -1.7259
17272TIP3   OH273230   5.557   5.098   0.220 -0.5332 -0.3473  0.6363
17272TIP3    H173231   5.613   5.020   0.224 -0.4503 -0.2569  1.2865
17272TIP3    H273232   5.616   5.168   0.193 -0.6660 -0.5594 -0.2212
17273TIP3   OH273233   2.829   0.800   5.728 -0.7826  0.5137  0.8710
17273TIP3    H173234   2.790   0.715   5.750 -2.5182  0.7824 -1.0243
17273TIP3    H273235   2.893   0.780   5.661  1.4826  0.2580  3.0280
17274TIP3   OH273236   0.673   4.975   4.289 -0.8074 -0.1707 -0.3502
17274TIP3    H173237   0.708   5.022   4.213  1.4275  1.4381  1.5974
17274TIP3    H273238   0.715   4.889   4.286  0.7622  0.5714  0.1178
17275TIP3   OH273239   1.941   2.893  15.693  0.0091 -0.3655  0.5855
17275TIP3    H173240   1.895   2.900  15.777  1.7808  0.2131  1.5377
17275TIP3    H273241   1.989   2.810  15.699  2.1445  0.8680  1.2132
17276TIP3   OH273242   1.453   2.369   2.682  0.2298 -0.4691  0.2393
17276TIP3    H173243   1.545   2.373   2.710 -0.0373  1.2428  0.9433
17276TIP3    H273244   1.451   2.302   2.614  1.8059 -1.2677  0.9557
17277TIP3   OH273245   2.866   6.520   5.272  0.3004  0.6061  0.8163
17277TIP3    H173246   2.797   6.510   5.337  1.5144 -0.2218  2.0145
17277TIP3    H273247   2.877   6.615   5.262 -1.5424  0.7490  0.0054
17278TIP3   OH273248   4.162   0.895   0.798 -0.1467  0.4945 -0.1284
17278TIP3    H173249   4.255   0.914   0.812 -0.7032  1.8650  1.9137
17278TIP3    H273250   4.144   0.925   0.709  1.5877 -0.7154 -0.9052
17279TIP3   OH273251   5.862   2.173   0.333 -0.2144  0.0009  0.4127
17279TIP3    H173252   5.819   2.091   0.310  1.5590 -0.9158  0.3010
17279TIP3    H273253   5.933   2.182   0.269 -0.8560  2.0296 -0.0778
17280TIP3   OH273254   1.072   1.856  12.414  0.3314  0.2165 -0.3642
17280TIP3    H173255   1.009   1.801  12.368  1.5200 -0.8723 -0.7430
17280TIP3    H273256   1.046   1.853  12.506  0.2073 -0.7269 -0.4324
17281TIP3   OH273257   1.839   0.842  11.153  0.6545 -0.5037 -0.4390
17281TIP3    H173258   1.838   0.767  11.093  2.1278  0.1186 -1.2515
17281TIP3    H273259   1.808   0.805  11.236  1.3373 -2.0242 -0.8269
17282TIP3   OH273260   0.823   0.671   4.042 -0.0174 -0.1500  0.7379
17282TIP3    H173261   0.793   0.580   4.053 -1.3783  0.2089  0.0220
17282TIP3    H273262   0.825   0.706   4.131 -0.0241 -0.7006  0.9622
17283TIP3   OH273263   0.985   2.331  13.895 -0.2140  0.1362 -0.0240
17283TIP3    H173264   0.945   2.284  13.821  0.3122  0.3432 -0.4401
17283TIP3    H273265   1.069   2.362  13.861 -0.4371  1.1398  0.3390
17284TIP3   OH273266   1.825   2.858  14.827  0.5242 -0.1529 -0.6506
17284TIP3    H173267   1.822   2.895  14.915 -0.9462 -0.2426 -0.6527
17284TIP3    H273268   1.911   2.884  14.792  0.4645  1.2084  0.2190
17285TIP3   OH273269   3.269   0.086  16.843  0.1706 -0.1742  0.2598
17285TIP3    H173270   3.292   0.127  16.926 -1.0907 -0.5419  0.8094
17285TIP3    H273271   3.218   0.153  16.797  0.8822  0.0352 -0.2314
17286TIP3   OH273272   1.770   5.303  16.679  0.1379 -0.1033 -0.4264
17286TIP3    H173273   1.819   5.344  16.751 -0.7064 -0.8807  0.6084
17286TIP3    H273274   1.703   5.249  16.723 -0.6537 -0.2611 -1.8031
17287TIP3   OH273275   1.015   2.997  11.253 -0.0436 -0.5997 -0.3592
17287TIP3    H173276   1.069   3.075  11.265  1.8014 -1.7334 -0.9578
17287TIP3    H273277   0.951   3.022  11.186  0.7321  0.2975 -0.7784
17288TIP3   OH273278   3.958   5.035  13.235 -0.2988 -0.3073  0.6422
17288TIP3    H173279   3.892   5.051  13.168 -3.1182 -2.2431  2.8465
17288TIP3    H273280   3.978   5.122  13.270 -2.1882  0.2656  0.3870
17289TIP3   OH273281   2.658   2.624  14.283 -0.3926  0.4028 -0.0319
17289TIP3    H173282   2.714   2.692  14.246 -0.4305  0.8717  0.7434
17289TIP3    H273283   2.643   2.653  14.374  0.1324 -0.9681  0.5048
17290TIP3   OH273284   1.965   0.122   4.468  0.5652  0.3888 -0.3027
17290TIP3    H173285   1.965   0.179   4.391  3.0171 -0.9974 -1.3754
17290TIP3    H273286   1.903   0.053   4.447 -0.1710  1.0185 -0.2348
17291TIP3   OH273287   2.102   4.151   3.127  0.5295  0.1988 -0.5018
17291TIP3    H173288   2.039   4.107   3.183  1.2290 -0.5224 -0.2738
17291TIP3    H273289   2.078   4.244   3.132 -1.9641 -0.3255 -2.3017
17292TIP3   OH273290   3.943   2.410  11.524 -0.3802  0.4914 -0.4513
17292TIP3    H173291   4.024   2.367  11.552 -0.2881 -0.6269 -2.3831
17292TIP3    H273292   3.892   2.341  11.483 -2.4615  1.1302  0.9704
17293TIP3   OH273293   6.101   2.218   3.169 -0.5978  0.4835  0.2068
17293TIP3    H173294   6.071   2.305   3.195  1.8697  1.2319  0.6476
17293TIP3    H273295   6.157   2.234   3.093 -0.6270 -0.7789 -0.0818
17294TIP3   OH273296   4.435   6.012  10.815 -0.6761  0.0932  0.3104
17294TIP3    H173297   4.426   6.104  10.788  0.4431  0.4947  1.2306
17294TIP3    H273298   4.366   5.966  10.768 -0.9106  1.3258 -0.5779
17295TIP3   OH273299   3.023   4.167  13.438 -0.3988  0.1669 -0.1651
17295TIP3    H173300   2.971   4.087  13.424 -0.9476  0.6084 -0.6508
17295TIP3    H273301   3.031   4.206  13.351  0.0603  0.5273  0.0373
17296TIP3   OH273302   6.013   4.289  11.977 -0.4317  0.0917  0.0196
17296TIP3    H173303   5.982   4.373  12.010 -1.6891 -0.5162  0.4236
17296TIP3    H273304   6.087   4.266  12.033 -0.5476  0.5753  0.3694
17297TIP3   OH273305   6.676   5.004  10.861  0.3546  0.3921 -0.0496
17297TIP3    H173306   6.768   5.029  10.873 -0.0036  1.8754 -0.3906
17297TIP3    H273307   6.644   4.987  10.950  0.7848  0.4768  0.1244
17298TIP3   OH273308   6.753   6.419   3.460 -0.0528 -0.5914  0.4725
17298TIP3    H173309   6.741   6.467   3.377 -1.0705  0.9739  1.4969
17298TIP3    H273310   6.696   6.342   3.451  1.2517 -1.4083 -1.0108
17299TIP3   OH273311   3.713   3.591   5.652 -0.0577  0.5783 -0.0690
17299TIP3    H173312   3.722   3.653   5.725  0.1240  0.4022  0.0589
17299TIP3    H273313   3.729   3.505   5.692 -0.5178  0.4324 -0.2036
17300TIP3   OH273314   5.419   0.683   1.409  0.4137 -0.3379 -0.2619
17300TIP3    H173315   5.374   0.599   1.398  0.6157 -0.4403 -0.3208
17300TIP3    H273316   5.354   0.740   1.449  0.3518 -0.5942  0.0047
17301TIP3   OH273317   6.013   2.151   1.142  0.1011 -0.1249  0.2966
17301TIP3    H173318   5.981   2.240   1.127 -1.0447 -0.5195  0.3648
17301TIP3    H273319   5.958   2.117   1.212 -1.6564 -2.0014 -1.8909
17302TIP3   OH273320   0.144   6.643  14.618  0.0702  0.5119  0.0501
17302TIP3    H173321   0.151   6.566  14.562  0.1215 -0.1217  0.9211
17302TIP3    H273322   0.104   6.610  14.698 -0.2106  1.4598  0.2997
17303TIP3   OH273323   6.754   3.462   0.019 -0.0127 -0.0611  0.0853
17303TIP3    H173324   6.804   3.477   0.100 -1.3379 -1.6576  1.2317
17303TIP3    H273325   6.762   3.545  -0.029  1.6299  0.5735  1.3700
17304TIP3   OH273326   5.314   4.212  15.944  0.7157  0.3826  0.1333
17304TIP3    H173327   5.242   4.224  16.006  1.8175  1.1856  1.2711
17304TIP3    H273328   5.393   4.213  15.998  1.5895 -0.6236 -1.0843
17305TIP3   OH273329   0.768   2.143  12.438 -0.6258  0.2932 -0.4924
17305TIP3    H173330   0.696   2.141  12.375 -1.2969  1.6815  0.2110
17305TIP3    H273331   0.844   2.173  12.387 -0.7963 -0.1064 -0.9856
17306TIP3   OH273332   2.923   1.956  15.441 -0.0561 -0.7598  0.2283
17306TIP3    H173333   2.928   2.001  15.526  0.7731 -1.2289  0.4339
17306TIP3    H273334   2.951   1.867  15.460  1.8588 -0.4090 -0.8681
17307TIP3   OH273335   2.723   3.975  13.268  0.2442  0.2912  0.0812
17307TIP3    H173336   2.809   3.945  13.299 -0.2257  1.1377  2.3346
17307TIP3    H273337   2.672   3.987  13.349 -1.6923  0.7022 -1.1768
17308TIP3   OH273338   1.140   3.599  13.200 -0.3702 -0.3032 -0.2231
17308TIP3    H173339   1.070   3.591  13.135 -0.2599 -0.2892 -0.3456
17308TIP3    H273340   1.162   3.509  13.222  2.5814 -0.4858 -3.4302
17309TIP3   OH273341   0.223   4.993   5.478 -0.5535  0.2410  0.4520
17309TIP3    H173342   0.183   5.057   5.418 -0.2640 -1.2101 -1.3689
17309TIP3    H273343   0.313   5.022   5.488 -1.2112  1.8001  2.0889
17310TIP3   OH273344   1.864   4.240   3.503  0.2409  0.3759 -0.4070
17310TIP3    H173345   1.883   4.208   3.591 -1.9927  0.0438 -0.0016
17310TIP3    H273346   1.914   4.321   3.495  0.3790  0.4701  1.2172
17311TIP3   OH273347   6.258   2.957  13.161 -0.6116  0.6665 -0.4959
17311TIP3    H173348   6.307   2.898  13.219 -0.4897  2.7321  1.5891
17311TIP3    H273349   6.208   2.898  13.104  0.6987 -1.4482  0.4439
17312TIP3   OH273350   3.466   2.053  12.972 -0.3815 -0.2531 -0.8834
17312TIP3    H173351   3.538   2.056  13.035  0.6411 -1.6382 -1.9468
17312TIP3    H273352   3.481   2.128  12.915  0.2860 -0.6114 -1.1801
17313TIP3   OH273353   1.144   2.703  17.033  0.0383  0.6853  0.4161
17313TIP3    H173354   1.157   2.767  17.102  0.9329 -1.9028  2.7670
17313TIP3    H273355   1.185   2.741  16.955  0.8511  2.7360  1.8230
17314TIP3   OH273356   1.735   2.628   1.248  0.6130  0.1366 -0.3925
17314TIP3    H173357   1.688   2.664   1.173  1.1630 -1.9869 -1.8186
17314TIP3    H273358   1.728   2.696   1.316 -0.4919  1.8079 -2.1121
17315TIP3   OH273359   1.779   3.145  13.019 -0.7355 -0.1967 -0.3931
17315TIP3    H173360   1.789   3.173  12.928 -2.3941 -1.1208 -0.8719
17315TIP3    H273361   1.848   3.079  13.031 -0.3063  0.1566 -0.8700
17316TIP3   OH273362   4.775   5.335   3.160 -0.1403 -0.5354 -0.1822
17316TIP3    H173363   4.844   5.272   3.138 -0.9558 -1.0497 -1.2834
17316TIP3    H273364   4.693   5.289   3.139 -0.7192  1.1851 -1.7436
17317TIP3   OH273365   0.482   1.776  13.557 -0.2664  0.3663  0.8097
17317TIP3    H173366   0.472   1.820  13.642  1.9264  0.2624  1.1368
17317TIP3    H273367   0.473   1.683  13.576 -3.0752  0.5058  0.3934
17318TIP3   OH273368   3.671   6.712  15.699 -0.2210  0.3561  0.0033
17318TIP3    H173369   3.699   6.692  15.610 -1.4709  1.1658 -0.5843
17318TIP3    H273370   3.746   6.755  15.740  0.4526 -0.2812 -0.5632
17319TIP3   OH273371   1.667   2.967  16.282  0.6338  0.0784 -0.6006
17319TIP3    H173372   1.755   2.935  16.261  0.1326 -2.8039  1.3951
17319TIP3    H273373   1.609   2.898  16.249 -0.7691  1.0391 -0.1576
17320TIP3   OH273374   5.305   1.871  11.064  0.3856 -0.5997 -0.0374
17320TIP3    H173375   5.363   1.798  11.041  2.9689  1.0209  1.0552
17320TIP3    H273376   5.337   1.945  11.012 -1.1026  0.2019  0.1395
17321TIP3   OH273377   5.263   0.543  13.436 -0.0619 -0.1899 -0.6066
17321TIP3    H173378   5.279   0.494  13.516 -1.6069 -0.7573 -0.6282
17321TIP3    H273379   5.292   0.632  13.456 -2.0101  0.0861  1.1732
17322TIP3   OH273380   4.998   1.186   0.645  1.1617  0.2553 -0.2380
17322TIP3    H173381   4.995   1.276   0.612  0.4702  0.1835 -0.3881
17322TIP3    H273382   5.085   1.155   0.620  0.4543  0.0183 -2.5273
17323TIP3   OH273383   4.468   0.478  14.822 -0.1656 -0.2724 -0.8319
17323TIP3    H173384   4.380   0.508  14.798  0.0444 -0.4053 -1.7810
17323TIP3    H273385   4.518   0.483  14.741  0.7444 -0.0649 -0.2637
17324TIP3   OH273386   6.120   5.067   2.995 -0.3173  0.3135  0.2091
17324TIP3    H173387   6.052   4.999   2.988 -0.3000  0.5162 -3.1961
17324TIP3    H273388   6.111   5.116   2.913  2.3319  1.8920  0.8359
17325TIP3   OH273389   3.491   1.233   1.065 -0.1951  0.6351  0.3707
17325TIP3    H173390   3.397   1.244   1.051 -0.1007  1.3583  0.2702
17325TIP3    H273391   3.525   1.205   0.980 -0.1807  1.3406  0.1364
17326TIP3   OH273392   5.746   6.444  17.130  0.4116 -1.2252 -0.4985
17326TIP3    H173393   5.798   6.446  17.210 -1.3056 -1.1167  0.6340
17326TIP3    H273394   5.697   6.362  17.135 -1.5646 -0.0452 -0.2310
17327TIP3   OH273395   1.067   2.120  16.861 -0.0003 -0.4366  0.0843
17327TIP3    H173396   1.138   2.183  16.846  1.2427 -1.2977  2.0451
17327TIP3    H273397   1.056   2.120  16.956 -2.4818 -0.5175 -0.1920
17328TIP3   OH273398   4.494   1.460   1.713 -0.3465 -0.2162  0.0802
17328TIP3    H173399   4.489   1.369   1.685  0.9012 -0.5838  1.0283
17328TIP3    H273400   4.542   1.457   1.795  1.6469  1.5300 -0.9859
17329TIP3   OH273401   1.361   0.923   3.772  0.6313  0.5510  0.0224
17329TIP3    H173402   1.438   0.945   3.825  0.1306  0.6206  0.7115
17329TIP3    H273403   1.383   0.957   3.685  2.1097 -0.9382 -0.2211
17330TIP3   OH273404   5.332   3.224  12.995  0.2234 -0.4706 -0.2230
17330TIP3    H173405   5.340   3.131  12.975  2.5814 -0.6036  1.2268
17330TIP3    H273406   5.369   3.268  12.918  0.6776 -0.7788 -0.1834
17331TIP3   OH273407   3.382   2.002   1.276 -0.0756 -0.2609 -0.7207
17331TIP3    H173408   3.455   1.941   1.270 -0.5049 -0.9777  1.0060
17331TIP3    H273409   3.383   2.048   1.192  1.2999 -1.4375 -1.3879
17332TIP3   OH273410   5.099   5.415  13.961 -0.0788  0.2873  0.6335
17332TIP3    H173411   5.074   5.408  13.869 -0.2635  0.0881  0.6960
17332TIP3    H273412   5.087   5.326  13.995 -1.0464  0.5974  1.1081
17333TIP3   OH273413   1.684   1.083  13.184 -0.1128  1.0745  0.3787
17333TIP3    H173414   1.779   1.091  13.181  0.0503  0.5459  2.9714
17333TIP3    H273415   1.654   1.169  13.216 -0.3326  0.5717  1.5591
17334TIP3   OH273416   2.948   3.783   0.433 -0.1666 -0.2802 -0.0141
17334TIP3    H173417   2.986   3.723   0.498  0.4002  1.3325  1.1536
17334TIP3    H273418   2.854   3.769   0.441 -0.1437  0.3202  1.5839
17335TIP3   OH273419   1.927   0.363   2.141 -0.2516 -0.2750 -0.1965
17335TIP3    H173420   1.881   0.284   2.168 -0.5356 -0.7397 -1.9857
17335TIP3    H273421   2.002   0.331   2.090 -0.1319  0.6058 -0.5782
17336TIP3   OH273422   3.992   0.584   5.679  0.8688  0.2053 -0.0262
17336TIP3    H173423   4.041   0.513   5.721  0.6395  0.2602  0.3326
17336TIP3    H273424   3.993   0.656   5.742  1.2584  0.5889 -0.4656
17337TIP3   OH273425   6.242   1.162   6.251 -0.0075 -0.2596 -0.0807
17337TIP3    H173426   6.306   1.152   6.321 -2.1738  1.0928  2.1413
17337TIP3    H273427   6.256   1.084   6.196  2.7221 -0.5815  0.9719
17338TIP3   OH273428   2.662   4.121  15.624 -0.1648  0.0036  0.0496
17338TIP3    H173429   2.644   4.076  15.706 -2.8914  1.5908  0.3705
17338TIP3    H273430   2.604   4.079  15.560 -0.4781  0.9732 -0.3195
17339TIP3   OH273431   5.003   4.613  14.849  0.1196  0.5591 -0.0237
17339TIP3    H173432   5.086   4.655  14.825 -0.0424  1.4968  1.0015
17339TIP3    H273433   4.937   4.681  14.837 -0.3215  0.2187  0.4347
17340TIP3   OH273434   4.440   0.492   0.074 -0.7975 -0.3643  0.3625
17340TIP3    H173435   4.346   0.479   0.088 -0.7019 -0.4979  0.8920
17340TIP3    H273436   4.458   0.577   0.113 -0.2792 -1.3147  2.2489
17341TIP3   OH273437   5.015   0.582  14.459 -0.3786 -0.0229  0.0759
17341TIP3    H173438   5.082   0.616  14.399  1.0334 -1.2472  0.9208
17341TIP3    H273439   4.935   0.627  14.433 -0.0875 -1.3676 -3.5498
17342TIP3   OH273440   4.464   1.783  13.870 -0.6269  0.5528 -0.0922
17342TIP3    H173441   4.467   1.703  13.818 -1.7927  0.2106  0.3584
17342TIP3    H273442   4.375   1.817  13.858 -1.0179  0.3063  1.8918
17343TIP3   OH273443   2.990   5.393   0.297  0.1560 -0.1283 -0.4760
17343TIP3    H173444   2.925   5.431   0.356  2.1778  0.1284  1.6488
17343TIP3    H273445   3.053   5.463   0.281 -0.5443 -0.0632 -3.3235
17344TIP3   OH273446   2.202   3.688   0.476  0.5272 -0.1321  0.4217
17344TIP3    H173447   2.230   3.775   0.451  1.2387 -0.4393  0.1388
17344TIP3    H273448   2.108   3.687   0.460  0.7191  0.1869 -0.7443
17345TIP3   OH273449   4.707   4.419   0.011 -0.5255 -0.2586  0.1998
17345TIP3    H173450   4.719   4.405  -0.082 -0.4817 -0.9086  0.3020
17345TIP3    H273451   4.793   4.400   0.050 -0.9537 -1.5864  0.5448
17346TIP3   OH273452   2.981   0.273  11.832  0.1035  0.1519  0.1257
17346TIP3    H173453   2.987   0.368  11.829  0.0276  0.2390  2.1270
17346TIP3    H273454   2.889   0.255  11.854  0.3343 -0.3513  0.7034
17347TIP3   OH273455   1.338   0.170   1.932  0.9381  0.4538 -0.4428
17347TIP3    H173456   1.427   0.150   1.904  1.1065  1.4408 -0.6489
17347TIP3    H273457   1.327   0.124   2.015  0.8781 -1.4690 -1.4777
17348TIP3   OH273458   1.224   2.035  12.994 -0.4054  0.2818  0.5945
17348TIP3    H173459   1.238   2.125  13.023  1.1959  0.5919 -1.0561
17348TIP3    H273460   1.302   2.014  12.942 -1.5306 -1.4700 -0.4378
17349TIP3   OH273461   0.704   6.615   0.937  0.4493  0.1177 -0.3959
17349TIP3    H173462   0.747   6.575   1.013  0.5781  0.4830 -0.2789
17349TIP3    H273463   0.725   6.556   0.864  1.1846  0.3159 -0.3511
17350TIP3   OH273464   4.847   6.581   2.479 -0.3244 -0.3022  0.3003
17350TIP3    H173465   4.762   6.579   2.436  0.4009  1.8151 -1.3264
17350TIP3    H273466   4.854   6.670   2.515  0.8114 -0.7558  1.2382
17351TIP3   OH273467   2.393   3.960   5.461  0.0169 -0.8973  0.2645
17351TIP3    H173468   2.485   3.988   5.467 -0.1277  0.7261 -3.7450
17351TIP3    H273469   2.343   4.038   5.483 -0.4423 -1.4525  1.2225
17352TIP3   OH273470   2.275   6.487  13.208 -0.5107  0.5157  0.4328
17352TIP3    H173471   2.204   6.442  13.255 -0.2744 -0.9410 -0.5724
17352TIP3    H273472   2.291   6.432  13.131  1.4424  1.0624  0.4360
17353TIP3   OH273473   3.869   2.683   2.114  0.1442  0.0625  0.6437
17353TIP3    H173474   3.779   2.699   2.142 -0.7982 -0.3707 -2.0024
17353TIP3    H273475   3.892   2.598   2.152 -1.5306 -1.0771 -0.7805
17354TIP3   OH273476   4.464   3.198  14.529 -0.0243 -0.1754 -0.3320
17354TIP3    H173477   4.408   3.146  14.472  0.3702 -2.6802  1.4343
17354TIP3    H273478   4.542   3.143  14.542  1.3088  1.7558 -0.0125
17355TIP3   OH273479   3.228   1.606   3.901  0.0789  0.3549  0.2529
17355TIP3    H173480   3.164   1.638   3.964 -0.8310  1.4561 -1.2233
17355TIP3    H273481   3.310   1.603   3.950 -0.2478  2.9101  1.0136
17356TIP3   OH273482   4.632   3.427   2.072  0.6493 -0.3703 -0.1476
17356TIP3    H173483   4.719   3.397   2.100  0.4412 -0.3719  0.5167
17356TIP3    H273484   4.584   3.346   2.052  0.3630 -0.4459  0.8183
17357TIP3   OH273485   6.156   1.092  17.215 -0.6042  0.5918 -0.0295
17357TIP3    H173486   6.073   1.137  17.198 -0.2292  1.0248 -0.6865
17357TIP3    H273487   6.148   1.009  17.168 -0.4090  0.9043 -0.6184
17358TIP3   OH273488   2.151   6.308   6.350  0.4745  0.4122 -0.5272
17358TIP3    H173489   2.229   6.259   6.375 -0.8029 -1.4417 -0.0306
17358TIP3    H273490   2.155   6.313   6.255  0.7941 -0.4118 -0.5635
17359TIP3   OH273491   3.610   6.415   5.448 -0.1870 -0.2373  0.8643
17359TIP3    H173492   3.584   6.327   5.474  1.1265 -0.0939  2.7331
17359TIP3    H273493   3.674   6.401   5.378  0.7340 -0.8225  1.8012
17360TIP3   OH273494   1.807   4.561  15.502  0.0578  0.0674 -0.0777
17360TIP3    H173495   1.741   4.541  15.435  0.1503 -1.6549  0.3281
17360TIP3    H273496   1.887   4.518  15.471  0.2958 -0.0979  0.7648
17361TIP3   OH273497   1.454   5.362  12.423 -0.4541  0.4687 -0.0732
17361TIP3    H173498   1.397   5.287  12.403 -0.4921  0.1955  0.9957
17361TIP3    H273499   1.396   5.425  12.466  0.2884 -0.3590  2.2443
17362TIP3   OH273500   4.369   4.043  13.841  0.2408 -0.0767 -0.4821
17362TIP3    H173501   4.463   4.035  13.859 -0.1033 -1.5029  0.8421
17362TIP3    H273502   4.337   3.952  13.844 -0.5714 -0.0322 -4.5501
17363TIP3   OH273503   6.397   5.645   3.525  0.1304  0.3525 -0.0474
17363TIP3    H173504   6.464   5.674   3.463  1.5945  0.3302  1.5182
17363TIP3    H273505   6.336   5.594   3.471  0.9595  0.9953 -1.6219
17364TIP3   OH273506   3.080   3.208  11.584 -0.1752 -0.2377  0.0425
17364TIP3    H173507   2.987   3.197  11.606 -0.7046 -0.2611 -2.1127
17364TIP3    H273508   3.081   3.273  11.514  1.4891  0.0989  0.3495
17365TIP3   OH273509   0.146   3.576  12.623 -0.1081 -0.0549 -0.6319
17365TIP3    H173510   0.117   3.559  12.713  0.7293  1.1805 -0.1275
17365TIP3    H273511   0.208   3.506  12.604  0.8086  0.5004  0.2705
17366TIP3   OH273512   0.044   3.972   6.187 -0.3554 -0.0678  0.6091
17366TIP3    H173513   0.123   3.966   6.133  1.1374  0.9652  2.6253
17366TIP3    H273514   0.009   3.883   6.187  1.1972 -0.7033  0.2673
17367TIP3   OH273515   2.894   2.436   0.930  0.4876  0.3452 -0.0529
17367TIP3    H173516   2.877   2.365   0.993 -0.5434 -1.9829 -2.8113
17367TIP3    H273517   2.984   2.462   0.947  1.6067 -3.0897 -0.2671
17368TIP3   OH273518   6.553   0.252   2.251 -0.4069 -0.0712  0.0530
17368TIP3    H173519   6.554   0.247   2.346 -0.2370  0.1967  0.0648
17368TIP3    H273520   6.644   0.240   2.224 -0.1611  1.6863  0.0243
17369TIP3   OH273521   0.916   5.685   1.484  0.6277  0.0645  0.1766
17369TIP3    H173522   0.920   5.706   1.577  0.0750 -0.3799  0.3002
17369TIP3    H273523   0.880   5.764   1.443 -2.0081 -0.8051  0.7140
17370TIP3   OH273524   3.977   0.326   4.974  0.3903  0.3142 -0.1926
17370TIP3    H173525   3.961   0.231   4.974  0.8371  0.2377 -0.5374
17370TIP3    H273526   4.032   0.341   4.897  1.3908  0.6730  0.5810
17371TIP3   OH273527   4.728   5.988  11.993  0.1719 -0.7379 -0.3749
17371TIP3    H173528   4.783   6.011  12.068  0.2850 -1.5856 -0.1878
17371TIP3    H273529   4.651   6.045  12.001  1.9801  2.0044 -1.8435
17372TIP3   OH273530   1.445   2.913  14.538 -0.3577 -0.6014 -0.2545
17372TIP3    H173531   1.457   2.931  14.631  1.1594 -0.6577 -0.4300
17372TIP3    H273532   1.441   2.818  14.532  1.6078 -0.6959 -0.4613
17373TIP3   OH273533   3.089   3.504   4.341 -0.4834  0.0641  0.3750
17373TIP3    H173534   3.024   3.521   4.409 -0.0901 -2.3350  1.3740
17373TIP3    H273535   3.169   3.481   4.388 -0.0411 -1.0363 -0.8760
17374TIP3   OH273536   1.438   4.161   5.355  0.2311  0.3170 -0.1633
17374TIP3    H173537   1.349   4.152   5.320  0.8846 -1.7640 -1.3669
17374TIP3    H273538   1.425   4.178   5.448 -1.4208 -1.2689 -0.0709
17375TIP3   OH273539   1.613   4.294   1.092 -0.2574  0.5699 -0.1663
17375TIP3    H173540   1.656   4.373   1.058  2.2377 -0.1440  1.1789
17375TIP3    H273541   1.651   4.222   1.042 -2.7669  0.1948 -1.6226
17376TIP3   OH273542   3.279   6.735   4.387  0.3082 -0.4944  0.0155
17376TIP3    H173543   3.306   6.827   4.394 -1.6046 -0.0645  2.5885
17376TIP3    H273544   3.285   6.701   4.476  0.1135 -2.6242 -0.7514
17377TIP3   OH273545   6.647   1.280   1.698  0.2192  0.0957  0.3513
17377TIP3    H173546   6.613   1.322   1.777 -1.5719 -1.9557  0.7128
17377TIP3    H273547   6.712   1.217   1.731  1.0860  0.8169  0.0174
17378TIP3   OH273548   5.047   6.173  11.622 -0.6189  0.3254  0.2916
17378TIP3    H173549   4.962   6.190  11.664 -0.6088 -0.6223  0.7274
17378TIP3    H273550   5.050   6.233  11.548 -1.8280  0.1261  0.0634
17379TIP3   OH273551   1.064   5.673   4.971 -0.3419 -0.4527  0.2584
17379TIP3    H173552   1.117   5.711   5.041  1.1162  0.5927 -1.3608
17379TIP3    H273553   0.997   5.738   4.954 -0.1544 -0.3044  0.0825
17380TIP3   OH273554   0.634   0.015   2.531 -0.0958 -0.3401 -0.5651
17380TIP3    H173555   0.697  -0.006   2.462  0.8587  0.6338 -0.0154
17380TIP3    H273556   0.580   0.085   2.493 -1.0411 -1.3761 -1.1415
17381TIP3   OH273557   0.643   4.744  13.176  0.3161 -0.2230  0.1747
17381TIP3    H173558   0.551   4.721  13.167  0.3894 -0.3881 -0.1607
17381TIP3    H273559   0.664   4.793  13.096  0.4428  0.0734  0.3856
17382TIP3   OH273560   4.403   4.436   0.099 -0.1378 -0.1729  0.2615
17382TIP3    H173561   4.410   4.494   0.175  1.4226 -0.2717  0.2198
17382TIP3    H273562   4.485   4.450   0.051 -1.1469 -0.0484 -1.4488
17383TIP3   OH273563   0.774   6.385  16.508  0.4246  0.4233  0.2880
17383TIP3    H173564   0.723   6.464  16.523  1.3885  0.9233  0.9607
17383TIP3    H273565   0.722   6.334  16.446  0.4080  2.1726 -1.1617
17384TIP3   OH273566   6.475   5.893  14.540 -0.4018 -0.0759  0.2227
17384TIP3    H173567   6.500   5.984  14.556 -1.1947  0.2033 -0.1260
17384TIP3    H273568   6.465   5.856  14.628 -1.1359  0.4648  0.3741
17385TIP3   OH273569   6.569   3.847  17.104 -0.0367  0.4646  0.8422
17385TIP3    H173570   6.603   3.911  17.042  3.0887 -0.8772  1.0837
17385TIP3    H273571   6.646   3.818  17.153 -1.9088 -1.0718  2.9437
17386TIP3   OH273572   3.537   3.588   0.400  0.0039 -0.3759 -0.0945
17386TIP3    H173573   3.630   3.594   0.380  0.1512  0.8392  0.8896
17386TIP3    H273574   3.526   3.639   0.480 -1.7176  0.5232 -0.8772
17387TIP3   OH273575   4.272   6.009  11.749  0.3906  0.3073  0.2072
17387TIP3    H173576   4.341   6.073  11.762  1.2408 -0.9034  1.9854
17387TIP3    H273577   4.308   5.928  11.786 -0.6397 -1.1932 -2.0137
17388TIP3   OH273578   4.447   5.058  15.446  0.5244  0.5572  0.0045
17388TIP3    H173579   4.416   5.054  15.355  1.4147  0.4629 -0.3105
17388TIP3    H273580   4.385   5.115  15.491 -1.3059 -1.2988 -0.0907
17389TIP3   OH273581   6.263   0.253   5.407 -0.0433 -0.2571 -0.6840
17389TIP3    H173582   6.173   0.246   5.439  0.1489 -3.1533 -0.5968
17389TIP3    H273583   6.255   0.256   5.312 -0.2411 -1.0655 -0.7014
17390TIP3   OH273584   4.976   5.599  10.826 -0.1522 -0.2989  0.2221
17390TIP3    H173585   5.009   5.628  10.742  0.5704  0.0183  0.6171
17390TIP3    H273586   5.018   5.514  10.840  0.0166 -0.1797  0.4372
17391TIP3   OH273587   4.436   1.870   4.366  0.5039 -0.6277 -0.5113
17391TIP3    H173588   4.455   1.778   4.388 -1.7758 -0.4021  2.7479
17391TIP3    H273589   4.475   1.920   4.437 -0.8234  0.7138 -0.7190
17392TIP3   OH273590   4.006   4.415  15.733 -0.0393  0.2203  0.0713
17392TIP3    H173591   3.973   4.406  15.823 -2.2707  0.8498 -0.6604
17392TIP3    H273592   4.099   4.392  15.740 -0.2234  0.0180  2.4947
17393TIP3   OH273593   1.520   4.063  11.554 -0.0944 -0.2923  0.3956
17393TIP3    H173594   1.572   4.005  11.610  0.0472 -0.4732  0.0781
17393TIP3    H273595   1.539   4.151  11.586  0.2003 -0.3762  0.4514
17394TIP3   OH273596   0.384   0.326   0.629  0.1372 -0.7516  0.2248
17394TIP3    H173597   0.347   0.304   0.544  0.1743  2.0296 -0.5580
17394TIP3    H273598   0.323   0.390   0.666  1.7533  0.4405  0.8969
17395TIP3   OH273599   5.997   5.527   2.344  0.0984  0.4895  0.0242
17395TIP3    H173600   5.906   5.549   2.323 -0.0645  0.9757  1.2098
17395TIP3    H273601   6.023   5.591   2.410  0.0705 -1.9437  2.4903
17396TIP3   OH273602   6.084   1.317   2.717  0.4914  0.2280  0.7110
17396TIP3    H173603   6.124   1.251   2.660 -0.7248 -0.0025  0.1159
17396TIP3    H273604   6.083   1.276   2.804 -1.1175 -0.9322  0.1710
17397TIP3   OH273605   4.034   4.143  13.728 -0.0041  0.0834  0.1705
17397TIP3    H173606   4.111   4.199  13.735  0.2574 -0.3406  0.7203
17397TIP3    H273607   4.011   4.146  13.635  0.2965  0.7092  0.1161
17398TIP3   OH273608   0.368   2.406  10.868  0.4935 -0.2282  0.2660
17398TIP3    H173609   0.274   2.386  10.863  0.3209  0.0611  2.0557
17398TIP3    H273610   0.374   2.474  10.936  1.7151  1.6826 -1.6753
17399TIP3   OH273611   4.626   5.133  14.805 -0.4837  0.2213 -0.3827
17399TIP3    H173612   4.665   5.216  14.779  0.7087 -0.4435 -0.7179
17399TIP3    H273613   4.660   5.069  14.743 -2.5640 -0.2820 -1.0519
17400TIP3   OH273614   2.096   6.640  13.517 -0.3284  0.3936  0.0739
17400TIP3    H173615   2.078   6.604  13.430  0.1037  1.6674 -0.5594
17400TIP3    H273616   2.187   6.618  13.535 -0.0321  1.2505 -0.3582
17401TIP3   OH273617   2.406   5.148  14.010 -0.5808  0.4510 -0.2254
17401TIP3    H173618   2.486   5.133  13.959 -0.2064 -0.1572  0.5452
17401TIP3    H273619   2.404   5.077  14.074 -0.6362  1.6693  1.1445
17402TIP3   OH273620   1.932   3.823   5.279 -0.0344  0.6382 -0.4363
17402TIP3    H173621   1.966   3.785   5.361  0.5446 -0.1729 -1.0400
17402TIP3    H273622   1.902   3.910   5.304  1.7754  1.0775  0.2847
17403TIP3   OH273623   3.630   1.406  14.634  0.3819  0.5299 -0.6833
17403TIP3    H173624   3.570   1.426  14.706  0.9775  1.3698 -0.4204
17403TIP3    H273625   3.706   1.368  14.677 -0.0575 -0.7764 -1.0404
17404TIP3   OH273626   0.878   3.934   2.149 -1.0952 -0.3743  0.4996
17404TIP3    H173627   0.856   3.915   2.240 -0.2175  1.8737  1.2263
17404TIP3    H273628   0.804   3.987   2.118 -0.4089  0.6306  0.5631
17405TIP3   OH273629   1.960   0.412  16.150 -0.3177 -0.0987 -0.2986
17405TIP3    H173630   1.958   0.370  16.065  1.8091  0.1039 -0.4659
17405TIP3    H273631   2.053   0.420  16.172 -0.8206 -0.1508  2.0374
17406TIP3   OH273632   2.538   1.289  13.937  0.9529  0.3357 -0.1608
17406TIP3    H173633   2.546   1.302  14.032 -0.2802  0.9396 -0.1319
17406TIP3    H273634   2.595   1.356  13.899  1.4185  0.1215  0.1494
17407TIP3   OH273635   1.755   0.712  11.431  0.3170  0.1890  0.1257
17407TIP3    H173636   1.774   0.620  11.409  0.8709  0.0606  1.0923
17407TIP3    H273637   1.796   0.724  11.517  0.3738  1.3874 -0.0681
17408TIP3   OH273638   6.310   4.595  16.215  0.0130 -0.1239  0.6086
17408TIP3    H173639   6.273   4.595  16.303  1.3734  2.9068  1.2236
17408TIP3    H273640   6.234   4.583  16.158 -1.1381 -0.0218  2.0664
17409TIP3   OH273641   1.610   0.239   6.168 -0.2287 -0.5854  0.2128
17409TIP3    H173642   1.562   0.156   6.162 -2.0984  0.5762 -1.1772
17409TIP3    H273643   1.599   0.266   6.259 -3.1570  0.1823 -0.3240
17410TIP3   OH273644   3.842   5.775   4.826  0.4151 -0.0991  0.2486
17410TIP3    H173645   3.891   5.731   4.757 -1.7515 -1.0556 -0.7232
17410TIP3    H273646   3.823   5.706   4.889 -0.4315  0.0643  0.1762
17411TIP3   OH273647   5.113   6.064  15.740  0.2811  0.1252 -0.1493
17411TIP3    H173648   5.165   5.985  15.725 -0.0340 -0.0477 -0.3396
17411TIP3    H273649   5.167   6.117  15.799  1.3189  0.5873 -1.4755
17412TIP3   OH273650   1.651   0.954   5.655 -0.0333 -0.1449 -0.3386
17412TIP3    H173651   1.577   0.917   5.704 -0.1531  2.1847  1.3494
17412TIP3    H273652   1.722   0.958   5.720  0.4101  1.1458 -0.8913
17413TIP3   OH273653   3.294   4.672  11.060  0.4768  0.2753 -0.0800
17413TIP3    H173654   3.362   4.632  11.113 -1.3781 -1.5545  0.9855
17413TIP3    H273655   3.304   4.634  10.973  0.3157 -0.6008  0.2861
17414TIP3   OH273656   1.563   3.208   2.061  0.1887  0.3181 -0.2329
17414TIP3    H173657   1.559   3.198   1.966 -2.6351 -0.8200 -0.0484
17414TIP3    H273658   1.546   3.302   2.076  0.4843  0.4701 -0.8412
17415TIP3   OH273659   1.331   3.074  13.060 -0.1127 -0.0801 -0.1968
17415TIP3    H173660   1.394   3.138  13.026 -0.1674 -0.7242 -1.5042
17415TIP3    H273661   1.367   3.050  13.146  0.7342  0.5309 -0.3733
17416TIP3   OH273662   5.279   0.881   2.416  0.0367  0.3079  0.2702
17416TIP3    H173663   5.249   0.842   2.499  0.5394 -0.8388 -0.0764
17416TIP3    H273664   5.336   0.953   2.443  2.5362 -1.8393  0.9868
17417TIP3   OH273665   2.333   4.257   2.161 -0.2480 -0.3802  0.1762
17417TIP3    H173666   2.359   4.312   2.087 -2.0486 -1.9056 -1.6339
17417TIP3    H273667   2.238   4.261   2.161 -0.3031 -1.4019  1.6680
17418TIP3   OH273668   1.068   4.614   2.074  0.2742  0.0282  0.1901
17418TIP3    H173669   1.090   4.651   1.989 -1.4034 -0.5703 -0.5252
17418TIP3    H273670   1.117   4.532   2.078  1.1044  0.5198  0.2194
17419TIP3   OH273671   0.651   3.465  12.319  0.1219  0.5874 -0.2328
17419TIP3    H173672   0.576   3.518  12.346 -1.3348 -1.6262  0.1926
17419TIP3    H273673   0.710   3.466  12.394 -0.5721  0.4103  0.3173
17420TIP3   OH273674   6.493   6.601   1.760  0.8607 -0.3757  0.0129
17420TIP3    H173675   6.472   6.694   1.757 -0.6686 -0.6892  0.5582
17420TIP3    H273676   6.476   6.575   1.850  1.3896 -1.1646 -0.1064
17421TIP3   OH273677   3.684   4.043   0.711 -0.0091 -0.9001 -0.0257
17421TIP3    H173678   3.620   4.107   0.742  1.8470  1.1455 -0.3189
17421TIP3    H273679   3.723   4.006   0.790  1.0827  0.5741  0.1328
17422TIP3   OH273680   2.142   3.556  16.112 -0.0491 -0.3207  0.2246
17422TIP3    H173681   2.122   3.638  16.156 -0.7567 -1.5408  2.2470
17422TIP3    H273682   2.236   3.558  16.096 -0.1982  1.2265 -0.4781
17423TIP3   OH273683   0.899   6.511  14.425 -0.0622 -0.4818  0.7137
17423TIP3    H173684   0.926   6.468  14.506  1.1882  1.4890  1.3855
17423TIP3    H273685   0.805   6.528  14.437  0.0715 -0.3756  1.6715
17424TIP3   OH273686   5.977   5.966   1.333  0.1472 -0.1452  0.2003
17424TIP3    H173687   6.029   5.902   1.284 -0.0418 -0.0396 -0.1434
17424TIP3    H273688   5.934   5.915   1.402  2.4771  0.1486  1.9196
17425TIP3   OH273689   2.411   6.559  11.954  0.2913  0.0946  0.1657
17425TIP3    H173690   2.329   6.523  11.920  0.4883 -0.0693 -0.1431
17425TIP3    H273691   2.466   6.483  11.970 -0.0996  0.1162  1.6605
17426TIP3   OH273692   4.433   5.511  16.893  0.3071  0.3744  0.4100
17426TIP3    H173693   4.379   5.472  16.825  2.9028 -1.2098 -0.8587
17426TIP3    H273694   4.379   5.508  16.972 -2.5989  1.8565 -1.4391
17427TIP3   OH273695   2.341   4.142   5.870  0.4587 -0.5154 -1.0577
17427TIP3    H173696   2.418   4.191   5.840  1.7112 -2.0227 -0.4115
17427TIP3    H273697   2.306   4.193   5.943  0.8250  0.2130 -1.3912
17428TIP3   OH273698   2.526   4.381   4.110  0.1857 -0.0198  0.3602
17428TIP3    H173699   2.561   4.469   4.125  0.6697  0.5851 -3.7071
17428TIP3    H273700   2.602   4.328   4.087 -0.4727 -0.8252 -0.0084
17429TIP3   OH273701   2.061   0.163   0.088  0.2215  0.0763  0.2655
17429TIP3    H173702   2.082   0.116   0.168 -0.7065  0.1616  0.5688
17429TIP3    H273703   2.077   0.255   0.109  2.9405 -0.1435 -0.6182
17430TIP3   OH273704   1.010   3.431  14.980 -0.4472  0.6226 -0.7751
17430TIP3    H173705   1.021   3.342  14.946 -0.6749  1.4144 -2.9814
17430TIP3    H273706   0.921   3.431  15.017 -0.1663 -0.2745 -0.0749
17431TIP3   OH273707   3.354   1.061   4.802  0.7836  0.1620 -0.9013
17431TIP3    H173708   3.405   1.032   4.878  0.2468 -1.0353 -0.9824
17431TIP3    H273709   3.291   0.990   4.787  0.2886  0.8012 -1.9115
17432TIP3   OH273710   5.657   1.688   3.653  0.7694  0.8883 -0.5771
17432TIP3    H173711   5.652   1.641   3.570 -0.4587  1.5781 -0.8907
17432TIP3    H273712   5.631   1.777   3.633  1.0975  1.2202  0.4272
17433TIP3   OH273713   2.848   5.020   2.002  0.2303  0.4234 -0.2825
17433TIP3    H173714   2.835   4.948   1.941  0.9934 -0.5249  0.6691
17433TIP3    H273715   2.779   5.009   2.068  1.3071 -0.3463  0.7190
17434TIP3   OH273716   6.410   2.601  15.690 -0.3799  0.2272  0.4976
17434TIP3    H173717   6.371   2.658  15.756 -0.9602  0.8565 -0.3727
17434TIP3    H273718   6.462   2.660  15.636 -1.1313 -0.0329 -0.5266
17435TIP3   OH273719   4.042   2.787  15.268  0.3865 -0.2686 -0.3923
17435TIP3    H173720   4.049   2.719  15.200  1.3944 -0.2949 -0.2799
17435TIP3    H273721   4.132   2.820  15.277 -0.0493  0.8866 -0.2437
17436TIP3   OH273722   4.394   0.317   5.638 -0.4945 -0.5221 -0.7585
17436TIP3    H173723   4.368   0.407   5.655 -0.8366 -0.5319 -1.2460
17436TIP3    H273724   4.479   0.324   5.594  0.0836 -0.4768  0.3449
17437TIP3   OH273725   4.079   4.544   4.426  0.2825 -0.1222  0.0876
17437TIP3    H173726   4.000   4.497   4.452 -0.5182  0.7040 -0.8403
17437TIP3    H273727   4.117   4.575   4.508  0.3774 -1.6563  0.6467
17438TIP3   OH273728   6.312   1.504   6.029 -0.0807  0.5752 -0.2143
17438TIP3    H173729   6.365   1.430   6.000 -0.3911  0.4738 -0.5265
17438TIP3    H273730   6.358   1.538   6.106  1.4134  1.5928 -1.5330
17439TIP3   OH273731   5.098   6.198   4.192  0.5527  0.0228  0.1484
17439TIP3    H173732   5.187   6.190   4.158 -0.3046  0.2813 -2.2656
17439TIP3    H273733   5.098   6.147   4.273  2.2293 -2.0326 -1.1109
17440TIP3   OH273734   1.753   2.142   3.404 -0.3394 -0.0110  0.1142
17440TIP3    H173735   1.687   2.136   3.473  0.4975  0.3602  0.9523
17440TIP3    H273736   1.709   2.106   3.326 -1.8041  0.9747  0.4516
17441TIP3   OH273737   3.987   3.160  15.914  0.1078  0.5507 -0.1174
17441TIP3    H173738   4.046   3.235  15.902  0.9916 -0.1685 -0.3116
17441TIP3    H273739   4.008   3.101  15.841 -1.3748  0.6229 -0.6107
17442TIP3   OH273740   0.945   6.757  12.085  0.3545 -0.2915 -0.0062
17442TIP3    H173741   0.933   6.831  12.145  0.3836  0.1013 -0.4737
17442TIP3    H273742   0.857   6.722  12.071  0.4895 -1.0962  1.1534
17443TIP3   OH273743   4.168   2.833  14.445 -0.5467  0.3502  0.1764
17443TIP3    H173744   4.246   2.872  14.484 -0.1376 -0.1096 -0.1781
17443TIP3    H273745   4.154   2.753  14.495 -0.0546 -0.2120 -0.5751
17444TIP3   OH273746   0.416   0.426   4.261  0.3686  0.1116 -0.1129
17444TIP3    H173747   0.347   0.433   4.195  0.1043  1.0916  0.2528
17444TIP3    H273748   0.390   0.489   4.329  1.6765  0.5542 -0.0182
17445TIP3   OH273749   4.936   2.671   6.009  0.3556  0.1009 -0.0571
17445TIP3    H173750   4.861   2.635   5.962 -1.1481  2.8574  0.1461
17445TIP3    H273751   5.009   2.613   5.985 -1.0151 -0.4019 -3.3211
17446TIP3   OH273752   4.517   5.547   0.412  0.1864  0.2902 -0.6858
17446TIP3    H173753   4.525   5.476   0.477 -0.9955  1.6602  0.9836
17446TIP3    H273754   4.607   5.579   0.401  0.3983  0.0444  0.2769
17447TIP3   OH273755   2.868   4.710   4.352 -0.3482 -0.4988 -0.0310
17447TIP3    H173756   2.883   4.736   4.443  1.7612 -0.1247 -0.4477
17447TIP3    H273757   2.824   4.626   4.358  0.5990 -0.9194  1.3679
17448TIP3   OH273758   3.528   2.565   2.460  0.0691  0.6062 -0.1705
17448TIP3    H173759   3.530   2.580   2.554  0.4646 -1.5011  0.1817
17448TIP3    H273760   3.439   2.535   2.442  0.1112  0.6229 -0.4198
17449TIP3   OH273761   2.129   3.651   1.540 -0.2778 -0.0232 -0.1668
17449TIP3    H173762   2.222   3.652   1.516 -0.2212  0.1314  0.0674
17449TIP3    H273763   2.125   3.695   1.624 -0.7426  1.2235 -0.8320
17450TIP3   OH273764   0.814   3.496  13.602 -0.5825  0.2232 -0.0055
17450TIP3    H173765   0.788   3.414  13.645 -0.0153 -0.3835 -0.7945
17450TIP3    H273766   0.790   3.565  13.663 -1.8639 -0.4873  0.3010
17451TIP3   OH273767   3.669   6.081   2.278  0.4459 -0.6202 -0.3362
17451TIP3    H173768   3.657   6.014   2.346 -2.6640 -2.7086 -2.7985
17451TIP3    H273769   3.593   6.138   2.287  2.2329  1.6672  0.6529
17452TIP3   OH273770   5.857   5.374   0.495  0.2431  0.4237 -0.5215
17452TIP3    H173771   5.937   5.349   0.541 -0.0740 -0.6483 -0.5500
17452TIP3    H273772   5.788   5.367   0.561 -0.1551 -0.7478 -1.0490
17453TIP3   OH273773   0.024   5.699  12.829  0.7568 -0.0816 -0.0077
17453TIP3    H173774   0.012   5.698  12.734  1.0372  0.1459 -0.0449
17453TIP3    H273775   0.113   5.731  12.842  0.7930 -0.3110  0.3250
17454TIP3   OH273776   6.745   2.107   1.286  0.0836 -0.8218  0.3453
17454TIP3    H173777   6.710   2.148   1.207 -1.1141 -1.3620  0.5726
17454TIP3    H273778   6.839   2.123   1.283 -0.1431  0.3900 -0.4615
17455TIP3   OH273779   3.321   2.797   6.646 -0.6334 -0.0331 -0.2304
17455TIP3    H173780   3.357   2.714   6.678 -0.3989  0.0190 -0.3523
17455TIP3    H273781   3.289   2.841   6.725 -0.7300 -0.2266 -0.1619
17456TIP3   OH273782   5.562   1.330   1.221 -0.3463  0.1714 -0.2060
17456TIP3    H173783   5.510   1.251   1.233 -0.4257  0.2975  0.2783
17456TIP3    H273784   5.623   1.308   1.150 -0.1480 -0.4296  0.1510
17457TIP3   OH273785   3.702   2.242  10.570  0.2037  0.0617  0.4255
17457TIP3    H173786   3.646   2.212  10.498  0.7946 -1.0845  0.4195
17457TIP3    H273787   3.689   2.336  10.573 -1.5053 -0.1490  0.2385
17458TIP3   OH273788   6.625   1.614  14.438 -0.3937 -0.2822  0.1324
17458TIP3    H173789   6.591   1.548  14.499 -1.5256 -0.6622 -0.8941
17458TIP3    H273790   6.601   1.581  14.351  2.9572 -0.7723 -0.6866
17459TIP3   OH273791   1.572   1.749   3.915 -0.3225 -0.1480  0.0334
17459TIP3    H173792   1.545   1.666   3.877 -0.8486  0.8270 -1.7490
17459TIP3    H273793   1.657   1.767   3.874 -0.8597  0.8697 -0.6357
17460TIP3   OH273794   1.403   1.583  16.823 -0.2625  0.0760 -0.0359
17460TIP3    H173795   1.477   1.598  16.881  0.4141 -2.6401 -0.1054
17460TIP3    H273796   1.435   1.606  16.736 -0.6706  2.3170  0.3780
17461TIP3   OH273797   2.790   1.383  14.728 -0.0840  0.0170  0.3356
17461TIP3    H173798   2.801   1.295  14.694 -2.1578  0.0104 -0.4181
17461TIP3    H273799   2.818   1.441  14.657  1.9773  0.0056  1.0890
17462TIP3   OH273800   2.644   1.891   2.565 -0.2564 -0.6831 -0.4582
17462TIP3    H173801   2.551   1.871   2.551 -0.0409 -2.4002  0.4596
17462TIP3    H273802   2.647   1.986   2.569 -2.3473 -0.6552  2.0065
17463TIP3   OH273803   2.131   5.704  10.992 -0.2524 -0.4507  0.0601
17463TIP3    H173804   2.221   5.697  10.961 -0.5159  2.4613 -1.5044
17463TIP3    H273805   2.139   5.738  11.081  0.2186 -1.0840  0.2638
17464TIP3   OH273806   0.141   6.629  12.455  0.1465  0.4927  0.1086
17464TIP3    H173807   0.215   6.643  12.514  0.4759 -0.1568 -0.1396
17464TIP3    H273808   0.181   6.609  12.370 -0.3011 -0.3867  0.0988
17465TIP3   OH273809   0.676   4.887  16.422 -0.7105 -0.2261 -0.0939
17465TIP3    H173810   0.736   4.854  16.355 -0.1961 -0.3338  0.4116
17465TIP3    H273811   0.726   4.956  16.466 -1.7396  1.1652 -1.0764
17466TIP3   OH273812   0.846   3.044   6.491 -0.2606 -0.4799 -0.5746
17466TIP3    H173813   0.830   3.137   6.478 -0.7429 -0.7211 -1.8750
17466TIP3    H273814   0.780   3.017   6.555  0.5642  0.2783  0.5993
17467TIP3   OH273815   0.369   1.913   1.103  0.1108 -0.7918  0.4468
17467TIP3    H173816   0.367   1.995   1.054  0.6239 -0.9704  0.1235
17467TIP3    H273817   0.284   1.873   1.087  0.0489 -0.5584  0.2024
17468TIP3   OH273818   6.518   1.092  15.865 -0.6617  0.1640  0.0370
17468TIP3    H173819   6.465   1.159  15.821  1.0586  2.3972  1.3417
17468TIP3    H273820   6.594   1.081  15.808  0.4046  1.3219  1.2445
17469TIP3   OH273821   1.548   5.861   0.923 -0.4807 -0.2030 -0.4382
17469TIP3    H173822   1.517   5.830   1.008 -2.3746 -1.8883 -1.6945
17469TIP3    H273823   1.643   5.860   0.930 -0.6208  0.4722  1.9234
17470TIP3   OH273824   1.359   3.098   6.019  0.0657 -0.1753  0.1783
17470TIP3    H173825   1.363   3.008   5.988 -1.7981 -0.4117  0.5271
17470TIP3    H273826   1.438   3.139   5.986 -0.1793 -1.3379 -1.9216
17471TIP3   OH273827   4.295   5.306  15.287  0.9128  0.3081  0.3568
17471TIP3    H173828   4.360   5.246  15.323 -0.7193 -2.9857 -1.9173
17471TIP3    H273829   4.331   5.332  15.202  0.0687 -0.0831 -0.1198
17472TIP3   OH273830   0.660   2.115   3.652 -0.3105 -0.1564 -0.0242
17472TIP3    H173831   0.666   2.021   3.673  2.2603 -0.0993 -0.4085
17472TIP3    H273832   0.610   2.152   3.725  2.2147 -1.1743  2.3012
17473TIP3   OH273833   4.890   0.863   5.707  0.0451 -0.6311  0.1773
17473TIP3    H173834   4.855   0.938   5.659  0.8317 -1.0396 -1.0669
17473TIP3    H273835   4.839   0.860   5.788 -1.0957  0.2775 -0.4876
17474TIP3   OH273836   2.826   6.619  14.074  0.3928  0.7410 -0.2794
17474TIP3    H173837   2.824   6.687  14.141  0.4789  0.8797 -0.4180
17474TIP3    H273838   2.919   6.605  14.055  0.4647 -0.7245  1.0805
17475TIP3   OH273839   4.508   6.007   2.127  0.4946  0.5129 -0.1507
17475TIP3    H173840   4.498   6.004   2.032  0.1076  0.5303 -0.1076
17475TIP3    H273841   4.479   6.095   2.152  0.2918  0.3976  0.0209
17476TIP3   OH273842   5.780   2.787  13.608 -0.2985  0.8166  0.3565
17476TIP3    H173843   5.757   2.847  13.537 -1.6566  1.4247  1.2945
17476TIP3    H273844   5.744   2.702  13.580 -0.1493  0.8817 -0.0347
17477TIP3   OH273845   4.902   1.842  13.389  0.0214  0.1727  0.0580
17477TIP3    H173846   4.854   1.892  13.456  2.8988  1.1561  1.4956
17477TIP3    H273847   4.905   1.901  13.313 -2.3394 -0.5307 -0.6376
17478TIP3   OH273848   2.032   2.158  16.243  0.3511  0.1660  0.3719
17478TIP3    H173849   2.096   2.182  16.310 -0.5581  1.0625  0.9165
17478TIP3    H273850   1.947   2.180  16.281 -0.1498  0.9988 -1.1985
17479TIP3   OH273851   5.569   2.407  15.798  0.2204  0.9983 -0.1266
17479TIP3    H173852   5.569   2.354  15.718 -1.1643  1.1008 -0.2089
17479TIP3    H273853   5.502   2.473  15.783  1.4402  2.3573  0.2738
17480TIP3   OH273854   4.054   4.952   2.464 -0.3913  0.1312 -0.4256
17480TIP3    H173855   4.130   4.896   2.483  0.0324  0.1725 -1.9797
17480TIP3    H273856   3.986   4.921   2.525  0.8986  0.1891  1.0917
17481TIP3   OH273857   0.641   1.109  13.291  0.1234 -0.2021  0.7124
17481TIP3    H173858   0.579   1.048  13.251  0.5478 -0.1799  0.0070
17481TIP3    H273859   0.694   1.055  13.349  0.3872 -0.4711  0.2188
17482TIP3   OH273860   0.258   4.830  16.214  0.1940  0.2626  0.3022
17482TIP3    H173861   0.312   4.905  16.241  0.5120 -0.3214  1.2931
17482TIP3    H273862   0.176   4.841  16.263 -0.8163  1.4154 -1.5668
17483TIP3   OH273863   5.929   5.885   5.215 -0.2892 -0.5852 -0.1588
17483TIP3    H173864   5.996   5.832   5.172 -1.2371 -3.1857  1.4142
17483TIP3    H273865   5.861   5.897   5.148  0.6432 -0.0242 -1.0079
17484TIP3   OH273866   3.011   1.518  11.184 -0.4928  0.2105  0.2753
17484TIP3    H173867   2.956   1.497  11.108 -1.0402  0.7799  0.5150
17484TIP3    H273868   3.092   1.468  11.169 -1.5039 -1.5421  0.4877
17485TIP3   OH273869   4.471   0.640  12.520  0.1433 -0.2386 -0.2938
17485TIP3    H173870   4.546   0.613  12.574  0.0295  1.1690  0.6097
17485TIP3    H273871   4.510   0.692  12.450  0.1659 -0.9971 -0.8531
17486TIP3   OH273872   1.327   6.204  13.684  0.4058  0.1039 -0.1860
17486TIP3    H173873   1.307   6.285  13.638  0.5869 -0.6735 -1.6662
17486TIP3    H273874   1.413   6.177  13.649  1.4740  0.5350  2.0549
17487TIP3   OH273875   5.614   5.585  12.746  0.0991 -0.3581 -0.7609
17487TIP3    H173876   5.675   5.656  12.762 -0.9001  0.3800 -0.2095
17487TIP3    H273877   5.670   5.507  12.738  1.0860  0.2662 -0.0498
17488TIP3   OH273878   5.976   3.878  12.359  0.3904 -0.1942  0.4030
17488TIP3    H173879   5.906   3.925  12.405  0.5101  2.1785 -1.7306
17488TIP3    H273880   5.936   3.848  12.278  1.5492  0.3570 -0.4037
17489TIP3   OH273881   6.527   2.511  16.864 -0.5761  0.2899 -0.2779
17489TIP3    H173882   6.482   2.510  16.948 -1.9507 -0.5557 -1.0183
17489TIP3    H273883   6.512   2.424  16.828  0.2514  0.5548 -1.2773
17490TIP3   OH273884   5.099   4.347  17.131  0.2884  0.2626  0.0732
17490TIP3    H173885   5.110   4.435  17.169 -1.6973 -0.2696  1.9813
17490TIP3    H273886   5.156   4.291  17.184 -0.5752 -0.0652  0.6554
17491TIP3   OH273887   0.157   1.093  16.068  0.1006  0.7673 -0.0146
17491TIP3    H173888   0.183   1.156  16.000 -1.7664  2.6172  0.9033
17491TIP3    H273889   0.218   1.109  16.139  0.6665  0.3921 -0.4164
17492TIP3   OH273890   3.212   2.990   5.384  0.0632 -0.0908  0.1472
17492TIP3    H173891   3.275   3.057   5.411 -0.2143  0.5083 -0.6659
17492TIP3    H273892   3.264   2.910   5.377  0.3057 -0.0634  1.5799
17493TIP3   OH273893   5.170   4.176   0.562  0.0451 -0.2045  0.5385
17493TIP3    H173894   5.164   4.248   0.624 -3.2735  0.6323 -0.6385
17493TIP3    H273895   5.099   4.116   0.588 -0.5544 -0.4623 -1.6066
17494TIP3   OH273896   0.927   4.936  14.629  0.2826  0.6311 -0.7015
17494TIP3    H173897   0.878   4.863  14.590  1.1161  0.0508 -0.6730
17494TIP3    H273898   1.016   4.925  14.597  0.5285  1.3441 -0.2723
17495TIP3   OH273899   4.267   6.687  14.902 -0.0196 -0.2853  0.0424
17495TIP3    H173900   4.283   6.760  14.961  0.3439 -0.4615  0.1666
17495TIP3    H273901   4.343   6.686  14.844  0.1460 -0.7789  0.2663
17496TIP3   OH273902   5.976   0.478  15.776 -0.5097  0.1169  0.2554
17496TIP3    H173903   5.915   0.515  15.840 -1.4118 -0.6246 -0.1738
17496TIP3    H273904   6.035   0.422  15.827 -0.2988  0.6822  0.6394
17497TIP3   OH273905   5.946   1.207  17.080  0.2997 -0.3903 -0.0713
17497TIP3    H173906   5.951   1.261  17.001 -0.9494  0.0629  0.1522
17497TIP3    H273907   5.877   1.247  17.132  1.3470 -0.4733  1.4233
17498TIP3   OH273908   0.413   3.325   2.470  0.0481 -0.3118 -0.5599
17498TIP3    H173909   0.338   3.284   2.428  0.2362 -1.8896  0.6168
17498TIP3    H273910   0.464   3.252   2.506  1.3915  0.8245 -0.1019
17499TIP3   OH273911   0.842   6.687  11.360  0.2326 -0.7532  0.1676
17499TIP3    H173912   0.757   6.705  11.400  0.3763  0.0110  0.1373
17499TIP3    H273913   0.854   6.758  11.297  1.4776 -0.1386  1.0781
17500TIP3   OH273914   5.512   0.570  16.895  0.1843 -0.4879 -0.2639
17500TIP3    H173915   5.496   0.516  16.817 -0.3965  0.0133 -0.4872
17500TIP3    H273916   5.568   0.641  16.865  2.2450 -1.7967  0.3548
17501TIP3   OH273917   5.863   4.236  14.554 -0.6010  0.3473 -0.1827
17501TIP3    H173918   5.857   4.150  14.595  1.2731  0.1085 -0.3397
17501TIP3    H273919   5.785   4.283  14.583 -1.9286 -1.5806 -0.5449
17502TIP3   OH273920   4.919   0.681  16.449 -0.1376  0.1390 -0.7840
17502TIP3    H173921   4.871   0.759  16.476  0.7084  0.6496 -0.7192
17502TIP3    H273922   4.976   0.711  16.378 -2.1262 -1.1301 -3.0063
17503TIP3   OH273923   5.268   0.817  10.921 -0.2747  0.2646  0.1865
17503TIP3    H173924   5.354   0.776  10.911  0.0135  0.9660 -0.2974
17503TIP3    H273925   5.281   0.880  10.993 -0.0794  1.1354 -0.5941
17504TIP3   OH273926   3.179   2.406  12.799 -0.3986  0.2205  0.5454
17504TIP3    H173927   3.194   2.312  12.794 -1.1164  0.1998 -2.0169
17504TIP3    H273928   3.256   2.440  12.845  1.4251 -1.2522 -1.3452
17505TIP3   OH273929   2.799   4.086  11.524  0.1923  0.1761  0.1874
17505TIP3    H173930   2.786   4.012  11.584  2.2168 -0.1230  0.3000
17505TIP3    H273931   2.723   4.083  11.466 -1.0937 -0.3831  1.8455
17506TIP3   OH273932   6.186   4.424   2.373 -0.6648  0.1114  0.1874
17506TIP3    H173933   6.184   4.519   2.368 -3.3818  0.1586  1.1146
17506TIP3    H273934   6.263   4.398   2.323 -0.4429  2.7403 -0.8769
17507TIP3   OH273935   0.894   5.068   5.122 -0.0073 -0.4955 -0.0003
17507TIP3    H173936   0.919   5.139   5.181  1.1807  0.1030 -1.1885
17507TIP3    H273937   0.973   5.015   5.113  0.3981  0.4443 -2.4461
17508TIP3   OH273938   1.242   1.069   3.001  0.1661 -0.2782 -0.0747
17508TIP3    H173939   1.273   1.137   3.061 -1.7035 -0.9967  1.7559
17508TIP3    H273940   1.297   0.994   3.019  1.0328  0.1790 -0.8016
17509TIP3   OH273941   2.861   4.053  12.427  0.8730 -0.0173  0.0061
17509TIP3    H173942   2.855   3.958  12.426  0.2556  0.0155  0.7881
17509TIP3    H273943   2.942   4.072  12.473  0.8951 -0.1613  0.0254
17510TIP3   OH273944   4.103   6.062   1.297 -0.3364  0.0098 -0.0844
17510TIP3    H173945   4.074   5.997   1.233 -0.4965 -0.2216  0.2235
17510TIP3    H273946   4.061   6.036   1.379  0.9630 -0.4852  0.4292
17511TIP3   OH273947   3.585   2.560   1.118  0.0361 -0.7450  0.0176
17511TIP3    H173948   3.588   2.627   1.186  0.4168 -1.6885  0.9578
17511TIP3    H273949   3.651   2.587   1.054  1.6511 -1.2846  1.4197
17512TIP3   OH273950   0.607   5.736   5.727  0.0766  0.1513 -0.0970
17512TIP3    H173951   0.691   5.710   5.690  1.0948 -1.2290  3.0010
17512TIP3    H273952   0.622   5.825   5.760 -0.5924  1.0634 -2.1765
17513TIP3   OH273953   4.773   3.674  15.412 -0.0280 -0.2498 -0.3069
17513TIP3    H173954   4.827   3.639  15.340 -1.5248 -0.7186 -1.2268
17513TIP3    H273955   4.749   3.596  15.463 -1.4180 -0.3110 -1.0165
17514TIP3   OH273956   1.708   4.145   5.588  0.2082  0.3855 -0.2549
17514TIP3    H173957   1.663   4.195   5.655  0.3294  1.8858 -1.2793
17514TIP3    H273958   1.801   4.151   5.612  0.2950  1.2998 -0.7844
17515TIP3   OH273959   2.342   3.175   0.133 -0.5721 -0.6077  0.0081
17515TIP3    H173960   2.395   3.111   0.086 -1.5942 -1.1358 -0.4278
17515TIP3    H273961   2.404   3.243   0.158  0.9291 -2.7509  2.3143
17516TIP3   OH273962   1.836   5.667   4.611  0.5505  0.4230  0.6473
17516TIP3    H173963   1.887   5.669   4.530 -0.8645  1.0150 -0.2257
17516TIP3    H273964   1.833   5.758   4.640 -0.3827  0.4539  0.4602
17517TIP3   OH273965   3.524   3.361  17.166  0.5649 -0.0366  0.0652
17517TIP3    H173966   3.483   3.329  17.246  1.9744  0.7416  1.1322
17517TIP3    H273967   3.463   3.426  17.131  0.4137  0.3593  1.0603
17518TIP3   OH273968   0.814   3.210   0.435  0.2053  0.1202 -0.1779
17518TIP3    H173969   0.820   3.305   0.423  0.1027  0.0193 -1.0449
17518TIP3    H273970   0.745   3.199   0.501 -3.4998  0.4419 -3.7799
17519TIP3   OH273971   5.050   6.036  13.132  0.5639 -0.5566  0.1108
17519TIP3    H173972   5.078   5.981  13.205  0.5502  0.1916  0.6796
17519TIP3    H273973   4.984   5.983  13.086  0.7859 -1.1448  0.4614
17520TIP3   OH273974   0.609   1.040   3.822  0.4183 -0.1751 -0.8781
17520TIP3    H173975   0.695   1.069   3.792  1.0414 -0.3591  0.6744
17520TIP3    H273976   0.625   0.952   3.858 -0.3447 -0.0503 -0.2410
17521TIP3   OH273977   3.037   2.907   6.079 -0.4567  0.2071 -0.4933
17521TIP3    H173978   3.063   2.969   6.147 -0.7869  0.0430 -0.2181
17521TIP3    H273979   2.968   2.854   6.119 -0.9876  0.4229 -1.1156
17522TIP3   OH273980   2.102   6.710   1.058 -0.6234 -0.2590 -0.0943
17522TIP3    H173981   2.015   6.736   1.027 -0.8353  0.6399  1.1947
17522TIP3    H273982   2.148   6.681   0.980 -1.9176 -0.2638 -0.8730
17523TIP3   OH273983   0.196   2.240  16.771  0.0184 -0.2638  0.1153
17523TIP3    H173984   0.267   2.269  16.829 -0.5458  1.0013  0.1927
17523TIP3    H273985   0.118   2.239  16.827 -0.0789 -1.4251 -0.0237
17524TIP3   OH273986   5.816   0.766  15.543 -0.0580 -0.7420 -0.4190
17524TIP3    H173987   5.912   0.766  15.546 -0.0438 -0.2161 -0.8158
17524TIP3    H273988   5.789   0.778  15.634  0.2634  0.8674 -0.5311
17525TIP3   OH273989   4.972   1.571  11.114 -0.4320  0.5094 -0.2578
17525TIP3    H173990   4.969   1.656  11.070 -0.6249  0.4690 -0.3222
17525TIP3    H273991   5.065   1.551  11.120 -0.2740  1.8108  1.8659
17526TIP3   OH273992   0.041   4.107  16.667  0.0979  0.2581  0.6609
17526TIP3    H173993  -0.005   4.032  16.630 -1.4641  0.3658  2.3251
17526TIP3    H273994   0.121   4.069  16.704  0.2157 -0.2956 -0.1542
17527TIP3   OH273995   3.776   2.940   2.434 -0.0529 -0.6574 -0.2522
17527TIP3    H173996   3.779   2.863   2.378  1.7239  1.3504 -3.0757
17527TIP3    H273997   3.866   2.973   2.435 -0.3175  0.1113  2.7646
17528TIP3   OH273998   4.342   4.560   3.508  0.0575 -0.1414  0.0935
17528TIP3    H173999   4.376   4.631   3.454 -1.5718 -0.5916 -1.5675
17528TIP3    H274000   4.398   4.485   3.487 -0.6830 -0.3657 -1.1606
17529TIP3   OH274001   2.754   6.366   0.188 -0.0620 -0.1552  0.2239
17529TIP3    H174002   2.795   6.287   0.223  1.0037 -0.3299 -1.3619
17529TIP3    H274003   2.662   6.341   0.175 -0.2634 -0.3819  1.9294
17530TIP3   OH274004   2.410   3.373  13.133  0.0888 -0.5276  0.6811
17530TIP3    H174005   2.347   3.355  13.202 -1.1196 -1.9892 -0.7712
17530TIP3    H274006   2.372   3.445  13.083 -0.9265 -2.0132 -0.7509
17531TIP3   OH274007   1.400   1.030  12.569 -0.2593  0.0341  0.2450
17531TIP3    H174008   1.391   1.044  12.663 -1.1937 -0.0696  0.1784
17531TIP3    H274009   1.311   1.035  12.536  0.0907  0.2986 -0.6697
17532TIP3   OH274010   1.652   4.948   3.362  0.0772  0.4544 -0.4420
17532TIP3    H174011   1.657   5.039   3.393  0.8085  0.2025  0.1952
17532TIP3    H274012   1.596   4.904   3.426 -0.4153  0.4872 -0.8430
17533TIP3   OH274013   0.663   2.067   5.503  0.0798 -0.6128  0.0705
17533TIP3    H174014   0.737   2.074   5.562  0.2780 -0.1754 -0.2257
17533TIP3    H274015   0.595   2.024   5.554  0.1961 -0.0852  0.6715
17534TIP3   OH274016   1.031   4.123   4.280  0.2263 -0.3215  0.2581
17534TIP3    H174017   0.985   4.039   4.275 -3.7992  1.6242  2.0362
17534TIP3    H274018   1.023   4.159   4.192 -1.1620 -0.2879  0.3874
17535TIP3   OH274019   0.060   2.271  14.566  0.3278 -0.1926  0.4974
17535TIP3    H174020   0.126   2.249  14.632  3.0048  0.9581 -1.6731
17535TIP3    H274021  -0.008   2.205  14.577  3.6097 -3.7431  0.3559
17536TIP3   OH274022   6.178   4.282  13.687 -0.1185  0.0039 -0.3486
17536TIP3    H174023   6.132   4.363  13.709  0.1077  0.7725 -2.5280
17536TIP3    H274024   6.110   4.215  13.693 -1.4392  1.0185 -2.7480
17537TIP3   OH274025   2.747   2.814   5.669  0.1461 -0.0354 -0.2988
17537TIP3    H174026   2.665   2.780   5.633 -0.2107  1.3996 -0.8902
17537TIP3    H274027   2.748   2.785   5.760 -0.1567 -1.5703 -0.7718
17538TIP3   OH274028   4.508   6.725  11.229  0.0174  0.3157  0.2685
17538TIP3    H174029   4.466   6.809  11.249 -0.3457  0.0773  0.5028
17538TIP3    H274030   4.528   6.688  11.315  1.0302  0.5871  0.1618
17539TIP3   OH274031   6.151   0.962  13.883  0.4233  0.7583 -0.3760
17539TIP3    H174032   6.243   0.937  13.875  0.5166  0.3578  1.7958
17539TIP3    H274033   6.149   1.020  13.959 -1.4207 -0.7612  0.7600
17540TIP3   OH274034   1.982   2.133   6.633 -0.3749  0.3920 -0.1042
17540TIP3    H174035   2.057   2.166   6.582  0.2219  2.8970  2.2550
17540TIP3    H274036   2.019   2.063   6.688 -0.6549 -1.1135 -1.7887
17541TIP3   OH274037   4.152   3.757   6.368 -0.0501  0.4489  0.0082
17541TIP3    H174038   4.214   3.710   6.423  1.2028  1.8667 -0.1789
17541TIP3    H274039   4.074   3.766   6.423  0.4476  0.0067  0.7978
17542TIP3   OH274040   2.171   6.507   2.930  0.9662 -0.0661  0.1846
17542TIP3    H174041   2.199   6.575   2.992 -0.5667  0.3938  0.3960
17542TIP3    H274042   2.149   6.432   2.985  1.6660 -0.3922  0.0267
17543TIP3   OH274043   5.267   1.537  11.094 -0.3939 -0.4037  0.0349
17543TIP3    H174044   5.289   1.447  11.115 -2.4528 -0.8901  0.2212
17543TIP3    H274045   5.350   1.578  11.071  0.4791 -2.4769 -0.5521
17544TIP3   OH274046   1.435   4.298  15.778  0.4949 -0.0321  0.4180
17544TIP3    H174047   1.460   4.262  15.693 -1.4350 -0.5394  0.0491
17544TIP3    H274048   1.501   4.263  15.838  0.9461 -0.9659 -0.5955
17545TIP3   OH274049   3.080   6.065  12.224  0.2655  0.5727 -0.0431
17545TIP3    H174050   3.134   6.105  12.156 -0.3314  0.2787 -0.6920
17545TIP3    H274051   3.134   5.994  12.258  0.3218  0.3342 -0.6286
17546TIP3   OH274052   0.081   1.512   1.146 -0.1920 -0.2013 -0.4463
17546TIP3    H174053   0.102   1.512   1.239 -1.2284 -1.5064 -0.1862
17546TIP3    H274054   0.138   1.578   1.108 -0.3525  0.9559  1.2519
17547TIP3   OH274055   3.604   4.315   4.345 -0.1501 -0.3594 -0.4582
17547TIP3    H174056   3.581   4.267   4.424 -0.7126  0.3384 -0.1896
17547TIP3    H274057   3.523   4.322   4.296  0.0046 -0.0315 -0.6741
17548TIP3   OH274058   2.799   2.915   1.530  0.4054  0.3066 -0.3531
17548TIP3    H174059   2.735   2.923   1.601  0.5935  0.5612 -0.2118
17548TIP3    H274060   2.746   2.900   1.451  0.1309  1.4276 -0.3806
17549TIP3   OH274061   0.656   1.442   0.736  0.1097  0.3645  0.0224
17549TIP3    H174062   0.609   1.517   0.698  1.0513 -0.9051 -3.8747
17549TIP3    H274063   0.588   1.381   0.763 -0.5668  0.7841 -0.7370
17550TIP3   OH274064   6.055   1.206   0.906  0.0114  0.1047 -0.5206
17550TIP3    H174065   6.022   1.209   0.996 -0.0143  1.0575 -0.5615
17550TIP3    H274066   6.130   1.146   0.910 -0.5964 -0.6296 -0.0675
17551TIP3   OH274067   4.316   0.463   0.733 -0.0187 -0.2427 -0.0476
17551TIP3    H174068   4.295   0.521   0.659 -1.4377  1.1075  1.3839
17551TIP3    H274069   4.313   0.519   0.810  3.2510 -1.2551  0.9055
17552TIP3   OH274070   2.453   5.127   2.196 -0.1521  0.0476 -0.1701
17552TIP3    H174071   2.454   5.078   2.279 -1.6599  2.2300  1.1832
17552TIP3    H274072   2.533   5.180   2.200  0.2683 -0.5464 -0.5695
17553TIP3   OH274073   3.316   4.934   4.787 -0.5042 -0.2769 -0.3839
17553TIP3    H174074   3.233   4.893   4.764 -0.7571  2.1530 -4.3327
17553TIP3    H274075   3.312   5.021   4.746  3.6118  0.2362  0.0560
17554TIP3   OH274076   0.857   1.570   3.150  0.4394 -0.1495  0.4601
17554TIP3    H174077   0.805   1.647   3.174 -0.2602 -0.1825 -0.8656
17554TIP3    H274078   0.904   1.597   3.071  1.2233 -0.6538  0.7512
17555TIP3   OH274079   5.243   2.636   5.827 -0.0912 -0.0516 -0.2810
17555TIP3    H174080   5.209   2.611   5.741  0.2305  1.5229 -0.8758
17555TIP3    H274081   5.227   2.559   5.882  0.5286 -1.4320 -1.9753
17556TIP3   OH274082   0.647   5.404   5.507  0.0989  0.1814 -0.1034
17556TIP3    H174083   0.706   5.339   5.469  1.3870  2.3437 -1.9049
17556TIP3    H274084   0.632   5.467   5.437 -4.2790 -0.2022  0.3594
17557TIP3   OH274085   6.262   4.757  16.883 -0.1173  0.0247  0.1703
17557TIP3    H174086   6.357   4.749  16.897 -0.2741  0.0187  1.2683
17557TIP3    H274087   6.250   4.845  16.847  0.1460  0.5998  1.4881
17558TIP3   OH274088   1.528   3.821  12.843 -0.5136  0.0402  0.5659
17558TIP3    H174089   1.591   3.892  12.856  0.1885 -0.9807  3.1337
17558TIP3    H274090   1.580   3.747  12.811 -0.5066 -0.5388  1.8555
17559TIP3   OH274091   5.567   0.520  12.395  0.0456  0.5738  0.0478
17559TIP3    H174092   5.599   0.595  12.446  1.1912  0.8613 -1.0513
17559TIP3    H274093   5.474   0.537  12.383 -0.1715  0.6627  1.7551
17560TIP3   OH274094   1.644   4.498   2.608  0.0752  0.0547  0.2903
17560TIP3    H174095   1.677   4.411   2.585  0.1912 -0.0564  0.8858
17560TIP3    H274096   1.707   4.558   2.569  0.0222 -0.1259 -0.0815
17561TIP3   OH274097   0.319   4.039  14.110  0.3572 -0.7747  0.1997
17561TIP3    H174098   0.280   3.973  14.167 -1.1791 -0.5909 -0.6348
17561TIP3    H274099   0.306   4.121  14.156 -0.9364 -0.6189 -0.4319
17562TIP3   OH274100   3.538   0.156   0.827  0.6843  0.2396 -0.2356
17562TIP3    H174101   3.565   0.202   0.749  1.3310  0.4999  0.1423
17562TIP3    H274102   3.619   0.124   0.866  0.6518  2.4556  1.7871
17563TIP3   OH274103   0.589   1.708   2.875  0.0194  0.3331  0.4002
17563TIP3    H174104   0.602   1.797   2.907  2.4746 -0.9029  3.0820
17563TIP3    H274105   0.531   1.668   2.940  0.3997 -0.5291  0.2179
17564TIP3   OH274106   3.884   1.423  14.020 -0.7521  0.2771 -0.0625
17564TIP3    H174107   3.917   1.501  14.065 -2.5821  0.8672  0.2611
17564TIP3    H274108   3.793   1.442  14.000 -0.8799 -1.2905 -1.1003
17565TIP3   OH274109   1.225   1.240  16.872 -0.5336  0.3999 -0.6506
17565TIP3    H174110   1.219   1.324  16.916 -1.3868  1.5916 -2.9511
17565TIP3    H274111   1.312   1.239  16.833  0.0491 -0.4572  0.6307
17566TIP3   OH274112   1.192   2.673   2.288 -0.6808  0.0318  0.0773
17566TIP3    H174113   1.124   2.713   2.343 -0.0942  0.3856  0.5453
17566TIP3    H274114   1.233   2.607   2.344 -1.0691 -0.6424 -0.4173
17567TIP3   OH274115   4.188   4.375  14.796  0.1724  0.6572  0.2968
17567TIP3    H174116   4.153   4.292  14.828 -1.3498  1.4288  0.6777
17567TIP3    H274117   4.263   4.351  14.742 -1.9986 -1.1350 -1.9525
17568TIP3   OH274118   3.749   0.128  11.294 -0.3373 -0.2734  0.1835
17568TIP3    H174119   3.696   0.201  11.326 -1.4156 -1.5731  1.3655
17568TIP3    H274120   3.719   0.115  11.204 -2.3351 -1.2671  0.9696
17569TIP3   OH274121   0.774   1.868  16.822  0.1472  0.4875  0.3307
17569TIP3    H174122   0.721   1.874  16.902  0.9240 -3.7556  1.2796
17569TIP3    H274123   0.744   1.788  16.779  0.8093  1.8900 -2.9089
17570TIP3   OH274124   1.994   2.086  12.516  0.6819 -0.4031  0.2930
17570TIP3    H174125   2.061   2.019  12.503  0.2455 -0.5090 -1.6077
17570TIP3    H274126   2.030   2.164  12.474  1.1725  0.5566  2.4638
17571TIP3   OH274127   5.338   4.943   6.267 -0.1723  0.3865 -0.4777
17571TIP3    H174128   5.267   4.929   6.205  0.7543 -1.0987 -1.2486
17571TIP3    H274129   5.354   5.037   6.265 -1.9742  0.6919 -0.4457
17572TIP3   OH274130   0.492   2.618  13.214 -0.1397 -0.2050 -0.0698
17572TIP3    H174131   0.446   2.669  13.147  0.9089 -0.9621 -1.3976
17572TIP3    H274132   0.516   2.682  13.281  1.7047  1.1899 -1.9990
17573TIP3   OH274133   1.969   4.342  16.500  0.2253 -0.4342 -0.0873
17573TIP3    H174134   1.910   4.385  16.438  0.4898  1.6069  1.0338
17573TIP3    H274135   1.929   4.257  16.516 -0.8292 -0.2513 -1.6247
17574TIP3   OH274136   3.707   1.071   3.886  0.3355  0.1871 -0.0003
17574TIP3    H174137   3.769   1.001   3.906  1.6970  0.7291 -2.1405
17574TIP3    H274138   3.695   1.116   3.970 -0.6331 -2.6172  1.4300
17575TIP3   OH274139   3.989   5.023  12.784 -0.2718 -0.3909  0.0308
17575TIP3    H174140   3.979   5.091  12.717  0.3948  1.0288  1.3122
17575TIP3    H274141   4.071   5.046  12.828 -0.2116 -1.8590  0.7003
17576TIP3   OH274142   3.279   6.492  16.392 -0.2676 -0.5802  0.5838
17576TIP3    H174143   3.228   6.569  16.419 -0.7038 -0.4146 -0.6457
17576TIP3    H274144   3.213   6.431  16.359  0.0822 -1.4827  1.5470
17577TIP3   OH274145   1.369   4.394   1.103 -0.1919 -0.0050 -0.9620
17577TIP3    H174146   1.453   4.354   1.080  0.5644  1.2892 -0.5213
17577TIP3    H274147   1.354   4.367   1.194  0.0871  0.3265 -0.8169
17578TIP3   OH274148   1.343   1.070  16.450  0.3922  0.5069  0.2314
17578TIP3    H174149   1.385   1.155  16.441  0.6205  0.4436  0.6784
17578TIP3    H274150   1.338   1.055  16.544 -0.1442  0.2707  0.1678
17579TIP3   OH274151   0.452   5.726  11.840 -0.0407 -0.2205  0.2655
17579TIP3    H174152   0.451   5.741  11.934 -0.8774 -0.9970  0.3865
17579TIP3    H274153   0.396   5.795  11.804  0.5092  0.2495  0.3047
17580TIP3   OH274154   3.674   0.489   1.415  0.1472  0.1455 -0.4013
17580TIP3    H174155   3.661   0.582   1.394 -0.2553 -0.2273 -1.8669
17580TIP3    H274156   3.715   0.453   1.337 -1.5507 -1.3366 -0.6264
17581TIP3   OH274157   4.495   5.458  11.226  0.7492 -0.5733 -0.0077
17581TIP3    H174158   4.499   5.499  11.139  2.1015 -2.0101 -0.6469
17581TIP3    H274159   4.406   5.422  11.230 -0.3152  1.9889  0.3966
17582TIP3   OH274160   5.476   1.676  12.501 -0.0428 -0.0571 -0.1624
17582TIP3    H174161   5.542   1.728  12.546 -0.9700 -0.7656  2.1184
17582TIP3    H274162   5.393   1.708  12.536 -0.7237 -1.6178 -0.3006
17583TIP3   OH274163   4.859   2.627  16.514  0.2628  0.2294  0.7606
17583TIP3    H174164   4.819   2.693  16.458 -1.4798  0.2217  1.9639
17583TIP3    H274165   4.933   2.672  16.555 -0.1462  1.0479  0.6153
17584TIP3   OH274166   4.545   0.540   4.240  0.6910 -0.1801  0.1344
17584TIP3    H174167   4.504   0.503   4.162 -2.0904 -2.2934  2.4807
17584TIP3    H274168   4.496   0.620   4.257 -0.7912 -1.3055  1.3834
17585TIP3   OH274169   5.976   4.135  12.959  0.1927 -0.2510  0.2458
17585TIP3    H174170   6.044   4.198  12.983  0.7327 -0.5878 -0.3830
17585TIP3    H274171   5.979   4.131  12.863 -0.2722 -0.7533  0.2484
17586TIP3   OH274172   2.789   5.171  16.294  0.0908  0.0637  0.3202
17586TIP3    H174173   2.760   5.208  16.211  0.1265  0.4644  0.4891
17586TIP3    H274174   2.722   5.196  16.357 -1.4758 -2.6985 -0.1367
17587TIP3   OH274175   3.551   5.467  13.002 -0.0466  0.6541 -0.0338
17587TIP3    H174176   3.645   5.455  12.993 -0.0000  1.7925 -1.2020
17587TIP3    H274177   3.540   5.515  13.084  0.2368 -1.2857  1.1553
17588TIP3   OH274178   1.815   6.057  11.163 -0.4213  0.7524  0.1816
17588TIP3    H174179   1.762   6.011  11.228 -0.5426  1.6876  0.7480
17588TIP3    H274180   1.825   6.145  11.198  0.6339  0.8828 -0.4254
17589TIP3   OH274181   2.427   2.329   1.607  0.2985  0.4138 -0.2249
17589TIP3    H174182   2.462   2.259   1.663 -0.4299  0.9541  0.9446
17589TIP3    H274183   2.335   2.304   1.594 -0.4151  1.9707  1.5808
17590TIP3   OH274184   0.366   2.822   1.357 -0.0391  0.1325 -0.3141
17590TIP3    H174185   0.408   2.773   1.286  1.1479 -0.6591  0.9026
17590TIP3    H274186   0.402   2.910   1.349  0.5624 -0.1075 -0.3497
17591TIP3   OH274187   3.301   2.693  13.728 -0.5102 -0.6239  0.1539
17591TIP3    H174188   3.265   2.750  13.660  0.4637 -0.3620 -0.1486
17591TIP3    H274189   3.275   2.735  13.810 -2.4883 -1.4369 -0.0215
17592TIP3   OH274190   1.672   6.684   2.495  0.0741 -0.0876 -0.0996
17592TIP3    H174191   1.767   6.694   2.491  0.2645 -0.9355  1.8777
17592TIP3    H274192   1.653   6.613   2.434  0.7422 -0.1885 -0.1946
17593TIP3   OH274193   5.215   0.134  16.670  0.1086  0.4132  0.1644
17593TIP3    H174194   5.130   0.140  16.714  0.4467  0.9339  0.7510
17593TIP3    H274195   5.218   0.209  16.611  0.2078  0.4583  0.2248
17594TIP3   OH274196   6.240   0.922   1.188  1.0991 -0.0109 -0.0544
17594TIP3    H174197   6.286   0.838   1.183 -1.3745 -1.5162  1.2871
17594TIP3    H274198   6.275   0.964   1.266 -0.1070 -1.3852  1.2622
17595TIP3   OH274199   4.465   0.129   2.844 -0.5607 -0.5343  0.6620
17595TIP3    H174200   4.542   0.073   2.836 -1.1366 -1.1688 -0.6115
17595TIP3    H274201   4.393   0.068   2.861 -0.5158  0.2014  3.8342
17596TIP3   OH274202   4.156   0.323   3.002  0.0207  0.1967  0.2829
17596TIP3    H174203   4.171   0.416   2.986 -0.2492 -0.2556 -2.8472
17596TIP3    H274204   4.064   0.318   3.028  0.1061  0.8122  0.7306
17597TIP3   OH274205   5.013   3.005  16.217  0.4781  0.1420  0.0842
17597TIP3    H174206   5.077   2.967  16.157 -0.7285  1.2420 -1.9586
17597TIP3    H274207   4.938   3.027  16.161 -1.3299 -0.2763  2.2690
17598TIP3   OH274208   4.731   0.901  14.915 -0.0568  0.0306 -0.7839
17598TIP3    H174209   4.779   0.977  14.881 -0.8614  1.1951  0.6292
17598TIP3    H274210   4.663   0.938  14.970 -1.4402 -1.6812 -1.2916
17599TIP3   OH274211   1.788   6.269  12.952  0.4490  0.4735 -0.1368
17599TIP3    H174212   1.860   6.257  12.890  1.3859  3.0673  0.3749
17599TIP3    H274213   1.737   6.341  12.915  0.3201  1.2198  1.4666
17600TIP3   OH274214   2.571   1.509  11.741  0.5978  0.0688 -0.0137
17600TIP3    H174215   2.589   1.602  11.724  0.8207  0.0649  0.1946
17600TIP3    H274216   2.506   1.485  11.675  1.8752 -0.1036 -1.2483
17601TIP3   OH274217   3.229   1.922  11.850 -0.5903 -0.1469 -0.2656
17601TIP3    H174218   3.155   1.928  11.790 -0.0733 -1.5804 -1.0742
17601TIP3    H274219   3.288   1.858  11.809  1.0786  0.9574  0.3725
17602TIP3   OH274220   4.258   5.226  15.831 -0.2344  0.3446 -0.1220
17602TIP3    H174221   4.170   5.189  15.833  0.5375 -1.4767  2.4898
17602TIP3    H274222   4.258   5.292  15.901  0.3746  0.6512 -0.4062
17603TIP3   OH274223   4.107   1.949  10.692  0.4821 -0.2116  0.3873
17603TIP3    H174224   4.056   1.910  10.763 -0.0527 -1.1522 -0.4985
17603TIP3    H274225   4.087   1.895  10.615  0.3085  1.3441 -0.7004
17604TIP3   OH274226   3.681   3.692  12.070  0.1118 -0.3431  0.5909
17604TIP3    H174227   3.649   3.748  12.000 -1.3316 -1.3787  0.4158
17604TIP3    H274228   3.697   3.608  12.029  0.7373 -0.5223  1.1868
17605TIP3   OH274229   3.418   2.810  15.921 -0.1746 -0.4810 -0.2865
17605TIP3    H174230   3.450   2.893  15.885  2.0496  0.1031  2.7623
17605TIP3    H274231   3.331   2.830  15.954  0.3746  0.7085  0.4944
17606TIP3   OH274232   3.651   1.893  12.147  0.0492 -0.3975  0.0957
17606TIP3    H174233   3.681   1.955  12.214 -1.2333  0.8067 -0.4183
17606TIP3    H274234   3.670   1.938  12.064 -1.1997 -0.5507 -0.2766
17607TIP3   OH274235   4.876   5.686   4.591  0.4738  0.7619 -0.2508
17607TIP3    H174236   4.958   5.735   4.590  0.1287  1.4460  1.6389
17607TIP3    H274237   4.875   5.643   4.677 -0.7064  0.0105 -0.6350
17608TIP3   OH274238   3.051   1.013  15.220 -0.9889  0.0812 -0.1074
17608TIP3    H174239   3.004   1.035  15.301 -1.8882 -0.7730 -0.3891
17608TIP3    H274240   3.141   0.995  15.249 -1.0847  0.6736  0.5761
17609TIP3   OH274241   2.558   3.027   4.821  0.4385  0.3528 -0.0606
17609TIP3    H174242   2.511   2.967   4.880  1.2183 -0.3150 -0.1130
17609TIP3    H274243   2.612   3.080   4.880  0.1812  0.6286 -0.0667
17610TIP3   OH274244   1.949   3.323  13.714  0.4804 -0.1658 -0.4305
17610TIP3    H174245   1.883   3.256  13.694 -0.7231  0.2571  1.9080
17610TIP3    H274246   2.017   3.275  13.763 -0.2437  0.2274  0.9935
17611TIP3   OH274247   0.434   0.171   3.589 -0.2098 -0.4482 -0.0791
17611TIP3    H174248   0.388   0.248   3.622  0.7507  0.2114 -0.2488
17611TIP3    H274249   0.441   0.113   3.664 -0.9803 -0.3825  0.0415
17612TIP3   OH274250   3.617   1.031  11.241  0.5011  0.1319 -0.1360
17612TIP3    H174251   3.596   1.098  11.305  1.5419 -0.1487  0.5037
17612TIP3    H274252   3.536   0.979  11.234  0.4773 -0.0355  1.1943
17613TIP3   OH274253   1.651   1.046  17.138  0.3409  0.4706 -0.7035
17613TIP3    H174254   1.697   1.129  17.124  0.8395  0.2280 -0.5452
17613TIP3    H274255   1.708   0.981  17.097 -0.4332  0.2975 -1.5089
17614TIP3   OH274256   1.742   1.651  16.906  0.0826 -0.0284  0.8454
17614TIP3    H174257   1.753   1.746  16.900 -4.6127  0.5972  0.1552
17614TIP3    H274258   1.734   1.622  16.815  0.5055 -0.9642  1.0967
17615TIP3   OH274259   3.231   4.142   4.993 -0.1901 -0.6196  0.4454
17615TIP3    H174260   3.296   4.104   4.934 -0.7266 -1.3079  0.2871
17615TIP3    H274261   3.147   4.126   4.949 -0.5233 -0.3802  0.9897
17616TIP3   OH274262   1.422   5.284   0.688  1.1211  0.2773 -0.2756
17616TIP3    H174263   1.476   5.207   0.702 -0.5144 -1.0705 -1.1453
17616TIP3    H274264   1.352   5.277   0.753  0.7482  0.8068 -0.6086
17617TIP3   OH274265   4.262   3.332  16.691  0.1674 -0.1078 -0.7803
17617TIP3    H174266   4.191   3.290  16.739  0.3723 -1.6114 -1.7906
17617TIP3    H274267   4.277   3.414  16.739  0.0485 -1.3495  1.4568
17618TIP3   OH274268   4.684   5.069   2.529  0.6396 -0.2815  0.4204
17618TIP3    H174269   4.711   5.098   2.442  1.8831 -0.8777  0.5918
17618TIP3    H274270   4.689   5.148   2.583 -0.1935  0.1029 -0.0451
17619TIP3   OH274271   5.417   0.685   3.785 -0.1906  0.0404  0.8068
17619TIP3    H174272   5.348   0.736   3.828 -1.2412 -0.0172 -0.7990
17619TIP3    H274273   5.438   0.616   3.849 -0.3933  1.0778  2.0161
17620TIP3   OH274274   0.386   4.721   4.210  0.1957 -0.0317 -0.7152
17620TIP3    H174275   0.460   4.773   4.241 -0.2539  0.0958  0.1623
17620TIP3    H274276   0.405   4.632   4.239  0.0824 -0.0312 -0.6408
17621TIP3   OH274277   5.465   3.363   5.688  0.0584 -0.8940 -0.3476
17621TIP3    H174278   5.424   3.288   5.644 -3.1026 -0.9660  2.5242
17621TIP3    H274279   5.412   3.438   5.660  1.3978 -0.1229 -0.8809
17622TIP3   OH274280   3.063   1.393  13.330 -0.7038  0.2674 -0.2931
17622TIP3    H174281   3.029   1.474  13.368 -0.5509  1.2185 -2.1288
17622TIP3    H274282   3.076   1.335  13.405 -0.7222  1.9683  1.0628
17623TIP3   OH274283   0.809   3.658   3.226  1.0458 -0.0276  0.0565
17623TIP3    H174284   0.837   3.688   3.313  1.3969  1.0172 -0.4165
17623TIP3    H274285   0.755   3.729   3.192  0.8415 -0.4700 -0.5459
17624TIP3   OH274286   5.977   0.287  13.878 -0.2050  0.2254 -0.2033
17624TIP3    H174287   5.897   0.292  13.827 -1.6368 -0.2544  1.9044
17624TIP3    H274288   6.011   0.199  13.862 -0.2604  0.3250 -0.8592
17625TIP3   OH274289   0.718   4.871   3.330  0.1308 -0.2994 -0.4444
17625TIP3    H174290   0.691   4.906   3.415 -1.6470 -1.1946 -0.6180
17625TIP3    H274291   0.811   4.895   3.323  0.8239 -1.7933  2.5481
17626TIP3   OH274292   5.639   0.079  16.192 -0.2526  0.1344  0.4081
17626TIP3    H174293   5.584   0.027  16.133 -1.3019  0.4617  1.0793
17626TIP3    H274294   5.700   0.124  16.134  0.7685 -1.9481 -0.1797
17627TIP3   OH274295   3.701   4.809  16.309  0.0957 -0.2324  0.2827
17627TIP3    H174296   3.797   4.805  16.299  0.2765  2.8270  0.3275
17627TIP3    H274297   3.667   4.789  16.222  0.8905  1.3797 -0.4197
17628TIP3   OH274298   2.337   5.236   1.073  0.3055 -0.2156  0.1138
17628TIP3    H174299   2.268   5.182   1.034 -0.0571  0.4985 -0.2380
17628TIP3    H274300   2.416   5.182   1.067  0.3287  0.0156 -1.9211
17629TIP3   OH274301   3.846   1.954  16.275 -0.2310  0.3574  0.3387
17629TIP3    H174302   3.924   1.989  16.232 -0.9928 -0.0514 -1.4588
17629TIP3    H274303   3.829   1.871  16.230  0.0738 -1.0657  2.8142
17630TIP3   OH274304   4.676   6.308  10.788 -0.0551 -0.2894 -0.3580
17630TIP3    H174305   4.592   6.331  10.828 -0.0636  0.0611 -0.5744
17630TIP3    H274306   4.734   6.292  10.862 -0.9393 -2.9315 -0.1691
17631TIP3   OH274307   6.277   3.668  11.751 -0.4664 -0.1822  0.1564
17631TIP3    H174308   6.309   3.747  11.795  0.4481 -0.3001 -0.2744
17631TIP3    H274309   6.189   3.655  11.786 -0.6105  0.9985  0.2687
17632TIP3   OH274310   2.658   6.037   5.597 -0.6610  0.0875 -0.4618
17632TIP3    H174311   2.700   6.112   5.554 -1.3110  1.1663  0.7278
17632TIP3    H274312   2.610   6.076   5.670  1.0596 -1.7422  1.7447
17633TIP3   OH274313   3.612   1.807  16.496 -0.0359  0.0945 -0.5832
17633TIP3    H174314   3.590   1.771  16.410  1.3263 -0.7409 -0.5905
17633TIP3    H274315   3.530   1.803  16.545 -0.2557 -1.7040 -1.0532
17634TIP3   OH274316   0.532   2.724   4.808  0.3468  0.0199  0.0942
17634TIP3    H174317   0.579   2.658   4.859  0.1307  0.4876  0.9057
17634TIP3    H274318   0.553   2.807   4.851 -0.3829  0.3470 -0.1779
17635TIP3   OH274319   2.627   4.614   4.900 -0.4865  0.0545  0.3425
17635TIP3    H174320   2.704   4.634   4.954  0.0844 -0.8706 -0.1066
17635TIP3    H274321   2.553   4.621   4.960  0.0654 -0.2575  1.0674
17636TIP3   OH274322   1.901   1.131  15.067 -0.3175 -0.4077  0.3131
17636TIP3    H174323   1.865   1.141  15.155 -1.0691 -1.3722  0.1225
17636TIP3    H274324   1.938   1.217  15.046  0.8038 -0.4651  1.9822
17637TIP3   OH274325   1.815   0.287   0.844 -0.5016  0.2101  0.2739
17637TIP3    H174326   1.786   0.373   0.815 -2.0593  0.1132  1.4481
17637TIP3    H274327   1.820   0.295   0.940  2.4806 -0.0684  0.1810
17638TIP3   OH274328   0.910   5.817  12.601 -0.1698 -0.8525 -0.3305
17638TIP3    H174329   0.871   5.788  12.683  0.5401  0.8506  0.6302
17638TIP3    H274330   0.857   5.893  12.575  1.9940  1.0250  0.6082
17639TIP3   OH274331   6.039   4.577   1.765 -0.0134  0.6054  0.7025
17639TIP3    H174332   6.038   4.636   1.690  0.5797  1.5165  1.3959
17639TIP3    H274333   6.026   4.634   1.841  0.0208 -0.2260  1.3428
17640TIP3   OH274334   0.238   3.653   5.510 -0.0163  0.0261 -0.1784
17640TIP3    H174335   0.185   3.650   5.589  0.2716  1.8615  0.1064
17640TIP3    H274336   0.179   3.686   5.443  0.0950 -0.2763 -0.4250
17641TIP3   OH274337   1.971   4.146   2.719  0.0163 -0.0613 -0.1201
17641TIP3    H174338   1.989   4.147   2.625 -0.5314 -0.8208 -0.2366
17641TIP3    H274339   1.997   4.233   2.749  1.7174 -0.3699 -0.6704
17642TIP3   OH274340   2.902   0.548   0.583 -0.0070  0.6312  0.0686
17642TIP3    H174341   2.876   0.507   0.500  0.1746  1.4475 -0.3955
17642TIP3    H274342   2.996   0.531   0.588  0.3554  2.2879 -0.8681
17643TIP3   OH274343   6.216   4.607  13.000 -0.2014  0.5681 -0.1587
17643TIP3    H174344   6.141   4.659  12.971  0.2553 -0.2664 -2.9315
17643TIP3    H274345   6.187   4.516  12.989  0.9154  0.2434 -0.4551
17644TIP3   OH274346   3.943   1.784   1.191 -0.3587  0.4661 -0.5440
17644TIP3    H174347   3.864   1.742   1.224 -0.9095  2.5322  0.8636
17644TIP3    H274348   4.010   1.715   1.194 -0.8952 -0.0113  2.9426
17645TIP3   OH274349   2.533   4.792  15.575 -0.1675 -0.1950 -0.6898
17645TIP3    H174350   2.588   4.781  15.652  0.1951  0.1683 -0.8969
17645TIP3    H274351   2.464   4.726  15.586 -0.6584  0.4857  0.4117
17646TIP3   OH274352   1.164   5.744   1.004 -0.0819  0.0828 -0.0774
17646TIP3    H174353   1.202   5.806   0.943  0.2284  0.4140  0.4475
17646TIP3    H274354   1.069   5.755   0.995 -0.0218  1.0511  0.4371
17647TIP3   OH274355   6.094   1.534  13.348 -0.0757  0.0620 -0.0595
17647TIP3    H174356   6.157   1.599  13.379 -0.0391 -0.1664  0.3502
17647TIP3    H274357   6.147   1.455  13.333 -0.2163 -0.0452  0.0081
17648TIP3   OH274358   5.479   3.726  10.743  0.4238  0.6115  0.5962
17648TIP3    H174359   5.566   3.728  10.782  0.8260 -0.9974 -0.1861
17648TIP3    H274360   5.494   3.727  10.649 -0.4064  0.3830  0.4545
17649TIP3   OH274361   1.091   6.177  17.069 -0.1759 -0.7303 -0.1795
17649TIP3    H174362   1.144   6.235  17.015  0.5765 -1.0912  0.1571
17649TIP3    H274363   1.145   6.161  17.147 -1.0379 -0.6110  0.4460
17650TIP3   OH274364   6.347   6.070  14.115 -0.0361 -0.0831 -0.1078
17650TIP3    H174365   6.430   6.034  14.146  0.2608 -1.2171 -2.1649
17650TIP3    H274366   6.360   6.164  14.116  1.3976 -0.2597 -0.7296
17651TIP3   OH274367   5.276   6.170  11.286 -0.7114  0.4530  0.0766
17651TIP3    H174368   5.298   6.233  11.218 -1.3926  1.3659  0.6859
17651TIP3    H274369   5.182   6.155  11.276 -0.7626  0.3734  0.6288
17652TIP3   OH274370   6.252   1.487   3.369  0.2762 -0.0190 -0.1657
17652TIP3    H174371   6.240   1.446   3.454 -1.5514  1.0709  0.1088
17652TIP3    H274372   6.165   1.517   3.343  1.2890  2.3681 -1.0249
17653TIP3   OH274373   5.395   0.628   6.136  0.1742  0.4570  0.1618
17653TIP3    H174374   5.442   0.605   6.055 -0.0327 -0.5483  0.3133
17653TIP3    H274375   5.303   0.628   6.110 -0.0678 -2.1533  0.9009
17654TIP3   OH274376   3.720   0.488  16.956 -0.0939 -0.1374 -0.0656
17654TIP3    H174377   3.734   0.432  17.033 -2.2428  0.5759  0.8985
17654TIP3    H274378   3.785   0.459  16.893  0.9950 -1.4877  1.6296
17655TIP3   OH274379   5.063   1.401   5.217 -0.3132 -0.6159 -0.0607
17655TIP3    H174380   5.011   1.382   5.139 -1.2956 -0.8013  0.6321
17655TIP3    H274381   5.003   1.447   5.276  0.8220  0.7815  0.0234
17656TIP3   OH274382   1.272   5.156  12.784 -0.6145 -0.3590  1.0059
17656TIP3    H174383   1.250   5.249  12.775  0.3383 -0.2984 -1.0093
17656TIP3    H274384   1.193   5.110  12.756 -0.7557 -0.1733  1.0925
17657TIP3   OH274385   2.481   1.670  16.425  0.2742  0.1666  0.5858
17657TIP3    H174386   2.487   1.591  16.370 -2.8869 -0.5503  1.1678
17657TIP3    H274387   2.470   1.635  16.514  1.3691  1.2967  1.1695
17658TIP3   OH274388   0.301   4.986  14.143 -0.4632 -0.1371 -0.2056
17658TIP3    H174389   0.326   5.042  14.070  1.2874  0.4843  0.8196
17658TIP3    H274390   0.287   4.899  14.104 -0.0253  0.2936 -1.3366
17659TIP3   OH274391   1.031   3.936   1.388 -0.1679  0.1412  0.4925
17659TIP3    H174392   1.110   3.980   1.420 -0.5202  0.6354  0.7001
17659TIP3    H274393   1.058   3.895   1.306 -0.3180  2.4232 -0.7563
17660TIP3   OH274394   6.547   6.069   5.093 -1.2109 -0.3824  0.4206
17660TIP3    H174395   6.489   6.001   5.127 -0.0122 -2.3617 -1.3244
17660TIP3    H274396   6.489   6.133   5.053 -2.4286  0.2661  3.1299
17661TIP3   OH274397   1.637   6.605  16.122  0.1721  0.2080  0.5628
17661TIP3    H174398   1.587   6.624  16.042 -2.9975 -2.7552  1.7105
17661TIP3    H274399   1.715   6.559  16.091  0.0753  1.0157 -0.9630
17662TIP3   OH274400   5.238   5.053  13.281 -0.0021  0.6089 -0.2129
17662TIP3    H174401   5.219   4.979  13.340 -1.3321 -0.0137 -1.4104
17662TIP3    H274402   5.333   5.049  13.269  0.1438  0.0727  1.0232
17663TIP3   OH274403   3.710   4.922   2.970 -0.1339  0.5690  0.2108
17663TIP3    H174404   3.691   4.837   2.931 -0.7028  0.9486 -0.3505
17663TIP3    H274405   3.688   4.912   3.063 -1.3031  0.4442 -0.0730
17664TIP3   OH274406   2.304   6.061   4.162  0.0383 -0.6527 -0.0591
17664TIP3    H174407   2.363   6.126   4.124 -0.5080 -0.5956 -0.8330
17664TIP3    H274408   2.268   6.103   4.240 -0.8950  0.2690 -0.9737
17665TIP3   OH274409   4.324   2.983  13.683  0.0673  0.4169 -0.0347
17665TIP3    H174410   4.416   2.970  13.661  0.2493  1.0162  0.3572
17665TIP3    H274411   4.287   2.895  13.685  1.0021  0.0439  1.4129
17666TIP3   OH274412   0.178   0.997   5.628  0.1574  0.2842  0.1219
17666TIP3    H174413   0.267   0.964   5.645  0.4570  0.3468 -1.2204
17666TIP3    H274414   0.180   1.021   5.535 -0.9627  1.2528  0.3438
17667TIP3   OH274415   3.253   4.712   4.357  0.0652 -0.2319  0.5627
17667TIP3    H174416   3.346   4.726   4.374  0.0389  0.2516  0.3105
17667TIP3    H274417   3.208   4.767   4.421 -0.0395  0.3508 -0.0025
17668TIP3   OH274418   4.659   5.192   5.914  0.0361 -0.0650  0.0793
17668TIP3    H174419   4.743   5.196   5.959 -0.5631 -1.1536  1.3259
17668TIP3    H274420   4.619   5.278   5.929 -0.4056 -0.6116  2.1426
17669TIP3   OH274421   5.735   2.558   4.477 -0.0347  0.7252 -0.4650
17669TIP3    H174422   5.686   2.477   4.464 -0.7979  1.4350 -2.1316
17669TIP3    H274423   5.677   2.613   4.529 -0.0624  0.7089 -0.4782
17670TIP3   OH274424   2.404   1.478   4.498 -0.1816 -0.1911 -0.6029
17670TIP3    H174425   2.479   1.469   4.557  0.4823 -0.8775 -1.5380
17670TIP3    H274426   2.340   1.528   4.548  0.2511 -1.0310  0.8075
17671TIP3   OH274427   4.527   3.875  16.166 -0.3154  0.4262 -0.6842
17671TIP3    H174428   4.469   3.945  16.136 -0.1284  1.4391  1.2436
17671TIP3    H274429   4.485   3.842  16.245 -0.2090 -1.4206 -1.3873
17672TIP3   OH274430   6.123   3.316   5.452  0.3932 -0.0630 -0.1028
17672TIP3    H174431   6.120   3.262   5.373 -3.0794 -0.7906  0.4361
17672TIP3    H274432   6.151   3.256   5.521  1.5239  0.1001 -0.4115
17673TIP3   OH274433   2.085   1.854  12.068  0.5950 -0.2288  0.4060
17673TIP3    H174434   2.074   1.820  11.979 -3.0422  1.5250  0.0790
17673TIP3    H274435   2.092   1.949  12.056  1.3752 -0.0865  1.9080
17674TIP3   OH274436   0.156   6.014   1.263 -0.1361  0.2260  0.4498
17674TIP3    H174437   0.159   6.063   1.346  1.0390 -1.1047  1.2163
17674TIP3    H274438   0.210   6.065   1.203  1.6668 -0.4572  1.4486
17675TIP3   OH274439   4.686   1.959  16.474 -0.2075 -0.2099  0.1796
17675TIP3    H174440   4.613   1.956  16.536  0.1867  2.0988  0.8035
17675TIP3    H274441   4.764   1.965  16.530  0.3926 -1.4549 -0.5042
17676TIP3   OH274442   6.538   4.616  15.016  0.8856  0.6963  0.5480
17676TIP3    H174443   6.497   4.668  15.085  1.2489  0.3375  1.0383
17676TIP3    H274444   6.631   4.616  15.039  0.8081 -0.7050  0.9160
17677TIP3   OH274445   6.185   3.366  11.125 -0.0933  0.7347 -0.1290
17677TIP3    H174446   6.197   3.271  11.116  2.1214  0.9085  0.8263
17677TIP3    H274447   6.129   3.389  11.051 -0.2571 -1.2443 -0.6648
17678TIP3   OH274448   0.556   0.884   4.373  0.1508 -0.7208  0.3186
17678TIP3    H174449   0.502   0.844   4.441  0.6767  0.5320  1.5069
17678TIP3    H274450   0.584   0.967   4.411  0.6803 -0.1217 -1.3341
17679TIP3   OH274451   5.199   0.657  14.288 -0.0746  0.2895 -0.0368
17679TIP3    H174452   5.206   0.750  14.268 -0.5341  0.5799  1.1162
17679TIP3    H274453   5.289   0.630  14.307  0.1142  0.4102 -0.7567
17680TIP3   OH274454   0.538   2.925   2.710 -0.2849  0.0666 -0.3271
17680TIP3    H174455   0.557   2.834   2.734 -0.6583  0.2034  0.4901
17680TIP3    H274456   0.544   2.973   2.792 -1.2829  0.5958 -0.5624
17681TIP3   OH274457   2.785   6.113   2.501  0.5275 -0.1306  0.0458
17681TIP3    H174458   2.840   6.037   2.483  1.5653  0.3948  0.9329
17681TIP3    H274459   2.741   6.130   2.418  2.1198 -0.2233 -0.8546
17682TIP3   OH274460   6.192   5.436  13.127  0.1207 -0.5608  0.7034
17682TIP3    H174461   6.265   5.409  13.181  0.5924  2.4176  1.6366
17682TIP3    H274462   6.224   5.428  13.037  1.2653 -0.2441  1.0758
17683TIP3   OH274463   6.366   4.826  16.053  0.2887  0.2872  0.3407
17683TIP3    H174464   6.314   4.749  16.077 -2.3194  2.2761  1.3034
17683TIP3    H274465   6.450   4.790  16.023 -0.2468 -2.8415  2.3672
17684TIP3   OH274466   5.639   0.414  11.922  0.1341  0.1032 -0.0151
17684TIP3    H174467   5.686   0.497  11.917  1.5865 -0.6597  0.8071
17684TIP3    H274468   5.593   0.408  11.838 -1.0739  2.3624  0.4473
17685TIP3   OH274469   1.419   4.365  15.075  0.0067 -0.2674  1.0830
17685TIP3    H174470   1.424   4.318  15.159  1.2700  0.2986  1.3333
17685TIP3    H274471   1.477   4.316  15.017 -1.5196 -1.1567  0.2794
17686TIP3   OH274472   2.827   6.444  13.542 -0.2562  0.2227  0.3273
17686TIP3    H174473   2.743   6.461  13.501 -0.8754 -1.6134  0.7859
17686TIP3    H274474   2.818   6.478  13.631  0.2540  1.9840 -0.2651
17687TIP3   OH274475   0.398   3.901  11.461 -0.5707  0.5403  0.3735
17687TIP3    H174476   0.352   3.984  11.472 -1.1834 -0.0664  2.7757
17687TIP3    H274477   0.329   3.835  11.460  0.0955 -0.2898  3.0069
17688TIP3   OH274478   0.970   2.507   3.482 -0.1440 -0.2029  0.0508
17688TIP3    H174479   0.963   2.587   3.534 -0.5764 -0.1944 -0.0168
17688TIP3    H274480   0.892   2.456   3.506  1.1848 -1.5154  1.6173
17689TIP3   OH274481   5.074   2.000  16.845 -0.7812  0.2635  0.0011
17689TIP3    H174482   5.144   2.055  16.812 -0.8850 -0.5707 -1.6502
17689TIP3    H274483   5.112   1.955  16.921 -0.8491  2.9298  1.6767
17690TIP3   OH274484   3.314   6.492  12.416  0.2020 -0.8009 -0.5402
17690TIP3    H174485   3.317   6.397  12.399  0.1654 -0.6338 -1.5350
17690TIP3    H274486   3.393   6.526  12.375  0.9445 -0.5708  1.0462
17691TIP3   OH274487   4.735   6.311   0.931 -0.4811 -0.2793  0.7134
17691TIP3    H174488   4.819   6.357   0.923  0.4698 -1.9333  1.0208
17691TIP3    H274489   4.671   6.381   0.942  0.0324  1.4590 -5.2372
17692TIP3   OH274490   5.076   5.960   2.513 -0.4276 -0.0903  0.6912
17692TIP3    H174491   5.120   5.965   2.428 -0.9497 -0.1152  0.4220
17692TIP3    H274492   5.120   5.889   2.558  0.5335  0.5807  0.8345
17693TIP3   OH274493   6.325   1.395   1.553 -0.0353  0.1170 -0.0772
17693TIP3    H174494   6.405   1.430   1.513 -0.1159  0.4318  0.0327
17693TIP3    H274495   6.354   1.317   1.601  0.0075 -0.4398 -1.0059
17694TIP3   OH274496   5.258   0.399  17.169 -0.0999 -0.2326  0.0739
17694TIP3    H174497   5.354   0.402  17.170 -0.0276  0.3572 -3.0807
17694TIP3    H274498   5.235   0.408  17.076 -3.1772 -1.5943  0.6469
17695TIP3   OH274499   2.628   6.163   1.771 -0.0390  0.2016 -0.0072
17695TIP3    H174500   2.687   6.132   1.839 -0.9482  1.1828  1.2651
17695TIP3    H274501   2.685   6.189   1.699  1.0099  0.2311  0.8279
17696TIP3   OH274502   2.470   6.704   1.595 -0.5780 -0.2027 -0.3742
17696TIP3    H174503   2.536   6.641   1.626  0.0181 -0.0660 -1.3364
17696TIP3    H274504   2.397   6.649   1.565 -0.3058 -0.4159 -0.6524
17697TIP3   OH274505   2.765   3.185   3.128  0.4685 -0.3116 -0.6845
17697TIP3    H174506   2.711   3.250   3.083  0.4901 -0.3524 -0.7710
17697TIP3    H274507   2.759   3.107   3.072 -1.5847 -1.1957  0.6876
17698TIP3   OH274508   5.040   3.777  11.893 -0.0043  0.4443  0.3416
17698TIP3    H174509   5.123   3.824  11.902  0.6683 -0.3966 -1.2734
17698TIP3    H274510   5.020   3.781  11.800 -2.0083  0.9995  0.7806
17699TIP3   OH274511   2.266   4.291  14.725  0.0048  0.3611  0.0999
17699TIP3    H174512   2.317   4.245  14.792  1.0843 -0.4738 -1.2747
17699TIP3    H274513   2.332   4.338  14.674 -0.7169  0.1092 -1.0574
17700TIP3   OH274514   2.365   6.637  15.225  1.0065 -0.8314  0.3333
17700TIP3    H174515   2.272   6.614  15.228  0.5871  0.7751 -0.0955
17700TIP3    H274516   2.408   6.568  15.276 -0.4089 -1.6178  0.4917
17701TIP3   OH274517   4.139   0.519  15.196  0.6463  0.4902 -0.3609
17701TIP3    H174518   4.136   0.427  15.170 -0.7453 -0.0132  1.4171
17701TIP3    H274519   4.158   0.516  15.290  0.3499  2.0111 -0.2399
17702TIP3   OH274520   6.173   2.547  16.859 -0.3072  0.0538  0.0034
17702TIP3    H174521   6.080   2.564  16.845  0.0051  1.5066 -0.3188
17702TIP3    H274522   6.180   2.451  16.860 -1.5288 -0.0716 -1.8348
17703TIP3   OH274523   3.169   1.339   4.296 -0.2182  0.1760  0.0815
17703TIP3    H174524   3.116   1.416   4.313  0.0583  0.7930 -1.7048
17703TIP3    H274525   3.133   1.302   4.215 -1.1878 -2.3394  1.5974
17704TIP3   OH274526   1.174   6.293   1.954  0.1033 -0.6920 -0.4015
17704TIP3    H174527   1.270   6.295   1.955  0.0711  0.9464  0.3633
17704TIP3    H274528   1.148   6.383   1.976 -1.6103 -1.5595  1.2311
17705TIP3   OH274529   3.898   3.115   4.537  0.2559  0.0865  0.7459
17705TIP3    H174530   3.926   3.063   4.613 -0.6451 -1.4518  0.0492
17705TIP3    H274531   3.828   3.063   4.497 -0.3945  1.6659 -0.2027
17706TIP3   OH274532   3.420   1.176  16.292 -0.8017 -0.1382 -0.1259
17706TIP3    H174533   3.358   1.103  16.296  0.7956 -1.6507 -1.9689
17706TIP3    H274534   3.417   1.205  16.201 -1.0945  1.8168  0.4987
17707TIP3   OH274535   5.320   6.412  15.505  0.2246  0.1456 -0.7519
17707TIP3    H174536   5.398   6.461  15.478 -0.0630  1.3865  0.6642
17707TIP3    H274537   5.332   6.326  15.464  4.0090 -0.8138  2.0953
17708TIP3   OH274538   4.513   5.866   4.605 -0.1502  0.0498  0.1748
17708TIP3    H174539   4.589   5.817   4.573 -1.4571 -1.6420 -0.3980
17708TIP3    H274540   4.459   5.801   4.649 -1.8641  0.9931 -0.4808
17709TIP3   OH274541   0.748   5.644  13.077 -0.3451 -0.0438 -0.4310
17709TIP3    H174542   0.765   5.552  13.096  1.5798  0.0880 -1.3227
17709TIP3    H274543   0.732   5.684  13.162  2.6710 -0.4922  0.4138
17710TIP3   OH274544   4.151   6.347  10.295  0.0703 -0.6858  0.6422
17710TIP3    H174545   4.189   6.429  10.266 -1.4416  0.2156  1.1387
17710TIP3    H274546   4.213   6.280  10.267 -0.2044  0.3356 -2.5886
17711TIP3   OH274547   6.275   2.125  13.465  0.3293 -0.3499 -0.5076
17711TIP3    H174548   6.225   2.168  13.534 -0.3147 -0.2309 -1.0475
17711TIP3    H274549   6.295   2.038  13.501  2.0022  0.5168  0.7536
17712TIP3   OH274550   2.937   4.425  14.164  0.0072  0.2948 -0.2586
17712TIP3    H174551   3.008   4.387  14.113  1.9864  0.7187  2.0747
17712TIP3    H274552   2.868   4.359  14.161  1.2738 -1.0231 -0.9227
17713TIP3   OH274553   2.267   0.508   2.843  0.5350  0.0030  0.2387
17713TIP3    H174554   2.254   0.445   2.773  0.5942  0.7865 -0.4772
17713TIP3    H274555   2.271   0.455   2.923  1.6265 -0.9856 -0.4695
17714TIP3   OH274556   1.232   2.522  15.327 -0.3120  0.5380  0.4810
17714TIP3    H174557   1.266   2.582  15.394 -1.5930  1.1035  0.6382
17714TIP3    H274558   1.236   2.573  15.246 -1.5107  0.8724  0.6340
17715TIP3   OH274559   1.673   0.767  14.651 -0.1168 -0.0994 -0.0970
17715TIP3    H174560   1.658   0.752  14.558 -1.5503 -1.3031  0.2950
17715TIP3    H274561   1.588   0.796  14.684  0.4037  0.4092  0.8208
17716TIP3   OH274562   0.434   2.189   5.355  0.2293  0.4582 -0.4989
17716TIP3    H174563   0.438   2.211   5.262  1.8640 -2.1319 -1.0874
17716TIP3    H274564   0.524   2.192   5.385 -0.2290  0.7503  0.8864
17717TIP3   OH274565   5.769   5.031   3.665  0.3800 -0.5819  0.1335
17717TIP3    H174566   5.722   5.113   3.684 -0.6136 -1.1659  0.2584
17717TIP3    H274567   5.825   5.017   3.741 -0.5112 -0.7519  0.7792
17718TIP3   OH274568   4.616   1.737   3.404  0.4793  0.3231  0.0541
17718TIP3    H174569   4.656   1.820   3.379 -0.3036  0.8152  0.4146
17718TIP3    H274570   4.619   1.684   3.324  1.7211  0.3957  0.0403
17719TIP3   OH274571   0.947   4.072  11.234 -0.1610 -0.2740 -0.3180
17719TIP3    H174572   0.975   3.995  11.282 -0.1496 -0.0980 -0.0400
17719TIP3    H274573   0.887   4.118  11.293 -0.7994 -0.4923 -0.7970
17720TIP3   OH274574   5.883   2.974  11.955 -0.3529  0.0652 -0.1038
17720TIP3    H174575   5.978   2.981  11.943 -0.3218 -0.1649  0.0159
17720TIP3    H274576   5.859   3.058  11.994 -0.0305 -0.3074  0.9202
17721TIP3   OH274577   5.557   3.492   2.647  0.4217  0.5356  0.2581
17721TIP3    H174578   5.634   3.457   2.693  2.2956  1.9015 -1.7603
17721TIP3    H274579   5.533   3.424   2.584 -1.4119 -0.8172  2.3188
17722TIP3   OH274580   3.479   6.170   0.598  0.0983 -0.4026  0.2826
17722TIP3    H174581   3.523   6.255   0.598 -3.3421  1.4759  2.2154
17722TIP3    H274582   3.474   6.145   0.690  0.4010 -2.3663 -0.2101
17723TIP3   OH274583   5.582   5.402  11.692  0.0837  0.0474  0.1318
17723TIP3    H174584   5.572   5.478  11.634  2.7618  2.0418  2.1759
17723TIP3    H274585   5.634   5.340  11.641  0.2895  0.7432 -0.5204
17724TIP3   OH274586   0.547   5.610   4.122  0.3755 -0.2320  0.0820
17724TIP3    H174587   0.469   5.558   4.103 -0.0539  0.5072 -0.1780
17724TIP3    H274588   0.620   5.552   4.100 -0.1038 -0.1141 -1.9065
17725TIP3   OH274589   5.980   0.588   2.846  0.2093  0.2657  0.4550
17725TIP3    H174590   6.045   0.644   2.888  0.2761  0.6701 -0.1752
17725TIP3    H274591   6.030   0.534   2.784 -0.0707  0.6861 -0.1450
17726TIP3   OH274592   6.751   1.135  12.907 -0.1125 -0.5894 -0.2835
17726TIP3    H174593   6.732   1.069  12.841 -1.8938  0.1206 -0.5026
17726TIP3    H274594   6.782   1.211  12.858 -0.6125 -0.3543 -0.2348
17727TIP3   OH274595   2.754   0.458   2.571  0.6581 -0.0798 -0.1145
17727TIP3    H174596   2.711   0.524   2.626  0.0168  0.6508 -1.4605
17727TIP3    H274597   2.840   0.445   2.612  0.4346  0.9159  0.7003
17728TIP3   OH274598   0.695   0.049  13.294  0.1517 -0.2943  0.0685
17728TIP3    H174599   0.714   0.098  13.373  1.0620  0.5851 -0.6827
17728TIP3    H274600   0.604   0.069  13.274  0.6953  1.6359 -0.5929
17729TIP3   OH274601   1.991   2.279   4.002 -0.0631  0.0555  0.4036
17729TIP3    H174602   1.970   2.256   3.912 -2.7952 -1.3057  1.3251
17729TIP3    H274603   2.047   2.208   4.033  0.3289  0.1866  0.0095
17730TIP3   OH274604   5.430   0.744   0.141  0.2167 -0.4119  0.7852
17730TIP3    H174605   5.378   0.813   0.181  1.1118 -0.1376  1.4899
17730TIP3    H274606   5.448   0.776   0.053 -1.3021 -0.7778  0.3222
17731TIP3   OH274607   1.538   1.886  16.744 -0.3352 -0.1654  0.0404
17731TIP3    H174608   1.596   1.943  16.694 -1.2974  1.2579  0.5251
17731TIP3    H274609   1.469   1.860  16.683 -1.1868  1.0986  0.4496
17732TIP3   OH274610   3.609   1.582   4.289 -0.2847  0.2402 -0.3419
17732TIP3    H174611   3.636   1.623   4.206  0.3817  0.7146  0.0949
17732TIP3    H274612   3.637   1.645   4.356  1.1346 -1.1232  0.3749
17733TIP3   OH274613   0.319   3.336   3.288 -0.2087  0.0676  0.0321
17733TIP3    H174614   0.408   3.325   3.256 -0.5067  0.0590 -0.8378
17733TIP3    H274615   0.321   3.308   3.379  0.7306  0.3143  0.0864
17734TIP3   OH274616   3.777   0.741   4.522 -0.1110  0.3562 -0.0951
17734TIP3    H174617   3.730   0.714   4.443 -0.9093 -0.6823  0.7213
17734TIP3    H274618   3.727   0.703   4.594  1.3462  0.1858  0.8503
17735TIP3   OH274619   5.615   1.857  15.371  0.2113 -0.0447 -0.2859
17735TIP3    H174620   5.666   1.868  15.451 -0.5536 -1.6535  0.4251
17735TIP3    H274621   5.612   1.945  15.333  3.0157  0.2228 -0.0438
17736TIP3   OH274622   3.991   5.431   0.194  0.3015  0.3598  0.0236
17736TIP3    H174623   3.924   5.462   0.133  0.2217  0.0115 -0.0649
17736TIP3    H274624   4.040   5.365   0.145 -0.2166 -0.4436  0.5636
17737TIP3   OH274625   6.442   1.531   3.180  0.2248  0.1568 -0.5805
17737TIP3    H174626   6.372   1.524   3.246  2.4632 -2.1450  1.6461
17737TIP3    H274627   6.438   1.449   3.132 -0.6613  1.3747 -2.6865
17738TIP3   OH274628   0.280   0.112   0.776  0.8289  0.3720  0.2241
17738TIP3    H174629   0.357   0.062   0.804  0.9297  0.1570 -0.4431
17738TIP3    H274630   0.315   0.191   0.735  0.6819  0.5872  0.5113
17739TIP3   OH274631   5.602   3.688  16.606 -0.2556 -0.2824  0.2751
17739TIP3    H174632   5.697   3.680  16.606 -0.3035 -2.3617 -3.4806
17739TIP3    H274633   5.582   3.741  16.528 -2.1855 -0.4659  0.6109
17740TIP3   OH274634   1.828   2.758   1.518 -0.1398 -0.2147 -0.6972
17740TIP3    H174635   1.820   2.808   1.599 -0.6398 -1.2069 -0.1149
17740TIP3    H274636   1.834   2.824   1.449 -0.3101  0.6390  0.0946
17741TIP3   OH274637   3.228   1.141  12.055  0.5706  0.6699  0.0842
17741TIP3    H174638   3.220   1.194  12.134  0.1742 -0.7360  1.0087
17741TIP3    H274639   3.273   1.061  12.083  1.4483  0.6330 -1.3456
17742TIP3   OH274640   5.238   1.384  17.010  0.3618 -0.3098 -0.3876
17742TIP3    H174641   5.185   1.435  17.071 -1.3356 -1.3764 -0.9195
17742TIP3    H274642   5.321   1.430  17.006 -0.3444  1.1329  0.8690
17743TIP3   OH274643   6.414   5.919  16.681  0.0677 -0.4508 -0.1585
17743TIP3    H174644   6.441   5.847  16.738 -3.4648 -0.7399  1.2810
17743TIP3    H274645   6.374   5.876  16.605 -2.6788 -0.1084  1.0248
17744TIP3   OH274646   5.391   4.606   4.795  0.4342  0.1747  0.6105
17744TIP3    H174647   5.329   4.658   4.744  1.6968  0.6576 -0.4581
17744TIP3    H274648   5.379   4.637   4.885 -1.1722 -0.0486  0.4934
17745TIP3   OH274649   4.235   3.966  12.586  0.7480 -0.1095 -0.1309
17745TIP3    H174650   4.272   3.944  12.671  0.9360  0.1985 -0.1320
17745TIP3    H274651   4.297   4.029  12.548 -0.3337  1.2695  0.3365
17746TIP3   OH274652   1.739   4.684  14.664 -0.1698  0.0618  0.4987
17746TIP3    H174653   1.711   4.605  14.710  0.1106  0.5814  1.5826
17746TIP3    H274654   1.676   4.694  14.593 -0.5984 -0.7734  0.7508
17747TIP3   OH274655   4.126   2.698  13.998  0.4553 -0.8813  0.2799
17747TIP3    H174656   4.044   2.649  13.989 -0.7299  0.6808  2.2227
17747TIP3    H274657   4.195   2.632  13.987 -1.0484 -2.3149 -0.8303
17748TIP3   OH274658   4.860   2.676  15.092 -0.7313  0.2521 -0.0103
17748TIP3    H174659   4.942   2.641  15.057  0.0040  0.7079  1.2182
17748TIP3    H274660   4.835   2.745  15.030  0.7463  1.2924  0.4988
17749TIP3   OH274661   5.484   2.053   6.544  0.3761  0.0571 -0.1301
17749TIP3    H174662   5.458   2.137   6.583 -1.2938  0.2081 -1.4741
17749TIP3    H274663   5.565   2.073   6.497  0.7747  0.5772  0.7727
17750TIP3   OH274664   5.448   3.857  16.851  0.2997  0.0952 -0.1531
17750TIP3    H174665   5.358   3.882  16.870 -1.0185 -3.9819 -0.6180
17750TIP3    H274666   5.453   3.856  16.755  0.1370 -1.8990 -0.1568
17751TIP3   OH274667   3.788   1.307  10.520  0.1710  0.6058 -0.7632
17751TIP3    H174668   3.774   1.263  10.604 -2.3521  2.2863 -0.2359
17751TIP3    H274669   3.725   1.267  10.460  1.4696 -0.0868 -1.6971
17752TIP3   OH274670   5.666   6.388   1.407  0.5712 -0.4661  0.2979
17752TIP3    H174671   5.738   6.324   1.403  2.2009  1.3985 -1.2579
17752TIP3    H274672   5.610   6.366   1.333 -0.4969 -1.9035  1.4935
17753TIP3   OH274673   2.213   2.432   0.965  0.1294  0.0727  0.3073
17753TIP3    H174674   2.307   2.425   0.949  0.2407  1.3109  0.3816
17753TIP3    H274675   2.201   2.521   0.998 -1.0304 -0.1767  0.5740
17754TIP3   OH274676   3.195   0.289   3.518  0.0998 -0.1813 -0.4227
17754TIP3    H174677   3.128   0.301   3.585 -0.6224 -0.7333 -1.0495
17754TIP3    H274678   3.182   0.200   3.485 -0.4460  0.5646 -2.2896
17755TIP3   OH274679   5.267   0.211  16.232  0.5561 -0.1823  0.2141
17755TIP3    H174680   5.260   0.287  16.174  0.0812  0.5310  1.1758
17755TIP3    H274681   5.182   0.207  16.276  2.1951  1.7142  3.7905
17756TIP3   OH274682   5.924   2.562   2.447  0.7541 -0.6021 -0.5866
17756TIP3    H174683   5.994   2.618   2.415  0.0431  0.1500 -0.8431
17756TIP3    H274684   5.966   2.504   2.511  0.8472  2.6512  2.4834
17757TIP3   OH274685   2.505   6.190   3.711  0.0844  0.0758 -0.1259
17757TIP3    H174686   2.420   6.147   3.720 -0.1148 -0.7247 -4.5703
17757TIP3    H274687   2.491   6.279   3.745 -2.9531  0.3923 -1.9913
17758TIP3   OH274688   2.780   4.608   2.007 -0.4241  0.3961 -0.0668
17758TIP3    H174689   2.812   4.683   1.957  1.0111 -0.6684 -0.8021
17758TIP3    H274690   2.842   4.600   2.080  0.8471 -1.4704 -1.2998
17759TIP3   OH274691   4.285   0.073   0.872 -0.3132  0.1017  0.1772
17759TIP3    H174692   4.274   0.115   0.958 -4.6408  0.4823 -0.4653
17759TIP3    H274693   4.282  -0.021   0.890  0.4330  0.1615  0.6221
17760TIP3   OH274694   6.715   4.344  14.191 -0.8269 -0.7402  0.0222
17760TIP3    H174695   6.726   4.290  14.269 -1.5971  0.3177  0.8732
17760TIP3    H274696   6.646   4.406  14.214 -0.0051  0.5612 -0.9755
17761TIP3   OH274697   5.262   1.599   5.193  0.1277  0.3837  0.5897
17761TIP3    H174698   5.350   1.587   5.230  0.0091 -1.1501  0.3925
17761TIP3    H274699   5.226   1.511   5.188 -1.7491  1.0791  1.4425
17762TIP3   OH274700   6.102   5.521   0.631 -0.0523  0.4808 -0.6213
17762TIP3    H174701   6.075   5.430   0.615 -0.2978  0.7784 -1.9871
17762TIP3    H274702   6.186   5.529   0.585 -0.6975  1.3203 -1.6881
17763TIP3   OH274703   3.273   2.700   2.943 -0.2558  0.2032 -0.3270
17763TIP3    H174704   3.255   2.744   3.025  0.9165 -2.0487  1.1907
17763TIP3    H274705   3.259   2.607   2.962  1.8034 -0.5267 -2.1368
17764TIP3   OH274706   0.141   4.661  10.727 -0.6797 -0.1078  0.0849
17764TIP3    H174707   0.139   4.595  10.657 -0.7192 -0.9703  0.8836
17764TIP3    H274708   0.130   4.744  10.682 -3.2400 -0.8302 -0.6898
17765TIP3   OH274709   4.087   3.258  15.663 -0.2642  0.3756  0.4759
17765TIP3    H174710   4.097   3.335  15.720 -0.0829  0.1619  0.7378
17765TIP3    H274711   4.162   3.202  15.686  0.0200  0.4525 -0.2390
17766TIP3   OH274712   1.044   2.467   4.549  0.5827  0.0331  0.4598
17766TIP3    H174713   1.026   2.507   4.634 -0.1882 -2.5451  1.5514
17766TIP3    H274714   1.055   2.374   4.568  3.3831 -0.1778 -1.8625
17767TIP3   OH274715   4.562   1.413  13.184 -0.1933 -0.5306  0.1651
17767TIP3    H174716   4.639   1.436  13.132  0.2542 -0.3358  0.9077
17767TIP3    H274717   4.532   1.330  13.147  0.9816 -1.1311  0.5288
17768TIP3   OH274718   1.314   6.255  14.567 -0.2312  0.5644  0.5274
17768TIP3    H174719   1.296   6.166  14.538 -0.1572  0.8510 -0.4421
17768TIP3    H274720   1.409   6.263  14.564 -0.2726  0.9037 -0.1304
17769TIP3   OH274721   5.766   4.989   2.900 -0.7931 -0.1754  0.5176
17769TIP3    H174722   5.838   4.937   2.934  0.5176  2.7084  2.3606
17769TIP3    H274723   5.766   4.971   2.806  0.7768 -2.0393  0.8491
17770TIP3   OH274724   6.271   4.193  13.010 -0.5448  0.8588  0.0809
17770TIP3    H174725   6.339   4.218  13.072 -1.3383 -0.6607  1.6258
17770TIP3    H274726   6.256   4.271  12.957  0.6206  1.9806  1.3641
17771TIP3   OH274727   2.499   6.265  13.611  0.1568 -0.1233 -0.3468
17771TIP3    H174728   2.492   6.170  13.618  2.1190 -0.3955 -1.7181
17771TIP3    H274729   2.508   6.295  13.702  2.9341 -1.5663 -0.0734
17772TIP3   OH274730   5.842   5.121   5.106  0.6778 -0.1182 -0.0488
17772TIP3    H174731   5.774   5.161   5.052  0.1787 -1.9859 -0.8396
17772TIP3    H274732   5.794   5.085   5.181  0.7938 -1.2915 -0.5245
17773TIP3   OH274733   1.536   5.760  14.361  0.5368  0.2089 -0.7268
17773TIP3    H174734   1.557   5.729  14.449  0.1598  0.1102 -0.6669
17773TIP3    H274735   1.475   5.833  14.375  1.0129  0.6401 -0.8844
17774TIP3   OH274736   5.712   3.700  13.761  0.6442 -0.3028 -0.3625
17774TIP3    H174737   5.708   3.785  13.716 -1.0172  0.3734  0.9715
17774TIP3    H274738   5.655   3.643  13.710 -1.8451  0.6709  1.2126
17775TIP3   OH274739   1.055   2.910  15.844 -0.6029 -0.3022  0.3452
17775TIP3    H174740   1.073   2.834  15.898 -1.8926 -0.2522  0.8637
17775TIP3    H274741   1.084   2.985  15.897 -0.3092 -0.3620  0.2686
17776TIP3   OH274742   2.717   0.328  13.361 -0.3882 -0.3202 -0.2987
17776TIP3    H174743   2.767   0.398  13.319  1.4880  0.2458  2.7322
17776TIP3    H274744   2.761   0.247  13.333  0.5209  0.0121  0.1489
17777TIP3   OH274745   5.138   1.050   4.418  0.9915  0.1157 -0.3193
17777TIP3    H174746   5.092   1.077   4.339 -1.3650 -2.0658  0.2691
17777TIP3    H274747   5.135   0.954   4.417  0.4152  0.0426  2.6670
17778TIP3   OH274748   0.599   1.219   1.666  0.4212  0.1782  0.2189
17778TIP3    H174749   0.659   1.292   1.651  0.0062  0.7801  1.4269
17778TIP3    H274750   0.630   1.179   1.748  0.9126 -1.2820 -0.6500
17779TIP3   OH274751   1.326   6.611   2.764  0.1128  0.3964 -0.2243
17779TIP3    H174752   1.237   6.587   2.788  0.9453 -2.6518  0.0887
17779TIP3    H274753   1.340   6.696   2.805 -2.3808  0.5564  0.3676
17780TIP3   OH274754   5.790   2.356  12.349 -0.5038 -0.5659  0.1033
17780TIP3    H174755   5.757   2.400  12.270 -0.7849 -0.3374  0.3461
17780TIP3    H274756   5.785   2.423  12.417 -0.3292 -0.7863  0.3346
17781TIP3   OH274757   6.147   4.877  13.833 -0.1566  0.0973  0.3245
17781TIP3    H174758   6.178   4.946  13.775 -0.9650  0.6871  0.6002
17781TIP3    H274759   6.202   4.885  13.911 -1.6400  1.7960  1.2291
17782TIP3   OH274760   6.773   0.957   6.437 -0.1470  0.1114  0.2233
17782TIP3    H174761   6.734   0.997   6.514 -0.3988 -1.2410  0.8133
17782TIP3    H274762   6.819   0.880   6.471 -1.2269 -1.1532 -1.1074
17783TIP3   OH274763   5.047   1.318   1.904  0.1172  0.5697 -0.1709
17783TIP3    H174764   5.115   1.284   1.963 -0.3117  0.1892  0.1046
17783TIP3    H274765   5.001   1.241   1.872 -1.5634  0.9169  1.3143
17784TIP3   OH274766   5.090   6.665  13.869  0.3951 -0.1871 -0.2180
17784TIP3    H174767   5.071   6.602  13.800 -0.7047  0.0347 -0.1207
17784TIP3    H274768   5.016   6.725  13.869  1.6183  1.3594 -0.5653
17785TIP3   OH274769   6.264   0.402  15.475  0.5052  0.1878  0.0382
17785TIP3    H174770   6.214   0.472  15.516 -1.0486 -1.7646  1.5708
17785TIP3    H274771   6.222   0.322  15.504  1.4755 -1.3835 -2.6699
17786TIP3   OH274772   2.819   1.410  12.216  0.3639  0.5663 -0.3681
17786TIP3    H174773   2.795   1.447  12.131  3.1283 -1.2429 -1.9891
17786TIP3    H274774   2.753   1.341  12.231 -0.1289  0.8849 -1.0333
17787TIP3   OH274775   4.335   5.627   3.053  0.3248  0.3102 -0.1981
17787TIP3    H174776   4.392   5.644   3.128  1.3135 -1.1279 -0.6091
17787TIP3    H274777   4.286   5.549   3.078 -0.6043  0.8358 -0.3512
17788TIP3   OH274778   3.251   5.623  13.406  0.4033 -0.6822 -0.1883
17788TIP3    H174779   3.199   5.555  13.363 -0.7833 -1.1115  1.8521
17788TIP3    H274780   3.316   5.576  13.458  2.1043 -0.1610 -1.7858
17789TIP3   OH274781   1.006   6.252   0.784 -0.4917  0.2335  0.0567
17789TIP3    H174782   0.936   6.217   0.839  0.4302 -2.0487 -0.1612
17789TIP3    H274783   1.087   6.226   0.828  0.2527  0.4964 -1.1083
17790TIP3   OH274784   0.396   5.701   5.523  0.0517 -0.1187  0.5930
17790TIP3    H174785   0.332   5.744   5.580  0.0737 -0.1621  0.6498
17790TIP3    H274786   0.480   5.718   5.565 -0.1532 -2.5050  2.1030
17791TIP3   OH274787   5.182   6.236  16.758  0.4175 -0.1157  0.1940
17791TIP3    H174788   5.199   6.308  16.697  0.8863  0.6132  1.1656
17791TIP3    H274789   5.227   6.161  16.720  2.2641  0.7766  0.5620
17792TIP3   OH274790   4.005   0.409   0.979  0.0716 -0.7575 -0.0089
17792TIP3    H174791   3.993   0.504   0.978 -0.1145 -0.7706 -2.1610
17792TIP3    H274792   4.092   0.395   0.943 -0.4696 -1.4480 -1.0821
17793TIP3   OH274793   3.145   4.680  13.674 -0.0733  0.3093 -0.3304
17793TIP3    H174794   3.154   4.765  13.717  1.6399 -1.2893  2.7016
17793TIP3    H274795   3.074   4.637  13.721 -0.7291 -0.0835 -1.6490
17794TIP3   OH274796   6.576   0.639  14.032 -0.5112  0.1857 -0.1752
17794TIP3    H174797   6.552   0.696  14.105 -2.4250  0.2409 -0.8074
17794TIP3    H274798   6.507   0.652  13.967  1.6161  0.7901 -2.4038
17795TIP3   OH274799   2.292   4.251  14.190  0.3404 -0.3425 -0.3740
17795TIP3    H174800   2.216   4.250  14.132 -0.5386  0.2847  0.7580
17795TIP3    H274801   2.361   4.290  14.137 -0.9714  2.0244 -0.3981
17796TIP3   OH274802   3.114   3.185  15.538 -0.2118 -0.0099  0.2799
17796TIP3    H174803   3.084   3.100  15.507  0.7120 -0.5720  0.9225
17796TIP3    H274804   3.174   3.166  15.610 -0.6443  1.2088  0.9951
17797TIP3   OH274805   5.941   2.438   2.113  0.1198  0.1081 -0.6126
17797TIP3    H174806   6.001   2.391   2.172  0.8051  1.7509  0.0277
17797TIP3    H274807   5.898   2.503   2.169 -1.2649 -0.1497 -1.3661
17798TIP3   OH274808   6.579   0.873  17.185  0.1156 -0.7424 -0.5816
17798TIP3    H174809   6.538   0.864  17.271  0.1999 -1.0238 -0.5679
17798TIP3    H274810   6.509   0.853  17.123 -0.0778 -0.0310 -0.5895
17799TIP3   OH274811   1.660   5.180   0.313 -0.2376 -0.2940 -0.5671
17799TIP3    H174812   1.614   5.145   0.390 -0.5282 -0.9887 -1.0591
17799TIP3    H274813   1.660   5.275   0.327 -0.0767 -0.4333  0.4093
17800TIP3   OH274814   4.358   0.776   1.541 -0.1831 -0.0943 -0.2319
17800TIP3    H174815   4.395   0.691   1.565 -0.8337 -0.0090  1.1711
17800TIP3    H274816   4.269   0.755   1.510 -0.5496  0.1176  0.6592
17801TIP3   OH274817   4.150   3.992  11.645 -0.2588  0.0441 -0.0467
17801TIP3    H174818   4.209   3.952  11.581 -0.4177  1.2301 -0.9406
17801TIP3    H274819   4.204   4.056  11.691 -0.6311  0.5195 -0.2732
17802TIP3   OH274820   3.925   4.403  11.655  0.3192 -0.7502 -0.6067
17802TIP3    H174821   3.934   4.435  11.566 -3.1524  0.5389 -0.5959
17802TIP3    H274822   3.849   4.345  11.652 -0.2894 -0.1327  1.6251
17803TIP3   OH274823   6.024   0.462   3.142  0.3249 -0.7205 -0.2583
17803TIP3    H174824   6.003   0.504   3.059  0.5152  0.6014  0.3521
17803TIP3    H274825   5.939   0.440   3.180  0.1064  1.5465  0.6407
17804TIP3   OH274826   1.253   3.442  12.618  0.1470 -0.1776 -0.2631
17804TIP3    H174827   1.257   3.501  12.543  0.3542  1.0053  0.6488
17804TIP3    H274828   1.192   3.373  12.592 -1.7394  1.5668 -0.5953
17805TIP3   OH274829   5.530   5.362  14.032 -0.2207 -0.0378 -0.1708
17805TIP3    H174830   5.473   5.351  14.108  0.7194 -2.3230  0.2501
17805TIP3    H274831   5.618   5.344  14.066  0.6221  2.1455 -1.0989
17806TIP3   OH274832   2.955   2.809  14.510 -0.0035  0.3508  0.5682
17806TIP3    H174833   3.028   2.866  14.535 -0.9437  1.5376  0.6394
17806TIP3    H274834   2.878   2.867  14.509 -0.8769 -0.7962  0.0978
17807TIP3   OH274835   4.861   1.311  14.618 -0.1503 -0.0091  0.6386
17807TIP3    H174836   4.912   1.230  14.612  0.7303  0.6047 -0.3121
17807TIP3    H274837   4.925   1.378  14.641 -0.4512  0.8487 -1.0128
17808TIP3   OH274838   1.343   4.708  14.331  0.9932 -0.7728  0.4939
17808TIP3    H174839   1.352   4.630  14.278  3.5149  0.6150 -1.2382
17808TIP3    H274840   1.404   4.695  14.403  0.2509 -1.0650  1.0802
17809TIP3   OH274841   5.953   2.502  14.222  0.9640 -0.1408 -0.0684
17809TIP3    H174842   5.987   2.581  14.263  2.7244 -1.6973  1.5719
17809TIP3    H274843   5.952   2.522  14.128 -1.2318  2.7538  0.4972
17810TIP3   OH274844   4.557   5.049  11.815  0.1468  0.0845 -0.0254
17810TIP3    H174845   4.630   5.016  11.762 -0.1684  0.3545 -0.6296
17810TIP3    H274846   4.542   5.137  11.782  0.3529  0.4894  0.9362
17811TIP3   OH274847   4.073   2.333  14.836 -0.0480  0.2172  0.1927
17811TIP3    H174848   4.086   2.413  14.885  1.9757 -0.7914  1.3585
17811TIP3    H274849   3.981   2.310  14.851  0.3640  0.2707  2.9823
17812TIP3   OH274850   1.287   6.271   5.970  0.4847 -0.3975 -0.1609
17812TIP3    H174851   1.200   6.267   6.008  0.2797 -0.0460 -0.5856
17812TIP3    H274852   1.304   6.365   5.959  0.1470 -0.5159 -1.8322
17813TIP3   OH274853   4.520   6.756   3.761 -0.0999  0.2278 -0.7249
17813TIP3    H174854   4.564   6.672   3.753 -0.7708 -0.1114 -0.8698
17813TIP3    H274855   4.497   6.780   3.672  0.4667  0.7748 -0.7307
17814TIP3   OH274856   2.517   0.851   1.045 -0.2948  0.2385  0.4819
17814TIP3    H174857   2.536   0.928   0.990  0.5775 -1.2134 -1.3058
17814TIP3    H274858   2.586   0.788   1.022 -1.1968 -1.2030  1.6653
17815TIP3   OH274859   1.649   3.396  12.588  0.1425 -0.7164 -0.2144
17815TIP3    H174860   1.574   3.387  12.529  0.1760  1.7992 -0.6775
17815TIP3    H274861   1.615   3.445  12.663  0.7038 -1.8280  0.7913
17816TIP3   OH274862   6.141   0.787   2.907 -0.4065  0.1656  0.1059
17816TIP3    H174863   6.215   0.749   2.860 -0.7996 -0.2542 -0.1749
17816TIP3    H274864   6.179   0.822   2.987  0.1158  0.0518 -0.0925
17817TIP3   OH274865   6.100   2.452   1.614 -0.4750  0.3528 -0.5953
17817TIP3    H174866   6.025   2.511   1.618  1.1348  2.4560 -0.3904
17817TIP3    H274867   6.166   2.501   1.565  1.1981 -0.9557  0.2989
17818TIP3   OH274868   3.073   5.036  10.955  0.2205  0.4972  0.2929
17818TIP3    H174869   2.984   5.071  10.961  0.7228  1.8843 -0.1569
17818TIP3    H274870   3.122   5.103  10.907  0.6150 -1.9780 -2.9389
17819TIP3   OH274871   1.172   0.871  12.371 -0.6506 -0.4658  0.4964
17819TIP3    H174872   1.083   0.906  12.378 -0.0932  0.8567  0.9510
17819TIP3    H274873   1.228   0.947  12.362  0.3263 -1.3594 -1.2485
17820TIP3   OH274874   1.514   4.572  12.652 -0.0695  0.6146 -0.1220
17820TIP3    H174875   1.471   4.658  12.649  0.6090  0.9195 -1.3652
17820TIP3    H274876   1.596   4.585  12.606 -1.2765 -1.4196 -2.9546
17821TIP3   OH274877   3.544   2.246  11.054  0.2182 -0.1380  0.7365
17821TIP3    H174878   3.542   2.216  11.145  0.5622 -2.4936  0.0128
17821TIP3    H274879   3.481   2.318  11.051 -0.0306 -0.2333  2.7525
17822TIP3   OH274880   2.857   5.688   4.161 -0.4132  0.0125  0.2187
17822TIP3    H174881   2.889   5.758   4.219  1.8260  1.1976 -2.3026
17822TIP3    H274882   2.791   5.731   4.107 -0.0310 -0.1958 -0.4087
17823TIP3   OH274883   5.753   3.649   0.197  0.6530 -0.3602 -0.0855
17823TIP3    H174884   5.848   3.659   0.192  0.8705 -1.6889  1.0777
17823TIP3    H274885   5.718   3.736   0.177  2.1435  0.3734  0.4427
17824TIP3   OH274886   0.829   5.706  15.796 -0.2892 -0.0247  0.0791
17824TIP3    H174887   0.826   5.654  15.715 -0.8021  0.4813 -0.2297
17824TIP3    H274888   0.757   5.768  15.787  0.4731  0.9067  0.3361
17825TIP3   OH274889   0.890   5.744   3.418 -0.0885  0.3420 -0.0976
17825TIP3    H174890   0.957   5.698   3.469 -1.5101 -2.7724 -0.9562
17825TIP3    H274891   0.928   5.754   3.331  0.0141  0.3348 -0.0536
17826TIP3   OH274892   6.016   0.273   5.559 -0.4591  0.2132 -0.2343
17826TIP3    H174893   5.973   0.358   5.564  1.6730  1.2734  0.6801
17826TIP3    H274894   5.983   0.225   5.636 -1.7083  0.1781 -0.7853
17827TIP3   OH274895   2.091   6.721  12.123  0.4504 -0.0485 -0.2431
17827TIP3    H174896   2.147   6.786  12.082  0.4879  0.3300  0.4059
17827TIP3    H274897   2.150   6.672  12.181  0.5161 -0.9499 -1.0459
17828TIP3   OH274898   4.700   5.953  14.372  0.4186 -0.1802 -0.6767
17828TIP3    H174899   4.718   5.970  14.465 -0.1437  0.5442 -0.6967
17828TIP3    H274900   4.776   5.990  14.327 -0.1288  1.0346 -0.6180
17829TIP3   OH274901   4.130   3.058   3.872  0.1947 -0.2451  0.4007
17829TIP3    H174902   4.171   3.090   3.952 -0.1856 -1.4337  1.0820
17829TIP3    H274903   4.112   3.136   3.821 -0.4720  0.6191  1.9222
17830TIP3   OH274904   2.949   4.407   2.236  0.1613  0.0462 -0.0881
17830TIP3    H174905   2.880   4.455   2.282  0.0842  0.1296 -0.2929
17830TIP3    H274906   2.912   4.320   2.220 -0.6991  0.7755 -2.1307
17831TIP3   OH274907   0.952   1.980  13.196 -0.5325  0.1009  0.4853
17831TIP3    H174908   0.925   1.896  13.160 -1.7718  1.2567 -1.4239
17831TIP3    H274909   1.036   1.963  13.239 -1.1990 -2.2674  0.9197
17832TIP3   OH274910   5.716   3.464   2.296 -0.0997  0.1707 -1.0048
17832TIP3    H174911   5.708   3.549   2.340  0.8676  0.5659 -1.5641
17832TIP3    H274912   5.626   3.432   2.288 -0.3060  0.2300  0.9824
17833TIP3   OH274913   4.352   3.194   2.781  0.1711  0.0370 -0.3431
17833TIP3    H174914   4.392   3.113   2.812 -0.4632 -0.5109 -0.9180
17833TIP3    H274915   4.411   3.263   2.809  0.1120 -0.5290  1.1824
17834TIP3   OH274916   4.219   4.205  15.863  0.6735  0.7251 -0.3496
17834TIP3    H174917   4.263   4.194  15.779  2.2298  1.1875  0.3900
17834TIP3    H274918   4.234   4.297  15.885  2.3162  0.0204  1.5596
17835TIP3   OH274919   0.996   1.917   4.913 -0.1034  0.1320  0.1912
17835TIP3    H174920   0.946   1.952   4.840 -1.5095 -1.4622  0.3630
17835TIP3    H274921   1.072   1.874   4.872 -0.1471  0.4464 -0.2219
17836TIP3   OH274922   6.306   5.395   2.234 -0.6678  0.1060 -0.7517
17836TIP3    H174923   6.279   5.478   2.274 -0.8664 -0.1156 -0.4219
17836TIP3    H274924   6.278   5.402   2.143  0.9337  1.1311 -1.1732
17837TIP3   OH274925   4.178   3.101  13.293 -0.3559  0.1063 -0.0750
17837TIP3    H174926   4.160   3.167  13.226 -2.0916 -0.0507  0.1991
17837TIP3    H274927   4.235   3.145  13.355  0.0409  0.7386 -0.8767
17838TIP3   OH274928   1.943   5.987  15.950  0.3004 -0.1024 -0.5122
17838TIP3    H174929   1.956   5.958  15.859  2.6186 -0.1916 -0.1977
17838TIP3    H274930   2.032   6.002  15.982 -0.5851  1.2569  1.3258
17839TIP3   OH274931   2.979   4.498   1.036 -0.6854 -0.6984 -0.3478
17839TIP3    H174932   3.030   4.426   0.999  2.8793  0.4726  1.9388
17839TIP3    H274933   2.999   4.573   0.979 -0.6217 -0.4603 -0.0143
17840TIP3   OH274934   5.281   4.086   4.566 -0.1186 -0.3691 -0.3097
17840TIP3    H174935   5.211   4.030   4.601  0.9519 -0.4348  1.7839
17840TIP3    H274936   5.354   4.073   4.626  1.4693  0.2570 -2.0792
17841TIP3   OH274937   1.198   2.674   0.799 -0.4279 -0.0771  0.4905
17841TIP3    H174938   1.263   2.605   0.785  0.5938  0.1120  3.8154
17841TIP3    H274939   1.145   2.643   0.873 -0.1723  2.4906  1.7974
17842TIP3   OH274940   2.789   1.008  10.251  0.2950  0.5392  0.8462
17842TIP3    H174941   2.772   1.101  10.243  0.3321  0.3392 -1.9826
17842TIP3    H274942   2.709   0.965  10.221  1.2745 -0.3468 -0.5270
17843TIP3   OH274943   6.356   3.860   5.128 -0.3372  0.7051  0.5724
17843TIP3    H174944   6.324   3.869   5.038 -0.8006 -2.7827  0.2983
17843TIP3    H274945   6.450   3.878   5.121 -0.0628 -1.1242 -0.9640
17844TIP3   OH274946   1.361   6.167  16.777 -0.3664 -0.0216  0.7159
17844TIP3    H174947   1.386   6.110  16.704  0.5068 -0.6744  1.5124
17844TIP3    H274948   1.321   6.243  16.735 -0.6069 -0.7559 -0.4088
17845TIP3   OH274949   6.350   6.476   0.485  0.4019  0.0753 -0.7693
17845TIP3    H174950   6.425   6.429   0.520  0.8737 -0.3742 -2.3428
17845TIP3    H274951   6.311   6.416   0.422 -0.7251  0.6754 -0.6569
17846TIP3   OH274952   5.902   0.896   0.525  0.2043  0.2689 -0.1692
17846TIP3    H174953   5.949   0.970   0.563 -0.0733  0.1017  0.5164
17846TIP3    H274954   5.945   0.880   0.441  1.5755 -0.0731  0.5733
17847TIP3   OH274955   5.632   1.185   4.966 -0.7277  0.1196 -0.7179
17847TIP3    H174956   5.631   1.120   4.896 -1.6081 -1.7866  0.9909
17847TIP3    H274957   5.723   1.187   4.995 -0.3001  1.1381 -2.0896
17848TIP3   OH274958   4.018   3.697   1.362 -0.6007 -0.3477  0.1090
17848TIP3    H174959   3.992   3.653   1.281  0.3359 -0.5308 -0.0973
17848TIP3    H274960   3.972   3.649   1.431  0.0158 -1.3484 -0.1575
17849TIP3   OH274961   3.930   5.287   4.126  0.1411 -0.6134  0.4415
17849TIP3    H174962   3.862   5.284   4.059 -1.6410  0.9248  2.1403
17849TIP3    H274963   3.886   5.258   4.206  1.2406  1.2990  1.7514
17850TIP3   OH274964   3.976   5.482   3.450  0.5578  0.4944 -0.3093
17850TIP3    H174965   3.930   5.514   3.373  1.3097 -1.3751 -1.5818
17850TIP3    H274966   3.923   5.513   3.524 -0.5783  1.6897 -1.5956
17851TIP3   OH274967   6.098   5.401  15.497  0.5908 -0.1316  0.3091
17851TIP3    H174968   6.155   5.478  15.499  0.0543  0.2718  0.0241
17851TIP3    H274969   6.031   5.422  15.432  0.1893 -0.6605  0.5501
17852TIP3   OH274970   0.467   1.159  13.664 -0.3927  0.2834 -0.5662
17852TIP3    H174971   0.422   1.241  13.647 -0.1955  0.7539  1.1729
17852TIP3    H274972   0.559   1.177  13.645 -0.4305  0.2913 -0.7450
17853TIP3   OH274973   1.390   3.079   0.536  0.6699  0.1100  0.5077
17853TIP3    H174974   1.478   3.053   0.561  0.3225 -3.2580 -1.4169
17853TIP3    H274975   1.332   3.027   0.591 -0.1033  0.9736  0.5231
17854TIP3   OH274976   3.838   3.032  14.944  0.5120 -0.3970 -0.2602
17854TIP3    H174977   3.767   3.002  15.001  0.2209 -0.1668 -0.5092
17854TIP3    H274978   3.918   3.012  14.994  0.3492 -2.0085 -0.6124
17855TIP3   OH274979   5.290   5.556   1.392 -0.6872  0.1054 -0.2672
17855TIP3    H174980   5.334   5.605   1.322 -0.8869  0.9081  0.1561
17855TIP3    H274981   5.256   5.624   1.450  0.5438 -0.5515  1.2695
17856TIP3   OH274982   6.069   3.874  11.824 -0.0234 -0.5812  0.0359
17856TIP3    H174983   6.164   3.875  11.835 -0.0157 -2.1202  0.2374
17856TIP3    H274984   6.038   3.950  11.874  1.1875  0.7040 -1.1113
17857TIP3   OH274985   5.660   5.274   2.365 -0.0254 -0.3960  0.0687
17857TIP3    H174986   5.703   5.297   2.448  0.3083  0.4873 -0.3415
17857TIP3    H274987   5.578   5.233   2.391  0.5958 -1.1646  0.8533
17858TIP3   OH274988   0.483   5.316   0.822  0.0517 -0.3480 -0.2994
17858TIP3    H174989   0.468   5.297   0.729  0.3869 -0.5128 -0.3185
17858TIP3    H274990   0.574   5.291   0.838 -0.2365 -1.0506  0.2627
17859TIP3   OH274991   0.651   2.361   1.598  0.0419  0.5575 -0.2878
17859TIP3    H174992   0.604   2.445   1.595  0.8054  0.9525 -1.4381
17859TIP3    H274993   0.582   2.296   1.609 -0.7359  1.1994 -1.1978
17860TIP3   OH274994   5.996   3.267  12.304 -0.7923 -0.0294 -0.0776
17860TIP3    H174995   5.971   3.351  12.343  0.5037  0.1769  0.3176
17860TIP3    H274996   5.930   3.205  12.336  0.0428  0.2017  2.1568
17861TIP3   OH274997   1.323   1.290   5.504  0.4235  0.5659  0.2329
17861TIP3    H174998   1.398   1.267   5.558  1.7427  2.2426 -0.8200
17861TIP3    H274999   1.323   1.385   5.501 -0.8085  0.5567 -1.0613
17862TIP3   OH275000   0.081   6.601   5.386 -0.0793  0.4493  0.6326
17862TIP3    H175001   0.028   6.558   5.319  0.6929  1.1474 -0.4456
17862TIP3    H275002   0.147   6.535   5.410 -1.1751 -0.2788  1.6935
17863TIP3   OH275003   1.289   3.406  13.745  0.5238  0.3505  0.1730
17863TIP3    H175004   1.223   3.417  13.814  1.9342  0.8067  1.4600
17863TIP3    H275005   1.242   3.361  13.675 -1.2953  1.1044  0.8782
17864TIP3   OH275006   1.988   4.845   4.904  0.2479  0.0070  0.4822
17864TIP3    H175007   2.021   4.865   4.992 -2.4303  1.8196  1.1377
17864TIP3    H275008   1.968   4.930   4.866  0.8807 -0.7938 -1.7216
17865TIP3   OH275009   6.461   2.605  11.802  0.4773  0.0332 -0.3831
17865TIP3    H175010   6.401   2.668  11.844  2.2088  0.4752  1.4987
17865TIP3    H275011   6.435   2.520  11.839  0.6901  0.1576  0.0534
17866TIP3   OH275012   4.066   5.190  12.550  0.1394 -0.2598  0.6737
17866TIP3    H175013   4.160   5.187  12.564  0.4135  5.1810  0.9970
17866TIP3    H275014   4.055   5.178  12.456  1.3704  1.4025  0.3046
17867TIP3   OH275015   0.619   5.357  14.966 -0.1581 -0.1880  0.2314
17867TIP3    H175016   0.634   5.271  15.004  0.0765  0.4243  1.5491
17867TIP3    H275017   0.524   5.366  14.963 -0.1750 -0.1058  0.9812
17868TIP3   OH275018   3.253   4.221   3.329  0.0830  0.3613  0.4357
17868TIP3    H175019   3.282   4.154   3.392  1.0330 -0.0535 -0.4395
17868TIP3    H275020   3.327   4.282   3.323 -0.4875  1.0862  0.6503
17869TIP3   OH275021   6.654   0.966   3.535 -0.8251  0.1993  0.6857
17869TIP3    H175022   6.737   0.935   3.499 -0.3776  0.9943  1.0232
17869TIP3    H275023   6.601   0.887   3.544 -1.8828  0.2314 -4.0426
17870TIP3   OH275024   2.747   0.881   2.224 -0.0049 -0.1078 -0.2110
17870TIP3    H175025   2.740   0.954   2.162 -2.0745 -0.7684 -0.7894
17870TIP3    H275026   2.811   0.911   2.289  0.3746  1.5646 -1.3247
17871TIP3   OH275027   1.303   0.770  11.654 -0.5913  0.6059  0.7316
17871TIP3    H175028   1.219   0.780  11.611 -0.1855  1.4511  0.1115
17871TIP3    H275029   1.293   0.816  11.737 -0.7122  0.7843  0.6179
17872TIP3   OH275030   5.557   3.964  15.639  0.1362 -0.7748  0.3129
17872TIP3    H175031   5.619   4.037  15.642 -1.8125  1.0229 -1.2113
17872TIP3    H275032   5.585   3.912  15.563 -1.1612  0.9850 -1.4329
17873TIP3   OH275033   0.394   5.479  12.362  0.2026  0.1352  0.2050
17873TIP3    H175034   0.337   5.403  12.353  0.8223 -0.3749  0.6014
17873TIP3    H275035   0.405   5.511  12.272  0.3645 -0.5493 -0.0201
17874TIP3   OH275036   2.075   5.034  15.124  0.6860 -0.0068 -0.0395
17874TIP3    H175037   2.052   5.070  15.210 -0.7968  0.1083 -0.4826
17874TIP3    H275038   2.046   4.942  15.129  0.5417  0.0186 -0.4454
17875TIP3   OH275039   1.128   5.771  16.101  0.7658 -0.5584  0.4075
17875TIP3    H175040   1.198   5.731  16.049 -1.5677 -1.3396 -2.2695
17875TIP3    H275041   1.125   5.718  16.181  2.3806 -1.3112 -0.0019
17876TIP3   OH275042   3.963   5.447  10.562  0.0269  0.1118  0.3715
17876TIP3    H175043   4.036   5.386  10.570  0.1750  0.1047 -0.8760
17876TIP3    H275044   3.963   5.472  10.469 -1.6008  0.0553  0.3478
17877TIP3   OH275045   6.603   5.626   2.128 -0.3674  0.4968  0.7369
17877TIP3    H175046   6.586   5.695   2.192 -1.2172 -0.9235  2.0853
17877TIP3    H275047   6.675   5.576   2.165 -0.2029  0.2534  0.0977
17878TIP3   OH275048   5.507   2.514  11.910  0.0283  0.1345 -0.3597
17878TIP3    H175049   5.438   2.481  11.852 -0.5338  0.6897  0.0020
17878TIP3    H275050   5.581   2.456  11.892 -0.1380  0.2907 -1.6378
17879TIP3   OH275051   5.729   0.126  11.638 -0.0532 -0.0481  0.2291
17879TIP3    H175052   5.769   0.203  11.680  0.4673 -1.6304  2.7357
17879TIP3    H275053   5.796   0.095  11.577 -0.3146  1.5424 -0.8920
17880TIP3   OH275054   6.019   4.448  12.911 -0.2193  0.5121 -0.0321
17880TIP3    H175055   5.942   4.410  12.868 -0.0278  1.8292 -1.5949
17880TIP3    H275056   5.986   4.484  12.993 -1.3975  1.5367 -0.9355
17881TIP3   OH275057   3.332   3.469  16.488 -0.3291 -0.4149 -0.2748
17881TIP3    H175058   3.242   3.465  16.521 -0.2416 -1.0171 -0.1049
17881TIP3    H275059   3.337   3.401  16.422  0.0635 -0.5253 -0.1356
17882TIP3   OH275060   1.022   6.407  12.878 -0.2326  0.3384 -0.1276
17882TIP3    H175061   0.953   6.403  12.812 -1.0672  0.7767  0.7152
17882TIP3    H275062   1.096   6.448  12.832 -0.6753  0.2816 -0.9010
17883TIP3   OH275063   2.071   0.743  12.740  0.5226 -0.4807 -0.1575
17883TIP3    H175064   2.000   0.756  12.802  3.0649  0.3524  2.7367
17883TIP3    H275065   2.032   0.755  12.654 -2.7708 -0.0015  1.3594
17884TIP3   OH275066   3.234   4.231  16.551 -0.8360 -0.3697 -0.1825
17884TIP3    H175067   3.164   4.247  16.488 -0.7851 -0.9998 -0.4058
17884TIP3    H275068   3.210   4.149  16.594  0.9861 -1.9253 -2.0024
17885TIP3   OH275069   3.633   5.076  16.441 -0.1862  0.1831 -0.1090
17885TIP3    H175070   3.678   5.149  16.399  1.6950 -0.4510  0.7410
17885TIP3    H275071   3.671   4.998  16.400 -0.2883 -0.3685  0.8198
17886TIP3   OH275072   0.028   1.263  11.152  0.3809 -0.6669 -0.3431
17886TIP3    H175073   0.045   1.212  11.073 -0.8253 -2.2997  0.4311
17886TIP3    H275074   0.079   1.219  11.221 -1.1879 -1.2513  0.4648
17887TIP3   OH275075   3.570   3.063  12.981  0.4782 -0.2175  0.2442
17887TIP3    H175076   3.502   2.998  12.997 -0.0555  0.2204 -0.1995
17887TIP3    H275077   3.623   3.064  13.061 -0.5627  0.0571  0.9337
17888TIP3   OH275078   1.624   3.218   3.133 -0.4550 -0.1397 -0.6562
17888TIP3    H175079   1.567   3.295   3.140 -1.8464 -1.1656 -0.5063
17888TIP3    H275080   1.646   3.196   3.224  3.4341  2.5755 -0.8062
17889TIP3   OH275081   5.092   2.197  11.385  0.2620  0.5918 -0.0896
17889TIP3    H175082   5.115   2.276  11.336  1.5598  0.1747 -0.1987
17889TIP3    H275083   5.104   2.126  11.322 -3.8201  0.5318 -0.8856
17890TIP3   OH275084   2.463   2.269   5.480 -0.2927 -0.3595  0.1862
17890TIP3    H175085   2.502   2.290   5.565 -2.8937 -0.1442  1.3672
17890TIP3    H275086   2.475   2.175   5.472  0.0355 -0.3746  0.7611
17891TIP3   OH275087   1.555   6.361  14.465 -0.1076 -0.4721  0.1582
17891TIP3    H175088   1.635   6.311  14.482 -0.7987 -1.3353  0.9028
17891TIP3    H275089   1.587   6.448  14.441  1.0500 -0.7229  0.7275
17892TIP3   OH275090   5.742   6.511   2.889 -0.5194 -0.2655 -0.3637
17892TIP3    H175091   5.647   6.517   2.879 -0.2832 -0.0948 -2.9859
17892TIP3    H275092   5.766   6.433   2.838  0.8111  0.1325 -0.3569
17893TIP3   OH275093   2.020   0.740  16.265 -0.5867 -0.3108 -0.1735
17893TIP3    H175094   1.957   0.731  16.337 -1.5468  0.0441 -0.9608
17893TIP3    H275095   2.091   0.681  16.289 -0.3158  0.7011  1.6870
17894TIP3   OH275096   5.532   4.775   6.167  0.0900  0.9035  0.4665
17894TIP3    H175097   5.581   4.835   6.111 -1.7443  0.1469 -1.9905
17894TIP3    H275098   5.447   4.817   6.178 -0.8536 -0.7383 -0.4366
17895TIP3   OH275099   3.905   0.444   0.584 -0.2443 -0.0584 -0.1961
17895TIP3    H175100   3.981   0.478   0.536  0.6442 -1.6975  0.0303
17895TIP3    H275101   3.839   0.429   0.516 -0.1606  0.7541 -0.4706
17896TIP3   OH275102   6.349   5.207   2.429  0.1121  0.0370 -0.3893
17896TIP3    H175103   6.327   5.255   2.349 -1.4433  0.4342  0.2546
17896TIP3    H275104   6.282   5.139   2.435  0.8183 -0.6217  0.0432
17897TIP3   OH275105   0.353   5.005  15.808 -0.6080 -0.3475 -0.2181
17897TIP3    H175106   0.279   4.957  15.847  1.5858 -1.0967  3.2636
17897TIP3    H275107   0.415   4.936  15.783  1.1134  0.4581  1.7171
17898TIP3   OH275108   1.813   3.733   3.436  0.3294  0.2704  0.1791
17898TIP3    H175109   1.816   3.794   3.510 -1.8913  2.9019 -1.7908
17898TIP3    H275110   1.755   3.663   3.465 -2.4398  2.4703  0.1426
17899TIP3   OH275111   1.850   2.348   0.808  0.2741 -0.0148  0.4693
17899TIP3    H175112   1.793   2.282   0.847  0.7972  0.3316  1.8515
17899TIP3    H275113   1.807   2.431   0.826  0.9062  0.2030  0.9775
17900TIP3   OH275114   6.242   5.602   1.688 -0.4117 -0.1047  0.4184
17900TIP3    H175115   6.220   5.630   1.777  0.3140  0.4607  0.4283
17900TIP3    H275116   6.264   5.510   1.696  2.5589  0.6373  1.3524
17901TIP3   OH275117   4.998   4.741   0.512 -0.2989  0.0816  0.8977
17901TIP3    H175118   5.001   4.656   0.468  0.3604 -0.3711  1.8015
17901TIP3    H275119   5.024   4.803   0.444 -0.4681 -0.4742  0.3131
17902TIP3   OH275120   6.235   2.698  11.946  0.0231  0.3993 -0.2789
17902TIP3    H175121   6.189   2.707  12.029  2.6234  1.6110  1.1018
17902TIP3    H275122   6.168   2.710  11.879 -1.8698  0.7042  1.6431
17903TIP3   OH275123   5.612   3.987  17.035 -0.1836  0.0465 -0.5469
17903TIP3    H175124   5.567   3.964  16.954  1.1706  0.4256 -1.4148
17903TIP3    H275125   5.684   3.925  17.042 -0.1041  0.2186  0.1895
17904TIP3   OH275126   5.550   0.385   0.558 -0.2303  0.4367  0.0597
17904TIP3    H175127   5.566   0.323   0.487  0.4194 -1.9458  2.2155
17904TIP3    H275128   5.522   0.465   0.513 -0.1689 -1.0774 -2.8526
17905TIP3   OH275129   6.638   5.070  17.112  0.3502  0.6041  0.0413
17905TIP3    H175130   6.699   5.037  17.046 -0.2585 -2.0006  0.7105
17905TIP3    H275131   6.624   5.161  17.088  3.5911  0.9564 -0.8038
17906TIP3   OH275132   0.555   2.335   4.652 -0.2498 -0.5328 -0.4524
17906TIP3    H175133   0.488   2.328   4.584 -0.7286 -0.4491  0.0058
17906TIP3    H275134   0.630   2.286   4.618 -1.3661 -2.6080  0.0548
17907TIP3   OH275135   6.298   3.549   2.056  0.5234  0.2079 -0.3713
17907TIP3    H175136   6.334   3.636   2.044 -0.4980  0.4313 -1.8932
17907TIP3    H275137   6.243   3.556   2.135 -0.8183  1.3529 -1.3904
17908TIP3   OH275138   6.171   5.727   4.669 -0.7382  0.1439 -0.5870
17908TIP3    H175139   6.078   5.719   4.651 -0.6750 -2.3732  0.0836
17908TIP3    H275140   6.207   5.640   4.653  1.4431  0.9833 -0.4808
17909TIP3   OH275141   3.780   2.404  15.470 -0.7781 -0.1070 -0.4083
17909TIP3    H175142   3.853   2.380  15.414  0.9560  2.5700  0.6284
17909TIP3    H275143   3.794   2.356  15.551  0.4838  1.2568  0.1996
17910TIP3   OH275144   6.760   5.256  16.652  0.5644 -0.2488 -0.2402
17910TIP3    H175145   6.754   5.163  16.670 -0.9193  0.0482  0.8658
17910TIP3    H275146   6.750   5.262  16.557 -1.8022 -1.0495 -0.0789
17911TIP3   OH275147   4.382   2.073   4.691 -0.1205  0.3670  0.7224
17911TIP3    H175148   4.399   2.086   4.784  1.2079  0.4659  0.4736
17911TIP3    H275149   4.466   2.043   4.655 -0.1270  2.0783 -0.7669
17912TIP3   OH275150   3.419   0.929  13.081  0.1841 -0.5006  0.1521
17912TIP3    H175151   3.512   0.916  13.102  0.3615 -0.3965 -0.5546
17912TIP3    H275152   3.378   0.950  13.165  0.7137 -1.0175  0.5451
17913TIP3   OH275153   6.315   4.219  16.053 -0.4730  0.6197 -0.2739
17913TIP3    H175154   6.320   4.194  16.145  0.1606 -0.8192 -0.6785
17913TIP3    H275155   6.373   4.295  16.045  0.2607  0.1268  0.3165
17914TIP3   OH275156   0.779   2.355   4.365 -0.9312 -0.4254 -0.1768
17914TIP3    H175157   0.747   2.363   4.275 -2.4208 -0.4672  0.3505
17914TIP3    H275158   0.832   2.434   4.379 -0.3173 -0.6388 -1.2287
17915TIP3   OH275159   5.130   3.669  11.141 -0.3271  0.0772 -0.4746
17915TIP3    H175160   5.129   3.593  11.083 -1.6913 -0.2313 -0.0501
17915TIP3    H275161   5.071   3.732  11.099 -0.1766  0.4206 -0.1795
17916TIP3   OH275162   5.924   0.159   3.445 -0.2627 -0.4459 -0.2052
17916TIP3    H175163   5.876   0.076   3.439 -0.6421 -0.1534 -1.3976
17916TIP3    H275164   5.982   0.158   3.370 -0.5916  0.5694 -0.4823
17917TIP3   OH275165   0.224   0.694   0.033  0.1852  0.2193  0.2313
17917TIP3    H175166   0.274   0.647  -0.033 -1.4640  1.9513 -2.3288
17917TIP3    H275167   0.199   0.627   0.097 -0.7953 -2.1105 -2.4909
17918TIP3   OH275168   6.205   4.605  15.257 -0.3038 -0.5834 -0.7574
17918TIP3    H175169   6.252   4.531  15.296  0.5764 -1.0389 -2.5767
17918TIP3    H275170   6.138   4.565  15.202 -1.6378  0.0378  0.4032
17919TIP3   OH275171   4.538   5.191  11.518  0.1026 -0.2410  0.1504
17919TIP3    H175172   4.586   5.271  11.498 -1.1719  0.0452 -1.8980
17919TIP3    H275173   4.590   5.121  11.478 -0.1102 -0.1446 -0.3036
17920TIP3   OH275174   4.424   4.793   3.406  0.0333  0.2448  0.2822
17920TIP3    H175175   4.351   4.802   3.345  0.2469  0.9410  0.1301
17920TIP3    H275176   4.460   4.881   3.414  0.0851  0.1321  1.3250
17921TIP3   OH275177   0.906   4.285  13.019  0.7442  0.4744 -0.3685
17921TIP3    H175178   0.859   4.357  12.978 -1.0078 -0.9353 -0.8921
17921TIP3    H275179   0.868   4.278  13.107  0.1344 -0.5063 -0.7041
17922TIP3   OH275180   0.853   6.555   1.204  0.3691  0.5474  0.6625
17922TIP3    H175181   0.943   6.578   1.225  0.8476 -1.4176  0.9309
17922TIP3    H275182   0.802   6.582   1.280  0.8951  0.7199  0.9512
17923TIP3   OH275183   0.251   6.404  15.791 -0.0471 -0.3906 -0.0187
17923TIP3    H175184   0.232   6.439  15.878  1.5496  1.8639 -0.5140
17923TIP3    H275185   0.196   6.456  15.732  0.6688 -0.2373 -0.5659
17924TIP3   OH275186   6.023   1.547   1.476  0.1984  0.3039 -0.2146
17924TIP3    H175187   6.040   1.631   1.433 -0.1059  0.1473 -0.6441
17924TIP3    H275188   6.105   1.499   1.468  0.8025  1.0549  1.1897
17925TIP3   OH275189   6.669   6.665  11.073 -0.0502 -0.2314  0.1646
17925TIP3    H175190   6.578   6.687  11.051 -0.0526  2.0559  2.2046
17925TIP3    H275191   6.716   6.673  10.991 -1.7841 -2.1576 -1.0847
17926TIP3   OH275192   1.819   0.636   0.354 -0.2997  0.5215 -0.4673
17926TIP3    H175193   1.798   0.724   0.385 -1.3481  0.0225  0.2469
17926TIP3    H275194   1.786   0.577   0.422  0.8621 -0.4095 -0.6880
17927TIP3   OH275195   6.486   1.459   1.220  0.0335  0.7789  0.3453
17927TIP3    H175196   6.543   1.525   1.182  1.6078  0.3708  1.9361
17927TIP3    H275197   6.544   1.405   1.273 -1.5923 -0.5737  0.7820
17928TIP3   OH275198   0.717   5.925   3.568  0.3547  0.2222  0.6443
17928TIP3    H175199   0.783   5.876   3.518 -0.6324 -0.5780  0.1172
17928TIP3    H275200   0.645   5.939   3.507  1.0929  3.4245  0.4154
17929TIP3   OH275201   5.670   5.354  13.112 -0.2393  0.8001  0.2626
17929TIP3    H175202   5.716   5.367  13.194 -0.5197 -1.0414  0.7388
17929TIP3    H275203   5.736   5.368  13.044  0.5168  0.2523  0.8798
17930TIP3   OH275204   5.085   4.099   1.952  0.4707  0.5326  0.4106
17930TIP3    H175205   5.132   4.101   2.035  0.3255  1.0864  0.4774
17930TIP3    H275206   5.153   4.081   1.887  0.2516 -2.2878  0.8979
17931TIP3   OH275207   4.218   1.651   4.367  0.1119  0.2697  0.0238
17931TIP3    H175208   4.146   1.600   4.407 -1.8339 -0.8832 -4.6371
17931TIP3    H275209   4.180   1.737   4.352  0.5121  0.3992 -0.2210
17932TIP3   OH275210   1.036   5.428  15.928 -0.2413 -0.0173 -0.3011
17932TIP3    H175211   1.044   5.350  15.874  0.3028 -0.7583  0.8212
17932TIP3    H275212   1.119   5.432  15.976 -0.6746  0.6709  0.3941
17933TIP3   OH275213   6.235   2.937   4.810 -0.5078  0.3906 -0.5690
17933TIP3    H175214   6.225   3.030   4.828 -1.1008  0.1222  0.5274
17933TIP3    H275215   6.149   2.909   4.779 -0.9941 -0.2659  1.3107
17934TIP3   OH275216   5.355   3.185   0.794 -0.0652  0.5909 -0.2437
17934TIP3    H175217   5.405   3.247   0.741 -0.6412  1.9128  0.7492
17934TIP3    H275218   5.264   3.200   0.770 -0.2766  0.7284  0.6088
17935TIP3   OH275219   4.853   1.150  14.004 -0.2525 -0.0611 -0.5760
17935TIP3    H175220   4.852   1.065  13.959  1.4566 -0.9566  1.0212
17935TIP3    H275221   4.829   1.129  14.094 -1.9061  1.4726 -0.6395
17936TIP3   OH275222   1.552   1.570  16.239 -0.3712 -0.0946  0.4060
17936TIP3    H175223   1.623   1.622  16.278 -0.3479 -0.5590  0.9811
17936TIP3    H275224   1.538   1.498  16.300  0.5368 -1.5574 -1.0673
17937TIP3   OH275225   1.369   3.022   5.538  0.1477  0.1909  0.0685
17937TIP3    H175226   1.366   3.058   5.449  2.9784  1.1533  0.3223
17937TIP3    H275227   1.280   2.991   5.554 -0.6533  0.9018 -2.7285
17938TIP3   OH275228   4.877   2.871   1.866 -0.0247  0.0576  0.4751
17938TIP3    H175229   4.915   2.889   1.781  1.4511 -2.3143  0.5884
17938TIP3    H275230   4.827   2.950   1.888  0.3355  1.0376 -2.1425
17939TIP3   OH275231   2.604   5.052   3.821  0.5980 -0.6828  0.2960
17939TIP3    H175232   2.599   4.960   3.795  1.0764 -1.0453  1.4511
17939TIP3    H275233   2.600   5.050   3.917  0.8828  0.4855  0.3411
17940TIP3   OH275234   6.414   3.127  14.474  0.3001  0.0374 -0.3144
17940TIP3    H175235   6.444   3.196  14.414  0.5839  1.0063  0.9236
17940TIP3    H275236   6.383   3.057  14.416 -1.0494  1.6586 -1.6203
17941TIP3   OH275237   0.607   3.893   5.478 -0.1080 -0.4475  0.2741
17941TIP3    H175238   0.578   3.816   5.430  0.0305  0.2691 -0.9781
17941TIP3    H275239   0.529   3.948   5.485  0.7222  1.2388 -2.6310
17942TIP3   OH275240   3.190   1.848  16.897 -0.3096  0.7032  0.2204
17942TIP3    H175241   3.214   1.924  16.845  0.7816  0.9986  1.1431
17942TIP3    H275242   3.125   1.881  16.959 -0.7361  0.6152 -0.1843
17943TIP3   OH275243   0.593   6.707  11.527  0.1349  0.5210 -0.3454
17943TIP3    H175244   0.641   6.742  11.602  0.8464  0.8075 -0.9217
17943TIP3    H275245   0.551   6.784  11.488 -0.0204  0.4157 -0.3818
17944TIP3   OH275246   5.122   4.894  10.199 -0.4541 -0.2812  0.1332
17944TIP3    H175247   5.080   4.886  10.284 -1.1323  1.9845  0.0446
17944TIP3    H275248   5.060   4.944  10.146  0.5937 -0.4027 -1.2427
17945TIP3   OH275249   2.633   1.884  11.940  0.1418 -0.5613 -0.2789
17945TIP3    H175250   2.674   1.954  11.989 -2.5312  2.6288 -2.3639
17945TIP3    H275251   2.546   1.874  11.980  0.2466 -2.2503 -0.4253
17946TIP3   OH275252   1.520   3.973  11.275  0.2033 -0.2552  0.3816
17946TIP3    H175253   1.538   4.055  11.228  3.4380 -0.9179  0.3547
17946TIP3    H275254   1.524   3.997  11.367 -0.7813 -0.0160  0.3670
17947TIP3   OH275255   5.888   5.111  13.759 -0.1162 -0.3652 -0.5364
17947TIP3    H175256   5.799   5.108  13.793  0.8213 -1.0687  1.9917
17947TIP3    H275257   5.898   5.201  13.726 -1.3957  0.0742  0.2172
17948TIP3   OH275258   4.197   4.274   2.801 -0.1902 -0.4040 -0.5340
17948TIP3    H175259   4.153   4.216   2.738 -0.5602 -0.5927 -0.1065
17948TIP3    H275260   4.290   4.251   2.793 -0.0225  0.8328 -2.2953
17949TIP3   OH275261   0.009   4.014  16.300  0.6588  0.2852  0.1121
17949TIP3    H175262  -0.059   4.081  16.293  0.3089  0.1333  1.8005
17949TIP3    H275263  -0.034   3.933  16.275  0.4486  0.3273  0.3340
17950TIP3   OH275264   4.945   5.057  10.088  0.4695 -0.1670 -0.2713
17950TIP3    H175265   4.896   5.029  10.011  0.9098  0.6109 -0.8343
17950TIP3    H275266   4.878   5.095  10.146  0.2363 -0.1704 -0.5344
17951TIP3   OH275267   6.354   0.078   5.156 -0.0694 -0.4655  0.1220
17951TIP3    H175268   6.348   0.168   5.122  1.7889 -0.0501  0.7912
17951TIP3    H275269   6.277   0.034   5.121  0.4442  0.6258 -2.5622
17952TIP3   OH275270   0.012   1.526  12.527  0.0848  0.2148 -0.0761
17952TIP3    H175271   0.029   1.460  12.460  0.7499 -0.9450  1.2289
17952TIP3    H275272  -0.080   1.551  12.513 -0.4321 -1.6260 -0.0184
17953TIP3   OH275273   3.499   1.193  12.807 -0.5622 -0.0568 -0.4963
17953TIP3    H175274   3.543   1.155  12.883 -2.2152  2.4531  1.8283
17953TIP3    H275275   3.429   1.132  12.787  0.6559 -1.3624 -0.7893
17954TIP3   OH275276   2.222   5.713  16.375 -0.8023  0.0494  0.5154
17954TIP3    H175277   2.287   5.732  16.307 -0.8062  0.0774  0.5188
17954TIP3    H275278   2.185   5.628  16.349 -1.8746  0.7669 -0.3396
17955TIP3   OH275279   4.677   6.068   6.013 -0.2816  0.4983 -0.1914
17955TIP3    H175280   4.737   6.067   6.087 -0.5505  2.3602  0.0695
17955TIP3    H275281   4.720   6.013   5.947  1.1271  0.8284  0.4256
17956TIP3   OH275282   6.633   2.333   3.879  0.0345  0.0661  0.0289
17956TIP3    H175283   6.610   2.425   3.870  1.0925  0.2375 -1.1902
17956TIP3    H275284   6.599   2.307   3.965 -1.6193  1.1731 -0.2697
17957TIP3   OH275285   2.465   5.629   4.767  0.0034  0.0571  0.2578
17957TIP3    H175286   2.471   5.535   4.752  1.3988 -0.2032  2.2832
17957TIP3    H275287   2.392   5.658   4.712 -0.8962 -2.3156  0.1743
17958TIP3   OH275288   6.530   2.752   1.336 -0.3215 -0.1610  0.3708
17958TIP3    H175289   6.435   2.738   1.334 -0.2783 -0.3888 -0.1640
17958TIP3    H275290   6.551   2.783   1.248 -0.1667  1.6278  1.0092
17959TIP3   OH275291   1.820   3.940   3.628  0.0367  0.3498  0.1732
17959TIP3    H175292   1.793   3.883   3.700  1.6816  2.0905  2.1985
17959TIP3    H275293   1.801   4.028   3.659  0.2271  1.0969 -1.7832
17960TIP3   OH275294   4.674   4.741  11.731  0.1340 -0.0511 -1.0156
17960TIP3    H175295   4.706   4.806  11.793  0.0078 -0.7749 -0.1832
17960TIP3    H275296   4.582   4.765  11.718 -0.2522 -0.8285  0.2769
17961TIP3   OH275297   5.506   4.076   4.394 -0.1645  0.0436 -0.2251
17961TIP3    H175298   5.497   3.989   4.355 -0.3378 -0.6085  1.2504
17961TIP3    H275299   5.424   4.090   4.440  0.6263  0.1739  1.1622
17962TIP3   OH275300   5.595   6.175   0.652  0.3126 -0.2373 -0.1180
17962TIP3    H175301   5.616   6.113   0.721 -0.5538  1.0526  1.3309
17962TIP3    H275302   5.654   6.249   0.668  1.4529 -0.7095 -1.9219
17963TIP3   OH275303   5.471   5.031  12.121 -0.4568 -0.1556  0.5213
17963TIP3    H175304   5.456   5.111  12.071  1.0539 -0.7804 -0.9825
17963TIP3    H275305   5.400   5.029  12.185 -1.5324  1.4712 -0.5827
17964TIP3   OH275306   3.436   4.552   6.420  0.2015 -0.4036 -0.5952
17964TIP3    H175307   3.351   4.514   6.441  0.1438  0.7861  1.4357
17964TIP3    H275308   3.441   4.548   6.325 -1.6878 -1.4111 -0.6745
17965TIP3   OH275309   0.764   3.995   1.441 -0.1974 -0.1147  0.0737
17965TIP3    H175310   0.855   3.982   1.416  0.0407 -0.4826  1.1083
17965TIP3    H275311   0.725   3.908   1.436 -0.2465 -0.1239  0.5965
17966TIP3   OH275312   1.056   6.199  13.136 -0.4827 -0.0353  0.0534
17966TIP3    H175313   1.057   6.264  13.066  0.7825  0.6461  0.6911
17966TIP3    H275314   1.001   6.238  13.204 -0.2168  0.1046  0.1895
17967TIP3   OH275315   3.268   3.802  12.254 -0.0888 -0.4709  0.4246
17967TIP3    H175316   3.344   3.853  12.283  0.2183 -0.7389  0.1096
17967TIP3    H275317   3.241   3.752  12.331 -0.5923  0.4129  0.8239
17968TIP3   OH275318   1.549   5.055   4.770 -0.3587  0.1127  0.0831
17968TIP3    H175319   1.612   5.037   4.701  1.7682  0.6816  1.7956
17968TIP3    H275320   1.546   5.150   4.776  0.2644  0.0554  1.4552
17969TIP3   OH275321   4.600   1.433  14.314 -0.4958 -0.3176 -0.5509
17969TIP3    H175322   4.535   1.445  14.245 -0.4733 -0.7757 -0.6487
17969TIP3    H275323   4.635   1.345  14.300  0.7618  0.2346 -1.0287
17970TIP3   OH275324   6.707   6.025   0.271 -0.0011  0.7845 -0.2355
17970TIP3    H175325   6.791   5.983   0.251  1.3287  2.7049  1.1074
17970TIP3    H275326   6.693   6.007   0.365 -1.5713 -0.2886 -0.6465
17971TIP3   OH275327   3.605   3.443  11.953 -0.2689  0.6656 -0.6600
17971TIP3    H175328   3.605   3.393  11.871  1.3713 -2.3204  1.0988
17971TIP3    H275329   3.531   3.408  12.002  1.4242 -0.7375  0.9591
17972TIP3   OH275330   6.271   2.857   2.044 -0.6844 -0.4992 -0.5257
17972TIP3    H175331   6.253   2.763   2.043 -1.8071 -0.2947 -0.8456
17972TIP3    H275332   6.187   2.897   2.022  0.5024  0.4815 -3.4448
17973TIP3   OH275333   1.439   0.876   3.084 -0.0171 -0.1865 -0.0155
17973TIP3    H175334   1.516   0.887   3.141 -1.1187  0.7017  1.3256
17973TIP3    H275335   1.388   0.807   3.126 -0.0260 -0.7063 -0.8569
17974TIP3   OH275336   3.221   1.829   5.785 -0.3789 -0.4852 -0.9346
17974TIP3    H175337   3.170   1.910   5.785  0.3351  0.0097  2.2495
17974TIP3    H275338   3.184   1.776   5.856  1.8193 -1.1998 -0.2663
17975TIP3   OH275339   5.835   1.377   1.423 -0.3301 -0.2043  0.3505
17975TIP3    H175340   5.885   1.453   1.451 -0.2031  0.6293 -1.9789
17975TIP3    H275341   5.748   1.389   1.462  0.1841  0.2865  1.3429
17976TIP3   OH275342   2.630   0.640  11.331 -0.1154 -0.6117 -0.0632
17976TIP3    H175343   2.712   0.591  11.322  0.8767  1.1710 -0.8720
17976TIP3    H275344   2.654   0.731  11.315 -1.4864  0.5239  3.7990
17977TIP3   OH275345   0.872   6.320  16.084 -0.1543 -0.2548 -0.2413
17977TIP3    H175346   0.794   6.375  16.085 -0.2995 -0.4749  0.5946
17977TIP3    H275347   0.854   6.256  16.015 -0.8220 -0.4468  0.0980
17978TIP3   OH275348   1.256   2.227  12.676  0.2692 -0.1703 -0.6849
17978TIP3    H175349   1.185   2.230  12.740 -1.4721  2.0355 -2.6467
17978TIP3    H275350   1.329   2.272  12.720 -0.6348  0.5661  0.1007
17979TIP3   OH275351   5.911   4.034  14.974  0.1131  0.0917  0.0265
17979TIP3    H175352   5.874   4.116  15.006 -1.1382 -0.2616 -0.5049
17979TIP3    H275353   5.986   4.061  14.920 -1.3851  1.0096 -1.6511
17980TIP3   OH275354   6.471   5.287   5.984  0.2014  0.2331  0.5274
17980TIP3    H175355   6.538   5.306   6.050 -0.3966  1.2825  0.8515
17980TIP3    H275356   6.449   5.195   5.997  1.2253  0.0146  0.7455
17981TIP3   OH275357   1.110   0.907   0.754 -0.3523 -0.4072 -0.3209
17981TIP3    H175358   1.048   0.836   0.742 -0.0656 -0.7925  0.4661
17981TIP3    H275359   1.060   0.975   0.799  0.1280 -1.1935  1.4010
17982TIP3   OH275360   5.865   6.050  16.699  0.5246  0.7773  0.5894
17982TIP3    H175361   5.786   6.002  16.725  0.4531  1.3953  1.5323
17982TIP3    H275362   5.923   5.983  16.664 -0.4535  0.3243 -0.2190
17983TIP3   OH275363   6.628   1.040  13.556 -0.1687  0.1706 -0.1812
17983TIP3    H175364   6.603   1.104  13.624  0.2635 -0.0015  0.1463
17983TIP3    H275365   6.703   0.994  13.594 -1.7449 -1.9656  0.4571
17984TIP3   OH275366   2.225   1.451   3.409  0.1157 -0.3582  0.3857
17984TIP3    H175367   2.283   1.436   3.335 -0.3821  0.0624 -0.0896
17984TIP3    H275368   2.213   1.546   3.412 -0.7258 -0.4607  0.3378
17985TIP3   OH275369   1.029   3.067   2.898  0.1121 -0.2717  0.6898
17985TIP3    H175370   1.076   2.988   2.872 -0.6623 -0.1671 -1.1199
17985TIP3    H275371   0.974   3.039   2.972  0.4902 -1.2034  0.6223
17986TIP3   OH275372   0.771   4.077   5.339 -0.6713 -0.1661  0.2640
17986TIP3    H175373   0.723   4.157   5.320 -0.4498 -0.2462 -0.6396
17986TIP3    H275374   0.715   4.028   5.399 -0.8371  0.6282  0.7632
17987TIP3   OH275375   6.673   5.836   1.925  0.0256  0.0586 -0.3730
17987TIP3    H175376   6.761   5.826   1.890 -0.0864 -1.4987 -0.2317
17987TIP3    H275377   6.673   5.788   2.007 -0.4610  1.5431  0.5310
17988TIP3   OH275378   1.654   3.655  13.452  0.6241  0.3244 -0.1898
17988TIP3    H175379   1.678   3.589  13.386  0.7084  0.4586 -0.2939
17988TIP3    H275380   1.609   3.605  13.519  3.2093 -0.3293  1.1452
17989TIP3   OH275381   5.565   1.753   5.237 -0.3743 -0.0343  0.0289
17989TIP3    H175382   5.504   1.754   5.164 -0.5307  0.7083  0.1725
17989TIP3    H275383   5.626   1.824   5.219  2.2934 -2.6124 -1.6583
17990TIP3   OH275384   4.653   2.565  16.733  0.2648 -0.5169  0.5828
17990TIP3    H175385   4.693   2.573  16.646  0.7017 -1.4233  0.7034
17990TIP3    H275386   4.632   2.656  16.757 -0.3474 -0.3016 -0.6910
17991TIP3   OH275387   1.891   2.383  13.147 -0.4854 -0.2867 -0.2371
17991TIP3    H175388   1.901   2.291  13.123  1.1793  0.1702 -1.3631
17991TIP3    H275389   1.796   2.396  13.154 -0.6687 -2.6103  2.0918
17992TIP3   OH275390   0.332   5.073   5.993 -0.0054 -0.4682 -0.1238
17992TIP3    H175391   0.398   5.135   6.024  0.4223 -1.1088  0.2497
17992TIP3    H275392   0.268   5.068   6.065  0.8531 -1.7573  0.5801
17993TIP3   OH275393   5.711   1.804  12.548 -0.6688  0.1156 -0.0541
17993TIP3    H175394   5.716   1.895  12.577  0.2788 -0.5160  1.8292
17993TIP3    H275395   5.737   1.807  12.456  0.5170  1.5844  0.3119
17994TIP3   OH275396   3.737   5.716   6.346 -0.7926 -0.1284  0.1243
17994TIP3    H175397   3.718   5.663   6.269  0.7938 -2.5485  1.3117
17994TIP3    H275398   3.654   5.721   6.393 -1.2189 -0.6839 -0.5565
17995TIP3   OH275399   4.682   5.408  17.038  0.7375 -0.5783 -1.3949
17995TIP3    H175400   4.623   5.433  17.109  1.9940 -1.4232 -0.0130
17995TIP3    H275401   4.625   5.397  16.962 -0.8801 -1.3773 -0.0984
17996TIP3   OH275402   4.870   5.789  13.603  0.0117 -0.3866 -0.5190
17996TIP3    H175403   4.864   5.828  13.690 -1.1004 -1.1677 -0.2350
17996TIP3    H275404   4.960   5.758  13.597 -0.1938 -1.2978  0.7901
17997TIP3   OH275405   2.207   1.097   0.069 -0.1580 -0.0138  0.0354
17997TIP3    H175406   2.214   1.163   0.000  0.0838 -1.5332 -1.4225
17997TIP3    H275407   2.114   1.098   0.094  0.1820  2.1373  1.3209
17998TIP3   OH275408   3.223   0.481   1.220  0.1624 -0.0955 -0.0106
17998TIP3    H175409   3.219   0.455   1.312 -0.9462  1.0530  0.2844
17998TIP3    H275410   3.196   0.573   1.220 -1.7213 -0.6223 -1.7060
17999TIP3   OH275411   1.346   1.131   6.241  0.0864  0.0124 -0.7406
17999TIP3    H175412   1.275   1.174   6.290 -0.9399 -1.6142 -0.7696
17999TIP3    H275413   1.415   1.197   6.237 -0.0384  0.3992  2.3756
18000TIP3   OH275414   4.633   3.199  15.677  0.0638  0.3626 -0.0345
18000TIP3    H175415   4.712   3.248  15.700  0.9308  0.4868 -3.1189
18000TIP3    H275416   4.663   3.128  15.621 -1.8067 -0.7139  0.2537
18001TIP3   OH275417   6.560   0.545   0.016  0.5861  0.5413  0.2119
18001TIP3    H175418   6.515   0.616  -0.030  1.3830  0.7925 -0.2095
18001TIP3    H275419   6.648   0.580   0.032  1.4713 -0.8821 -1.3511
18002TIP3   OH275420   4.626   1.284  11.329  0.7285 -0.2094 -0.4493
18002TIP3    H175421   4.629   1.327  11.415 -0.9922 -0.9682  0.0151
18002TIP3    H275422   4.608   1.355  11.268  0.4977  0.1273  0.0037
18003TIP3   OH275423   4.703   1.552  14.544 -0.1216  0.2802  0.8295
18003TIP3    H175424   4.643   1.518  14.477 -1.0983  2.4110  0.5646
18003TIP3    H275425   4.745   1.475  14.581 -1.0667 -1.0642 -0.8630
18004TIP3   OH275426   5.120   6.315  16.069  0.4380 -0.4694 -0.0969
18004TIP3    H175427   5.067   6.236  16.063 -1.5446  0.7291  1.0045
18004TIP3    H275428   5.109   6.345  16.160  0.2617  1.6391 -0.7766
18005TIP3   OH275429   5.345   3.510  12.295 -0.7350  0.5592  0.2560
18005TIP3    H175430   5.370   3.423  12.263  0.5759  0.4746  1.4348
18005TIP3    H275431   5.310   3.555  12.218 -0.0800 -0.5151 -0.6908
18006TIP3   OH275432   2.159   1.948   6.735 -0.6849 -0.2872 -0.4352
18006TIP3    H175433   2.176   1.865   6.780  1.1031  0.3106  0.0203
18006TIP3    H275434   2.240   1.966   6.687 -0.6673  1.7555  0.3352
18007TIP3   OH275435   1.449   5.968  15.757 -0.0484 -0.0564  0.8130
18007TIP3    H175436   1.523   6.016  15.796 -0.6650  1.8707 -0.2935
18007TIP3    H275437   1.487   5.886  15.726  2.1220  1.7495 -1.5375
18008TIP3   OH275438   3.044   6.676  11.999  0.4130 -0.2151  0.8649
18008TIP3    H175439   3.097   6.625  11.939 -1.3633 -0.3236 -0.6482
18008TIP3    H275440   2.966   6.623  12.015  0.3027  0.3433  2.3061
18009TIP3   OH275441   5.625   0.775  13.415  0.3279 -0.5734  0.2918
18009TIP3    H175442   5.550   0.717  13.398 -0.3139 -0.9336  3.9275
18009TIP3    H275443   5.614   0.846  13.352 -1.6671 -1.8788 -0.9227
18010TIP3   OH275444   5.976   0.846   2.390 -0.6512  0.1266  0.6009
18010TIP3    H175445   5.982   0.794   2.470  0.7642  0.5993  0.8147
18010TIP3    H275446   6.053   0.903   2.392 -0.1346 -0.4319 -1.5108
18011TIP3   OH275447   3.117   5.621   0.259  0.2716  0.6583  0.1703
18011TIP3    H175448   3.207   5.599   0.232 -0.3505 -0.9425 -0.7102
18011TIP3    H275449   3.128   5.691   0.323  2.3011 -0.8965  1.6161
18012TIP3   OH275450   2.571   2.944   1.700 -0.0981 -0.1562  0.2105
18012TIP3    H175451   2.513   2.914   1.630 -0.6027  0.7900  0.2122
18012TIP3    H275452   2.556   3.039   1.704  0.9539 -0.0026  0.6635
18013TIP3   OH275453   4.858   3.871   3.823  0.0982  0.4120  0.7711
18013TIP3    H175454   4.799   3.813   3.870 -2.3236  2.4255  0.3388
18013TIP3    H275455   4.907   3.917   3.892 -0.6497  0.5583  1.2035
18014TIP3   OH275456   1.067   6.075  14.725  0.5216 -0.1651  0.5884
18014TIP3    H175457   1.150   6.058  14.772  0.4123 -0.0464  0.8267
18014TIP3    H275458   1.068   6.169  14.708  0.2201 -0.0806  1.0130
18015TIP3   OH275459   3.761   0.804  15.947  0.3165 -0.0735 -0.2718
18015TIP3    H175460   3.738   0.826  15.856  0.1001  0.0252 -0.1934
18015TIP3    H275461   3.793   0.714  15.942  1.4411  0.3313 -0.6370
18016TIP3   OH275462   1.659   3.235   5.359 -0.2706 -0.0871 -0.3000
18016TIP3    H175463   1.659   3.205   5.450  3.1301 -1.0948 -0.5964
18016TIP3    H275464   1.573   3.207   5.325 -2.0990  1.3966  2.8830
18017TIP3   OH275465   3.651   5.126  12.073  1.4086  0.2666 -0.5300
18017TIP3    H175466   3.586   5.079  12.125  0.8957  1.3796 -0.1518
18017TIP3    H275467   3.602   5.165  12.001  1.8515  0.1124 -0.9215
18018TIP3   OH275468   6.471   5.027   6.040 -0.3300  0.1985 -0.0326
18018TIP3    H175469   6.438   4.966   6.106 -2.0718 -0.2091 -1.2621
18018TIP3    H275470   6.534   4.976   5.990  2.3490  0.9938  2.3488
18019TIP3   OH275471   0.738   2.776   3.112 -0.0337 -0.6906  0.4920
18019TIP3    H175472   0.731   2.762   3.018  0.1445 -0.8249  0.4973
18019TIP3    H275473   0.660   2.826   3.136 -0.8960 -2.0223  0.5263
18020TIP3   OH275474   1.462   0.150  16.265  0.3207  0.1562  0.4199
18020TIP3    H175475   1.398   0.220  16.283  0.0236 -0.0230  0.0637
18020TIP3    H275476   1.416   0.069  16.285 -0.3634 -0.1097 -2.0882
18021TIP3   OH275477   2.896   4.475  13.657  0.6777  0.3587 -0.1457
18021TIP3    H175478   2.846   4.497  13.578 -0.0104  2.2871  0.8078
18021TIP3    H275479   2.891   4.379  13.662 -0.3318  0.2992 -1.7457
18022TIP3   OH275480   0.666   2.120  14.195 -0.2171 -0.3962  0.1024
18022TIP3    H175481   0.665   2.028  14.168  1.0779 -0.4389  0.2074
18022TIP3    H275482   0.642   2.118  14.288 -0.1250 -0.6225  0.1216
18023TIP3   OH275483   0.421   0.462   2.667 -0.4537  0.7233  0.0702
18023TIP3    H175484   0.333   0.500   2.668  0.0411  1.9157 -0.7567
18023TIP3    H275485   0.479   0.535   2.688  0.3436 -0.0623  0.6429
18024TIP3   OH275486   0.400   6.692  13.826 -0.0042  0.2459 -1.1422
18024TIP3    H175487   0.447   6.768  13.793  2.4779 -1.1075 -0.8251
18024TIP3    H275488   0.400   6.703  13.921  0.2957 -0.1054 -1.1004
18025TIP3   OH275489   0.455   1.547  12.852  0.4027 -0.1076 -0.1721
18025TIP3    H175490   0.495   1.463  12.874  0.9213  0.7076  2.2261
18025TIP3    H275491   0.361   1.532  12.857  0.5035 -0.0399  2.4507
18026TIP3   OH275492   3.687   5.563   5.733  0.0204  0.1331  0.0382
18026TIP3    H175493   3.593   5.547   5.742  0.2869 -0.3598  2.0322
18026TIP3    H275494   3.695   5.658   5.733 -0.5675  0.1940 -1.2033
18027TIP3   OH275495   5.124   4.849   5.441  0.4604  0.1977  0.2360
18027TIP3    H175496   5.089   4.892   5.519  0.3876 -1.3588  1.0764
18027TIP3    H275497   5.121   4.756   5.462 -1.6296 -0.4037 -2.4455
18028TIP3   OH275498   4.349   5.558  15.545 -0.2629  0.9875  0.3100
18028TIP3    H175499   4.420   5.592  15.490  0.5094 -1.2355 -0.1309
18028TIP3    H275500   4.353   5.611  15.625  0.9523  1.8302 -0.2901
18029TIP3   OH275501   6.375   0.736  13.068 -0.0613  0.8916  0.4520
18029TIP3    H175502   6.422   0.657  13.093 -0.5055 -0.0812 -1.6258
18029TIP3    H275503   6.293   0.732  13.117 -0.0170  0.1432  0.4706
18030TIP3   OH275504   2.536   0.186   4.278 -0.0368  0.5138  0.1301
18030TIP3    H175505   2.493   0.270   4.295  0.5638  1.0414 -0.8661
18030TIP3    H275506   2.563   0.192   4.186 -0.0466 -0.7983  0.0337
18031TIP3   OH275507   2.322   3.902   3.457 -0.6287  0.3435  0.6168
18031TIP3    H175508   2.338   3.996   3.446 -0.3694  0.2586  0.2710
18031TIP3    H275509   2.245   3.897   3.514 -0.8763  0.7718  0.3218
18032TIP3   OH275510   0.905   4.542   1.748  0.4006  0.2832 -0.3492
18032TIP3    H175511   0.828   4.566   1.697  0.6808  0.7126 -0.5735
18032TIP3    H275512   0.976   4.592   1.709  0.8245 -0.2445 -0.2513
18033TIP3   OH275513   3.063   2.991  13.639  0.2245  0.4115  0.0110
18033TIP3    H175514   2.978   2.972  13.600  0.3704 -0.8799  0.2828
18033TIP3    H275515   3.126   2.983  13.567  0.0260  2.2893 -0.3917
18034TIP3   OH275516   3.927   3.434  11.956 -0.1506  0.1074 -0.4319
18034TIP3    H175517   3.833   3.413  11.960 -0.2757  0.4917 -1.2382
18034TIP3    H275518   3.930   3.529  11.942  0.3663  0.1378 -0.1295
18035TIP3   OH275519   3.330   0.884  12.116  0.4739 -0.2002  0.2754
18035TIP3    H175520   3.363   0.850  12.033  0.5153  2.8554 -1.0209
18035TIP3    H275521   3.295   0.807  12.161  0.9011 -1.9906 -2.3417
18036TIP3   OH275522   4.192   4.433   1.326 -0.8879  0.0779  0.1256
18036TIP3    H175523   4.252   4.438   1.400 -1.4857 -2.9136  0.8814
18036TIP3    H275524   4.168   4.524   1.308  1.6691  1.0802  1.6027
18037TIP3   OH275525   4.517   2.955   2.753  0.1192  0.1074 -0.2358
18037TIP3    H175526   4.471   2.885   2.800  1.6627  0.3220  1.6793
18037TIP3    H275527   4.463   2.972   2.676 -4.0982  1.6266  2.8401
18038TIP3   OH275528   5.229   2.545  13.669  0.8377  0.2306  0.2461
18038TIP3    H175529   5.212   2.458  13.633 -0.1071 -0.1896  1.6879
18038TIP3    H275530   5.250   2.530  13.761  1.2849  1.4702  0.3580
18039TIP3   OH275531   4.431   1.859   5.694 -0.7795  0.7497  0.3461
18039TIP3    H175532   4.415   1.951   5.674 -0.0520  0.5432 -1.2784
18039TIP3    H275533   4.516   1.857   5.738 -1.1158  0.9200  1.0074
18040TIP3   OH275534   5.253   3.926   3.281 -0.1446  0.0842 -0.1722
18040TIP3    H175535   5.196   3.989   3.325 -1.5179  0.0538 -1.8750
18040TIP3    H275536   5.230   3.842   3.319 -1.6803 -0.0078 -1.2528
18041TIP3   OH275537   5.561   0.563   3.074 -0.2249 -0.4218 -0.3628
18041TIP3    H175538   5.545   0.481   3.120 -0.2686  0.1564  0.6692
18041TIP3    H275539   5.475   0.592   3.044 -0.0965 -1.1766 -1.4525
18042TIP3   OH275540   0.926   1.732  12.187  0.1242 -0.3644 -0.0457
18042TIP3    H175541   1.000   1.698  12.137 -1.2880 -1.5440 -1.4006
18042TIP3    H275542   0.924   1.679  12.267  2.6862  1.8525  1.5450
18043TIP3   OH275543   3.202   0.238  15.555  0.6299  0.0183 -0.5449
18043TIP3    H175544   3.256   0.240  15.634  0.9831  1.5190 -0.8176
18043TIP3    H275545   3.237   0.165  15.504  1.9939  0.5821 -0.4325
18044TIP3   OH275546   0.547   5.145   3.136 -0.2073  0.1638 -0.6583
18044TIP3    H175547   0.610   5.149   3.209 -0.1517 -0.1245 -0.6887
18044TIP3    H275548   0.492   5.070   3.157 -1.2593  1.0923 -0.0620
18045TIP3   OH275549   1.353   4.394   2.272  0.3985  0.5475  0.5426
18045TIP3    H175550   1.415   4.467   2.275  1.1718 -0.1607  2.7525
18045TIP3    H275551   1.385   4.338   2.202 -0.1933  2.2867 -1.1683
18046TIP3   OH275552   3.724   1.178  10.756 -0.4902 -0.1931 -0.4761
18046TIP3    H175553   3.681   1.094  10.742  3.2494 -2.0197 -1.5634
18046TIP3    H275554   3.732   1.185  10.851  0.3042 -1.6921 -0.4149
18047TIP3   OH275555   5.634   1.716  13.083  0.4379 -0.2409  0.0172
18047TIP3    H175556   5.571   1.649  13.110 -1.4476  2.0460  1.5124
18047TIP3    H275557   5.719   1.681  13.110 -0.4736 -2.0540  0.6795
18048TIP3   OH275558   6.228   3.225  13.361  0.5013  0.5603 -0.4822
18048TIP3    H175559   6.197   3.134  13.365 -2.3174  1.5304  2.2616
18048TIP3    H275560   6.323   3.219  13.370  0.2058 -2.0653  1.6703
18049TIP3   OH275561   5.898   4.245   4.056  0.1975  0.3088 -0.3705
18049TIP3    H175562   5.845   4.213   4.129 -0.4313  2.4489  0.1341
18049TIP3    H275563   5.953   4.313   4.093 -0.6942  1.9805 -2.0378
18050TIP3   OH275564   3.672   5.217   5.124  0.5703  0.0852  0.4243
18050TIP3    H175565   3.590   5.197   5.169 -0.6533  1.5220 -1.0837
18050TIP3    H275566   3.688   5.141   5.069 -0.2812  0.2071 -0.0010
18051TIP3   OH275567   1.275   5.726   2.549 -0.1527 -0.2399  0.2862
18051TIP3    H175568   1.242   5.755   2.463  0.1638 -0.6860  0.0107
18051TIP3    H275569   1.326   5.800   2.581 -1.9499  0.7275  1.0157
18052TIP3   OH275570   4.899   0.915  12.489 -0.2830 -0.1056  0.2129
18052TIP3    H175571   4.903   0.820  12.496 -0.1273 -0.0067  1.6096
18052TIP3    H275572   4.856   0.931  12.405  0.5556 -1.3981 -0.4833
18053TIP3   OH275573   4.620   5.264   0.394 -0.2634 -0.0469 -0.7337
18053TIP3    H175574   4.617   5.278   0.299 -0.8128  0.6672 -0.6126
18053TIP3    H275575   4.644   5.172   0.404  3.1173  0.6760 -1.5429
18054TIP3   OH275576   4.885   1.389   3.951 -0.2437  0.6788 -0.1959
18054TIP3    H175577   4.796   1.358   3.969 -0.7188  1.1711 -1.6263
18054TIP3    H275578   4.874   1.452   3.879  1.2725  0.6976 -0.4193
18055TIP3   OH275579   1.399   5.995  15.116 -0.1120 -0.2193  0.6929
18055TIP3    H175580   1.475   5.949  15.152  0.4178  0.3297  0.2790
18055TIP3    H275581   1.331   5.982  15.182  0.5187 -0.1802  1.3657
18056TIP3   OH275582   2.253   2.791  14.716  0.4722  1.0696 -0.2373
18056TIP3    H175583   2.302   2.708  14.715  2.3888  2.1623 -0.9845
18056TIP3    H275584   2.203   2.791  14.634  0.9816  0.9243 -0.5512
18057TIP3   OH275585   2.245   3.466  14.247  0.3763  0.2490 -0.5653
18057TIP3    H175586   2.209   3.538  14.195  2.9215  2.1114  0.1545
18057TIP3    H275587   2.335   3.455  14.215  0.0514 -2.6269 -0.6455
18058TIP3   OH275588   2.231   0.966  12.224 -0.0536 -0.4894 -0.1448
18058TIP3    H175589   2.281   0.951  12.144  1.8020 -2.1368  1.2457
18058TIP3    H275590   2.294   0.950  12.295 -1.7293  0.5657  1.6474
18059TIP3   OH275591   1.947   2.892  11.202  0.1581  0.3552  0.0840
18059TIP3    H175592   1.985   2.979  11.199 -0.2813  0.5985  1.2470
18059TIP3    H275593   1.980   2.855  11.284 -0.9187  0.0177  0.3730
18060TIP3   OH275594   0.709   3.989   4.920 -0.1195  0.0633 -0.4221
18060TIP3    H175595   0.779   3.991   4.855  1.8771 -1.3433  1.6162
18060TIP3    H275596   0.735   4.053   4.986 -1.4889  0.5612 -0.3504
18061TIP3   OH275597   5.149   1.250  13.601 -0.2236  0.3650  0.0581
18061TIP3    H175598   5.213   1.316  13.577  0.3241 -0.2968 -0.3121
18061TIP3    H275599   5.180   1.215  13.685 -0.3076  0.3178  0.0710
18062TIP3   OH275600   1.101   5.662  16.375 -0.3612 -0.0018 -0.3445
18062TIP3    H175601   1.081   5.586  16.429  0.4009  0.9209  1.2690
18062TIP3    H275602   1.034   5.727  16.398  1.7433  1.5016  1.8216
18063TIP3   OH275603   2.290   0.134  15.635  0.5056  0.2142 -0.2355
18063TIP3    H175604   2.305   0.225  15.608 -0.8809 -0.1147 -2.2714
18063TIP3    H275605   2.274   0.087  15.553 -0.3588 -1.5547  0.9119
18064TIP3   OH275606   0.371   5.036   1.413  0.3383  0.2827  0.0102
18064TIP3    H175607   0.396   5.001   1.327  1.2700 -0.8695  0.7233
18064TIP3    H275608   0.380   5.131   1.405 -1.3649  0.3220 -1.7077
18065TIP3   OH275609   1.965   0.374  11.559  0.4524  0.5151  0.0685
18065TIP3    H175610   1.893   0.369  11.497 -0.6207  1.7712  1.2010
18065TIP3    H275611   1.943   0.311  11.627  0.6700  0.5556  0.1788
18066TIP3   OH275612   0.516   5.979   3.972  0.2885  0.0181  0.6632
18066TIP3    H175613   0.420   5.980   3.983  0.1772 -0.6259 -0.1862
18066TIP3    H275614   0.549   6.024   4.050 -0.7391  0.9115  0.6149
18067TIP3   OH275615   4.470   6.738   1.889 -0.0184 -0.0481  0.4011
18067TIP3    H175616   4.515   6.820   1.869 -0.5587  0.3614  0.8776
18067TIP3    H275617   4.476   6.688   1.807  2.1393 -0.4017  0.7256
18068TIP3   OH275618   2.491   5.915  14.328  0.2320  0.9480  0.6754
18068TIP3    H175619   2.427   5.966  14.278  1.5811  2.2513  0.2548
18068TIP3    H275620   2.565   5.974  14.340  2.0514 -1.0638 -0.2515
18069TIP3   OH275621   2.989   4.134   4.659 -0.0971 -0.2191  0.3188
18069TIP3    H175622   2.907   4.183   4.653  0.4457  0.5733 -0.9799
18069TIP3    H275623   2.965   4.052   4.701 -1.3572  0.4372  0.9098
18070TIP3   OH275624   1.384   3.213   4.196  0.0228 -0.0058  0.0244
18070TIP3    H175625   1.290   3.226   4.187  0.0182 -1.0651 -1.6183
18070TIP3    H275626   1.396   3.119   4.183  1.7118  0.6249 -3.5120
18071TIP3   OH275627   1.214   0.998   3.990  0.7619 -0.3107  0.1584
18071TIP3    H175628   1.249   0.942   3.921  3.1513 -0.7418  1.6311
18071TIP3    H275629   1.270   1.075   3.989 -1.1366  1.0962 -0.3950
18072TIP3   OH275630   5.236   6.052  10.671 -0.5709  0.0179  0.1352
18072TIP3    H175631   5.229   5.957  10.663  0.6864  0.0073 -1.1081
18072TIP3    H275632   5.199   6.085  10.589  1.1859  0.4720 -0.5106
18073TIP3   OH275633   4.622   2.068  16.842 -0.2106 -0.2931 -0.0073
18073TIP3    H175634   4.704   2.065  16.794  0.5413 -1.4427  1.3232
18073TIP3    H275635   4.617   2.158  16.875  1.5327 -0.7695  1.6250
18074TIP3   OH275636   4.440   4.218  12.002 -0.3499  0.2760  0.4344
18074TIP3    H175637   4.357   4.178  11.977  0.6803 -1.3751 -0.4416
18074TIP3    H275638   4.485   4.234  11.919  1.3377 -1.3677  0.9758
18075TIP3   OH275639   5.161   2.476   0.624  0.1477  0.5192 -0.0797
18075TIP3    H175640   5.254   2.488   0.604 -0.0545  0.7585 -0.9058
18075TIP3    H275641   5.131   2.411   0.561 -0.1482  0.1284  0.4641
18076TIP3   OH275642   4.671   1.653  16.438  0.0205  0.4354  0.1170
18076TIP3    H175643   4.700   1.740  16.465 -0.5618  0.7036 -0.1053
18076TIP3    H275644   4.586   1.668  16.396  0.8864  0.0285 -1.8572
18077TIP3   OH275645   3.917   6.134   0.152 -0.3791  0.2894 -0.3324
18077TIP3    H175646   3.852   6.108   0.086  0.5803  2.1660 -2.0620
18077TIP3    H275647   3.893   6.084   0.230 -2.5465 -0.7289 -1.6034
18078TIP3   OH275648   2.651   5.168   4.081  0.0422  0.2322  0.2492
18078TIP3    H175649   2.646   5.099   4.147 -0.3205  0.0069 -0.0079
18078TIP3    H275650   2.697   5.240   4.123  0.2687 -0.1069  0.5765
18079TIP3   OH275651   1.153   0.593  13.552 -0.0243  0.4505 -0.1258
18079TIP3    H175652   1.217   0.529  13.582  0.9850  2.0568  1.2498
18079TIP3    H275653   1.087   0.595  13.621 -1.1720 -0.6511 -1.1841
18080TIP3   OH275654   3.337   4.865   5.701  0.0117  0.6085 -0.2798
18080TIP3    H175655   3.364   4.875   5.793 -0.9138  0.0699  0.0557
18080TIP3    H275656   3.405   4.911   5.651  0.1426  1.5299  0.7178
18081TIP3   OH275657   6.468   5.004  13.043 -0.2584 -0.9269 -0.0152
18081TIP3    H175658   6.432   4.916  13.050  1.4399 -1.7351 -1.1155
18081TIP3    H275659   6.505   5.008  12.955 -0.8113  1.0831 -0.1831
18082TIP3   OH275660   0.888   5.146  15.217  0.3987 -0.1150 -0.4550
18082TIP3    H175661   0.799   5.174  15.198  0.3614  0.6465  0.7433
18082TIP3    H275662   0.880   5.055  15.244 -0.1121  0.1343  0.2535
18083TIP3   OH275663   2.661   6.687   0.639  0.4607 -0.0844 -0.1276
18083TIP3    H175664   2.739   6.738   0.619  0.5631 -0.7278 -1.4609
18083TIP3    H275665   2.687   6.596   0.625 -0.8327 -0.2371 -1.7512
18084TIP3   OH275666   5.765   1.579  11.520  0.0342  0.4087  0.5366
18084TIP3    H175667   5.844   1.613  11.563 -0.3881 -0.1933  1.8272
18084TIP3    H275668   5.759   1.628  11.438  1.3571  0.9585  0.7569
18085TIP3   OH275669   4.032   5.841  14.997 -0.2735 -0.6327  0.9372
18085TIP3    H175670   3.957   5.852  14.938  0.0032 -0.3299  0.6391
18085TIP3    H275671   4.001   5.778  15.063 -0.4002 -1.4128  0.1491
18086TIP3   OH275672   0.351   5.952   6.380  0.0866 -0.1331 -0.3544
18086TIP3    H175673   0.309   6.030   6.345  0.0088 -0.8015 -1.8001
18086TIP3    H275674   0.288   5.916   6.443 -0.4783  0.1890 -0.7380
18087TIP3   OH275675   0.617   3.289   0.808  0.2108  0.0189 -0.2157
18087TIP3    H175676   0.704   3.293   0.849  0.8350  0.0763 -1.5041
18087TIP3    H275677   0.627   3.222   0.740  0.0928  2.0909 -2.3118
18088TIP3   OH275678   5.688   3.657  14.232  0.3389 -0.1735 -0.4852
18088TIP3    H175679   5.739   3.720  14.179  0.4208 -0.1920 -0.4286
18088TIP3    H275680   5.661   3.590  14.170 -1.6460  1.0596 -1.0158
18089TIP3   OH275681   2.735   1.919   4.671 -0.3917 -0.5670 -0.4937
18089TIP3    H175682   2.697   1.999   4.636 -1.4670 -1.0758 -0.5151
18089TIP3    H275683   2.664   1.878   4.721  1.2107  0.3738  2.6855
18090TIP3   OH275684   3.673   5.350  12.698  0.3608  0.2172 -0.3548
18090TIP3    H175685   3.740   5.344  12.767 -1.4475 -0.7542  1.3491
18090TIP3    H275686   3.634   5.263  12.694 -0.0660  0.4663 -2.1153
18091TIP3   OH275687   5.150   3.592  12.085 -0.2167 -0.4081  0.8399
18091TIP3    H175688   5.114   3.652  12.020  2.4187  0.5364  0.1845
18091TIP3    H275689   5.108   3.508  12.065 -0.9473  0.3119 -0.8035
18092TIP3   OH275690   6.668   4.647   2.323  0.1193  0.4012 -0.4047
18092TIP3    H175691   6.601   4.634   2.257  0.5846 -0.8279 -0.6452
18092TIP3    H275692   6.736   4.583   2.301 -0.4513 -1.1954  2.2299
18093TIP3   OH275693   5.963   0.177  16.532  0.2219  0.8288  0.4739
18093TIP3    H175694   5.984   0.269  16.550 -1.3002  1.2458  0.2711
18093TIP3    H275695   5.973   0.133  16.616  0.2852  1.3344  0.7342
18094TIP3   OH275696   4.031   4.715   5.421  0.3073  0.2192 -0.0743
18094TIP3    H175697   3.974   4.714   5.344  0.6021  0.1260 -0.2921
18094TIP3    H275698   3.983   4.766   5.486  0.0988  0.3755 -0.3521
18095TIP3   OH275699   1.956   5.243  17.141  0.3530  0.0639  0.1863
18095TIP3    H175700   1.914   5.313  17.091  0.3540  0.5354  0.8389
18095TIP3    H275701   2.030   5.286  17.185 -0.0096 -0.2197  1.0766
18096TIP3   OH275702   4.768   0.348   4.178  0.1980  0.3672  0.2716
18096TIP3    H175703   4.693   0.290   4.162  1.8138 -1.3782 -1.2234
18096TIP3    H275704   4.731   0.422   4.227 -2.8883  0.4762 -2.0442
18097TIP3   OH275705   0.519   3.966   2.974 -0.1389  0.0174 -0.2586
18097TIP3    H175706   0.562   4.024   2.912  1.6946  0.5584  1.4347
18097TIP3    H275707   0.452   4.020   3.016 -0.8466 -0.1248 -1.2124
18098TIP3   OH275708   3.356   5.062   4.158  0.4130  0.3192 -1.1131
18098TIP3    H175709   3.426   5.076   4.222  0.2458 -0.2110 -0.8149
18098TIP3    H275710   3.397   5.012   4.088  0.6163  0.9668 -1.4643
18099TIP3   OH275711   0.191   4.585  15.427  0.2650  0.2773  0.1052
18099TIP3    H175712   0.226   4.518  15.485  0.6792  1.1477  0.8555
18099TIP3    H275713   0.135   4.639  15.482 -2.9627 -1.5350 -1.2063
18100TIP3   OH275714   0.749   2.345   1.295 -0.6994  0.7018 -0.3088
18100TIP3    H175715   0.754   2.348   1.200  0.4953  1.9317 -0.2322
18100TIP3    H275716   0.838   2.366   1.325 -0.7498 -0.9541  1.0681
18101TIP3   OH275717   5.117   3.738  13.155 -0.2040 -0.6686 -0.2789
18101TIP3    H175718   5.033   3.697  13.132 -0.6840  0.3348 -0.3617
18101TIP3    H275719   5.122   3.729  13.250  0.6773 -2.7373 -0.4917
18102TIP3   OH275720   5.294   5.090   5.206  0.1797  0.0124  0.1777
18102TIP3    H175721   5.228   5.150   5.171 -0.5632 -0.3213  0.9769
18102TIP3    H275722   5.345   5.064   5.130 -0.5854  0.3102 -0.4513
18103TIP3   OH275723   4.586   3.981  11.549  0.8506 -0.3768  0.1945
18103TIP3    H175724   4.655   3.920  11.522  1.8565  0.2995  1.1823
18103TIP3    H275725   4.512   3.959  11.494  1.6297 -1.6085 -0.3881
18104TIP3   OH275726   6.151   5.272  12.494  0.4904  0.6353 -0.4269
18104TIP3    H175727   6.100   5.352  12.505  0.2247  0.2938  0.9988
18104TIP3    H275728   6.236   5.300  12.461 -0.1819  1.3377 -1.5676
18105TIP3   OH275729   2.755   0.830   1.920  0.4286  0.6870 -0.7230
18105TIP3    H175730   2.742   0.914   1.963 -1.8751 -0.3264  0.6358
18105TIP3    H275731   2.816   0.783   1.977  0.0783  0.6522 -0.3757
18106TIP3   OH275732   4.983   0.900  15.228  0.1812  0.2838  0.2145
18106TIP3    H175733   4.934   0.982  15.228 -1.8933 -0.8660  2.2245
18106TIP3    H275734   5.057   0.916  15.288  1.3467  1.4966 -1.5084
18107TIP3   OH275735   2.251   2.427   2.129  0.4866 -0.2756  0.4003
18107TIP3    H175736   2.274   2.343   2.090  0.6133 -0.6949  1.3660
18107TIP3    H275737   2.335   2.468   2.150  0.4680  0.8242 -1.5758
18108TIP3   OH275738   2.884   4.641  17.214 -0.9352  0.5102  0.4332
18108TIP3    H175739   2.896   4.609  17.124  0.8722 -1.4050  1.3075
18108TIP3    H275740   2.877   4.736  17.205  1.0532  0.5066 -1.5901
18109TIP3   OH275741   4.447   6.606   1.655  0.0466 -0.3409 -0.0548
18109TIP3    H175742   4.352   6.620   1.664  0.2138  1.5676 -1.0197
18109TIP3    H275743   4.454   6.540   1.586 -0.5693 -0.0366 -0.4187
18110TIP3   OH275744   3.489   4.439  14.361  0.5730  0.2492 -0.0324
18110TIP3    H175745   3.449   4.524  14.342 -1.1298 -0.4749  0.1999
18110TIP3    H275746   3.536   4.417  14.280  0.7576  1.2458 -0.2110
18111TIP3   OH275747   5.934   4.660   2.615  0.0245  0.3209  0.1507
18111TIP3    H175748   5.953   4.626   2.703 -0.0422 -2.0953 -0.7103
18111TIP3    H275749   5.843   4.636   2.599  0.6304 -1.0809 -1.3426
18112TIP3   OH275750   4.157   3.062  16.160  0.2326 -0.1071 -0.1577
18112TIP3    H175751   4.080   3.059  16.216  0.4839  0.3814  0.2191
18112TIP3    H275752   4.127   3.105  16.080  0.0973 -0.0057 -0.0521
18113TIP3   OH275753   4.833   5.101   2.299 -0.2087  0.6624  0.2620
18113TIP3    H175754   4.799   5.143   2.219  1.1382  0.0608 -0.6442
18113TIP3    H275755   4.913   5.057   2.271  0.2698  0.4155  1.9519
18114TIP3   OH275756   2.826   0.131   4.408  0.5922 -0.4599  0.1460
18114TIP3    H175757   2.768   0.137   4.332  1.0775  1.1966 -0.1097
18114TIP3    H275758   2.775   0.169   4.479  0.9341 -0.0705  0.1806
18115TIP3   OH275759   6.533   1.216   0.375  0.3005 -0.0639  0.1191
18115TIP3    H175760   6.585   1.208   0.455 -0.2845 -0.1605  0.4978
18115TIP3    H275761   6.529   1.127   0.340 -0.0079 -0.1432  0.3498
18116TIP3   OH275762   6.469   2.976  14.689  0.2031 -0.4087  0.3450
18116TIP3    H175763   6.427   3.028  14.621  1.9509  0.2677 -0.2401
18116TIP3    H275764   6.445   3.020  14.771  0.3522  0.3994 -0.0372
18117TIP3   OH275765   5.626   6.226  11.244  0.2472  0.0108 -0.0381
18117TIP3    H175766   5.572   6.185  11.176 -1.2435 -0.9485  1.6919
18117TIP3    H275767   5.565   6.283  11.291  1.6356  1.9115 -0.5165
18118TIP3   OH275768   4.410   6.656   2.637 -0.4135 -0.6731 -0.4354
18118TIP3    H175769   4.479   6.705   2.592  0.8387 -0.0411  2.0804
18118TIP3    H275770   4.438   6.565   2.633 -1.6267 -0.9972 -3.1483
18119TIP3   OH275771   1.680   2.509  14.824  0.0049  0.2044 -0.7198
18119TIP3    H175772   1.745   2.439  14.818 -0.3643 -0.0887 -1.3149
18119TIP3    H275773   1.684   2.554  14.740 -1.2715 -0.4580 -1.1498
18120TIP3   OH275774   3.747   5.793  17.174 -0.4775 -0.3779  0.9062
18120TIP3    H175775   3.702   5.878  17.180  0.7038  0.2033  1.7558
18120TIP3    H275776   3.763   5.782  17.080  1.0976  1.2884  0.9523
18121TIP3   OH275777   2.389   6.350  12.483  0.0029 -0.3744 -0.1815
18121TIP3    H175778   2.429   6.433  12.511 -0.1944 -0.6398  0.9254
18121TIP3    H275779   2.463   6.295  12.459  0.3791 -1.0071  2.2543
18122TIP3   OH275780   3.324   2.483  12.153 -0.5611  0.3325  0.0383
18122TIP3    H175781   3.237   2.474  12.113 -0.4520 -1.0661  0.1018
18122TIP3    H275782   3.356   2.568  12.121 -1.0661 -0.1070 -1.6999
18123TIP3   OH275783   6.226   2.984  15.020 -0.3249 -0.3029 -0.4523
18123TIP3    H175784   6.233   3.053  14.954  0.7135  0.1656  0.1260
18123TIP3    H275785   6.317   2.966  15.044 -0.7269  0.4524  1.7834
18124TIP3   OH275786   0.497   4.624  14.096  0.2053 -0.1079  0.5707
18124TIP3    H175787   0.486   4.693  14.031 -1.9481 -1.1180 -0.2044
18124TIP3    H275788   0.492   4.543  14.046  0.1347 -0.8652  1.7897
18125TIP3   OH275789   5.760   5.958   4.228  0.0848 -0.1605  0.3268
18125TIP3    H175790   5.739   5.866   4.245  0.6446  0.0721  2.3787
18125TIP3    H275791   5.850   5.968   4.259  0.1785  0.9897 -0.2827
18126TIP3   OH275792   3.091   2.044  16.308  0.1745  0.4956  0.6000
18126TIP3    H175793   3.063   2.118  16.253  0.5237 -0.1110 -0.4162
18126TIP3    H275794   3.174   2.073  16.345 -0.7137  1.4392  1.8912
18127TIP3   OH275795   3.923   3.520  16.795 -0.1191  0.0573  0.3168
18127TIP3    H175796   3.905   3.595  16.851 -1.0973 -0.8910  1.2946
18127TIP3    H275797   3.838   3.479  16.780  0.3573 -0.6798 -0.4545
18128TIP3   OH275798   5.399   3.152   2.662 -0.0713 -0.4402 -0.3289
18128TIP3    H175799   5.409   3.220   2.729  1.3073  0.5642 -1.5269
18128TIP3    H275800   5.312   3.167   2.626 -0.1448  0.1032  0.0607
18129TIP3   OH275801   0.720   1.706  14.943 -0.5309 -0.6948 -0.4857
18129TIP3    H175802   0.815   1.696  14.945 -0.3075  1.2690  0.9111
18129TIP3    H275803   0.704   1.766  14.870 -0.4539  0.8381  0.7236
18130TIP3   OH275804   3.458   5.452  13.478 -0.8708  0.0077  0.3951
18130TIP3    H175805   3.485   5.459  13.569 -1.1747 -0.5973  0.5357
18130TIP3    H275806   3.526   5.498  13.428 -0.7164  0.3497  0.9288
18131TIP3   OH275807   1.233   5.409   1.561  0.0378 -0.2191 -0.6918
18131TIP3    H175808   1.323   5.410   1.530  0.6683 -0.5492  1.1077
18131TIP3    H275809   1.181   5.425   1.482  1.5256 -2.4399 -2.2075
18132TIP3   OH275810   2.064   0.705  11.938  0.2355 -0.3382 -0.6311
18132TIP3    H175811   2.015   0.661  12.008 -0.4617  1.0747 -0.2130
18132TIP3    H275812   2.105   0.633  11.890 -2.3950 -1.6017 -1.1119
18133TIP3   OH275813   0.615   1.966  17.080 -0.3694  0.2649 -0.6787
18133TIP3    H175814   0.630   2.057  17.105  0.3019  0.1177 -0.5425
18133TIP3    H275815   0.656   1.915  17.149  0.3538 -0.1452 -1.4007
18134TIP3   OH275816   5.677   0.833  14.190 -0.0154  0.2750  0.1476
18134TIP3    H175817   5.722   0.749  14.182  0.8484  0.5563  1.9067
18134TIP3    H275818   5.668   0.863  14.099  2.0343 -0.4865 -0.3522
18135TIP3   OH275819   6.432   3.651  16.215  0.6659  0.3075 -0.0618
18135TIP3    H175820   6.415   3.564  16.178  0.6045  1.4555 -2.8328
18135TIP3    H275821   6.482   3.696  16.148  0.7421  2.4190  1.3798
18136TIP3   OH275822   5.157   2.804   3.899  0.1488 -0.2178  0.3997
18136TIP3    H175823   5.238   2.810   3.849  0.4330 -1.3602  0.7207
18136TIP3    H275824   5.161   2.719   3.943 -0.0637  0.7876  2.4312
18137TIP3   OH275825   4.583   0.874  10.627 -0.1817  0.3092  0.2145
18137TIP3    H175826   4.585   0.794  10.679  1.1945 -0.0739 -0.4076
18137TIP3    H275827   4.671   0.912  10.638  0.2932 -0.0405 -2.2301
18138TIP3   OH275828   6.383   5.868   6.238  0.3609  0.8836 -0.3455
18138TIP3    H175829   6.327   5.796   6.266  0.9262  0.1914 -0.9886
18138TIP3    H275830   6.470   5.845   6.271  0.6983  0.8904 -1.2318
18139TIP3   OH275831   2.601   6.460   1.671  0.0049  0.0491 -0.1890
18139TIP3    H175832   2.549   6.394   1.717  1.1465 -0.6924  0.0728
18139TIP3    H275833   2.649   6.506   1.739 -0.1200  0.5677 -0.4459
18140TIP3   OH275834   2.432   0.085  12.654  0.2452  0.1858 -0.0702
18140TIP3    H175835   2.499   0.043  12.708 -0.2009  0.4107  0.6617
18140TIP3    H275836   2.419   0.171  12.693 -0.3751  0.1944 -0.2893
18141TIP3   OH275837   4.865   1.137  13.079 -0.0119 -0.0154 -0.4053
18141TIP3    H175838   4.823   1.065  13.125 -1.2885  0.8759 -0.1564
18141TIP3    H275839   4.813   1.149  13.000  0.4540  0.3587 -0.6617
18142TIP3   OH275840   2.832   6.267  14.724 -0.2188  0.3445  0.4184
18142TIP3    H175841   2.806   6.315  14.646 -1.4265  0.1311  0.6781
18142TIP3    H275842   2.815   6.175  14.703 -0.4479  0.2769  0.8792
18143TIP3   OH275843   2.542   0.729  15.963 -0.4501 -0.4650 -0.1663
18143TIP3    H175844   2.598   0.748  16.038  1.2770 -1.2324 -1.2174
18143TIP3    H275845   2.509   0.640  15.980 -2.4638  0.4784  1.0933
18144TIP3   OH275846   5.863   5.171   4.411  0.3988 -0.0818  0.4391
18144TIP3    H175847   5.913   5.090   4.403  1.3512  0.5855 -0.4306
18144TIP3    H275848   5.808   5.172   4.333  0.5704  0.2383  0.3251
18145TIP3   OH275849   4.955   2.254  15.233  0.0280  0.3592 -0.7521
18145TIP3    H175850   5.012   2.278  15.160 -1.7436 -0.2900 -2.4086
18145TIP3    H275851   4.915   2.171  15.205 -1.1147  0.3932  0.7267
18146TIP3   OH275852   1.325   4.971   2.076 -0.7509 -0.4056  0.1653
18146TIP3    H175853   1.413   4.995   2.049 -1.2238  1.6381  0.3894
18146TIP3    H275854   1.332   4.879   2.101  0.5197 -1.3499 -3.2830
18147TIP3   OH275855   3.472   4.153  12.983  0.1840 -0.2592 -0.6147
18147TIP3    H175856   3.513   4.107  12.909 -0.5845  0.6972 -1.6593
18147TIP3    H275857   3.434   4.232  12.944 -2.3732 -0.9527  0.3494
18148TIP3   OH275858   0.821   5.408  16.107  0.1604 -0.0292 -0.4838
18148TIP3    H175859   0.893   5.410  16.044  1.0217  1.4813  0.5238
18148TIP3    H275860   0.790   5.498  16.112 -0.7442 -0.3734  0.2855
18149TIP3   OH275861   1.067   4.368   0.530  0.0028 -0.3990  0.0556
18149TIP3    H175862   1.151   4.344   0.570  0.5183 -1.0290 -1.3730
18149TIP3    H275863   1.011   4.390   0.605  2.1321  2.3359  0.9356
18150TIP3   OH275864   1.804   2.560   4.899  0.0040 -0.3901  0.2689
18150TIP3    H175865   1.830   2.478   4.857  0.5440 -1.1032  1.9376
18150TIP3    H275866   1.835   2.551   4.989  0.5661  1.9042  0.3212
18151TIP3   OH275867   3.342   3.842   4.357 -0.0854 -0.1425  0.1236
18151TIP3    H175868   3.273   3.886   4.308  0.5886  1.4446  0.5731
18151TIP3    H275869   3.298   3.809   4.436 -0.5655 -0.1637 -0.1526
18152TIP3   OH275870   4.105   2.907  14.198  0.2003  0.6440 -0.2313
18152TIP3    H175871   4.085   2.840  14.132 -2.3477  1.6833 -0.5844
18152TIP3    H275872   4.095   2.862  14.281  0.4320  0.0801 -0.5069
18153TIP3   OH275873   6.258   5.036   1.824  0.5973 -0.0457  0.0557
18153TIP3    H175874   6.250   4.948   1.787 -2.5153  0.9837 -1.8791
18153TIP3    H275875   6.340   5.070   1.788  1.2497 -1.7130 -0.0782
18154TIP3   OH275876   4.990   1.035  16.265 -0.4996  0.2366 -0.1086
18154TIP3    H175877   5.041   1.020  16.345 -0.7856 -0.9942 -0.1479
18154TIP3    H275878   5.035   1.107  16.221  0.0586  0.4644  0.8211
18155TIP3   OH275879   1.505   3.959   3.544  0.2153  0.8759  0.3036
18155TIP3    H175880   1.542   3.897   3.607  2.2676  2.7963  1.0573
18155TIP3    H275881   1.485   3.907   3.467 -0.6876 -1.1995  1.9079
18156TIP3   OH275882   1.134   1.602   3.706 -0.4208 -0.3950 -0.1169
18156TIP3    H175883   1.171   1.642   3.785 -1.5822  0.2020  0.1387
18156TIP3    H275884   1.056   1.555   3.736  0.2443 -1.8505 -0.6127
18157TIP3   OH275885   5.910   3.144   0.985  0.0342 -0.0665  0.3379
18157TIP3    H175886   5.859   3.070   1.018 -0.1173 -0.5881 -1.0496
18157TIP3    H275887   5.980   3.105   0.933  0.8450  0.7105  0.8240
18158TIP3   OH275888   6.488   4.147   4.720  0.4973 -0.0441  0.0040
18158TIP3    H175889   6.559   4.154   4.655  0.0825  1.0489 -0.3561
18158TIP3    H275890   6.408   4.156   4.669  0.1454  0.2032  0.5924
18159TIP3   OH275891   6.118   3.918   2.193  0.3302 -0.0484 -0.6859
18159TIP3    H175892   6.208   3.935   2.165  0.3584  0.1150 -0.5028
18159TIP3    H275893   6.125   3.850   2.259  0.4058  0.5586 -0.0592
18160TIP3   OH275894   4.466   6.567  10.474  0.1948 -0.0947  0.2459
18160TIP3    H175895   4.466   6.472  10.485  0.1727  0.1629  2.9589
18160TIP3    H275896   4.543   6.597  10.523 -0.1302  1.3304 -0.0901
18161TIP3   OH275897   4.311   5.545  16.644 -0.2568  0.0655  0.2089
18161TIP3    H175898   4.280   5.527  16.555  1.4988 -0.8406 -0.2363
18161TIP3    H275899   4.231   5.551  16.696 -1.2201 -1.7553 -0.9905
18162TIP3   OH275900   1.963   5.823  12.857  0.1224  0.1247  0.3651
18162TIP3    H175901   1.885   5.846  12.908  0.6395 -0.4557  1.4339
18162TIP3    H275902   1.956   5.729  12.844  0.0491  0.2563 -0.5448
18163TIP3   OH275903   6.144   5.966  10.990  0.1403  0.2187 -0.0433
18163TIP3    H175904   6.223   5.967  11.043  0.3620  0.3794 -0.3767
18163TIP3    H275905   6.172   5.997  10.904 -0.3692  0.6935 -0.0392
18164TIP3   OH275906   0.145   3.437   0.224 -0.2263  0.2093  0.5572
18164TIP3    H175907   0.210   3.367   0.232 -0.9884 -0.7118 -1.1251
18164TIP3    H275908   0.197   3.517   0.217  0.7346 -0.5053 -0.6055
18165TIP3   OH275909   5.684   3.248  13.334  0.0332 -0.0807 -0.1587
18165TIP3    H175910   5.747   3.259  13.263  0.9039  0.1336  0.6409
18165TIP3    H275911   5.599   3.243  13.290  0.5585  0.1020 -1.2069
18166TIP3   OH275912   2.330   4.083   0.869  0.5981 -0.1505 -0.3589
18166TIP3    H175913   2.309   3.991   0.851  0.0536 -0.0827 -0.0798
18166TIP3    H275914   2.333   4.089   0.965 -2.1595  0.7269 -0.2894
18167TIP3   OH275915   1.886   0.925   0.738 -0.0503  0.2346  0.3290
18167TIP3    H175916   1.811   0.940   0.681  0.6022  0.9323 -0.3618
18167TIP3    H275917   1.950   0.881   0.681 -0.7338 -2.3583  1.4724
18168TIP3   OH275918   2.705   5.548  15.774  0.7470  0.0117  0.2104
18168TIP3    H175919   2.790   5.534  15.733  1.6604 -1.3449  2.4486
18168TIP3    H275920   2.683   5.463  15.813 -0.7893  0.8339  1.1951
18169TIP3   OH275921   1.412   0.008  15.211  0.1572  0.0463  0.1231
18169TIP3    H175922   1.329  -0.034  15.230 -0.1382 -0.5225 -2.2698
18169TIP3    H275923   1.415   0.084  15.270 -2.1575  0.2221  0.0355
18170TIP3   OH275924   5.496   0.758  12.977  0.0995 -0.4895  0.0220
18170TIP3    H175925   5.439   0.692  13.015 -2.9707  1.1718 -1.5066
18170TIP3    H275926   5.454   0.782  12.894  2.9614  0.9219 -1.1115
18171TIP3   OH275927   5.173   5.376  13.688  0.2530  0.1282 -0.0521
18171TIP3    H175928   5.211   5.423  13.614  0.7190 -0.8271 -0.4290
18171TIP3    H275929   5.140   5.295  13.649  1.1523 -0.7028  0.9101
18172TIP3   OH275930   1.001   0.632   1.524 -0.0815 -0.0355  0.7367
18172TIP3    H175931   1.074   0.617   1.584 -0.9453  0.3668  1.8909
18172TIP3    H275932   1.042   0.633   1.437  1.3908  0.8412  1.4179
18173TIP3   OH275933   1.564   4.266   1.815 -0.8281 -0.3333 -0.2160
18173TIP3    H175934   1.550   4.311   1.732 -1.4388  2.0551  1.1250
18173TIP3    H275935   1.637   4.207   1.799 -1.2272 -0.2243 -2.5596
18174TIP3   OH275936   1.444   2.093   1.089  0.1471  0.3273 -1.2679
18174TIP3    H175937   1.470   2.057   1.174  1.1357  3.0285 -0.3828
18174TIP3    H275938   1.349   2.080   1.086  0.1595 -0.2000  0.0657
18175TIP3   OH275939   3.021   2.131   4.588 -0.5112 -0.7521 -0.0594
18175TIP3    H175940   3.104   2.142   4.541 -0.6908  1.4676  0.1121
18175TIP3    H275941   3.037   2.057   4.648  0.4644 -2.0653 -1.8987
18176TIP3   OH275942   6.390   3.653  17.059  0.1375  0.3176  0.3197
18176TIP3    H175943   6.445   3.730  17.075  0.6029 -0.0484  0.4751
18176TIP3    H275944   6.451   3.581  17.048 -0.2922  0.0026 -0.0329
18177TIP3   OH275945   5.345   0.136  14.093 -0.5316 -0.2352 -0.0897
18177TIP3    H175946   5.378   0.161  14.179 -1.8100  2.7382 -0.3993
18177TIP3    H275947   5.260   0.096  14.112 -0.7917  0.3731  0.0408
18178TIP3   OH275948   0.546   1.714   1.030  0.4074  0.5149  0.0852
18178TIP3    H175949   0.482   1.768   1.076  0.2265 -0.0505  0.5125
18178TIP3    H275950   0.516   1.713   0.939  0.0959  0.6687  0.1857
18179TIP3   OH275951   1.572   1.287   1.237 -0.5570  0.0632 -0.1989
18179TIP3    H175952   1.558   1.238   1.156 -2.2362 -1.5940  1.0866
18179TIP3    H275953   1.660   1.325   1.226 -1.0954  0.5922 -3.1519
18180TIP3   OH275954   0.101   3.461   3.734  0.5096 -0.0012  0.3295
18180TIP3    H175955   0.032   3.427   3.791  1.3944  0.2331  1.5808
18180TIP3    H275956   0.101   3.403   3.658 -0.6317 -0.3848  0.6209
18181TIP3   OH275957   4.821   3.984   2.791 -0.3949  0.6599  0.1970
18181TIP3    H175958   4.772   4.062   2.765 -0.4751  1.1466  1.7569
18181TIP3    H275959   4.831   3.993   2.886 -1.0363 -1.5969  0.4902
18182TIP3   OH275960   3.431   1.143   6.721 -0.3564 -0.1107  0.1671
18182TIP3    H175961   3.495   1.142   6.649 -0.0048 -1.4188  0.4822
18182TIP3    H275962   3.478   1.181   6.795 -0.1101 -0.5703  0.2477
18183TIP3   OH275963   5.129   1.509  13.062  0.2005 -1.2690  0.0289
18183TIP3    H175964   5.101   1.568  13.132 -1.4339 -0.6924 -1.0959
18183TIP3    H275965   5.171   1.436  13.108 -2.2637 -1.6718  1.7269
18184TIP3   OH275966   6.175   4.762  14.407  0.5332  0.2446  0.0224
18184TIP3    H175967   6.118   4.824  14.452  1.0713  0.6255  0.1879
18184TIP3    H275968   6.116   4.699  14.365  0.0043  0.5719  0.2895
18185TIP3   OH275969   6.426   5.632  12.731  0.1940  0.1114  0.1760
18185TIP3    H175970   6.354   5.687  12.701  0.3107 -0.5021 -1.3025
18185TIP3    H275971   6.467   5.682  12.802 -1.5450  0.5508  0.8942
18186TIP3   OH275972   1.398   5.606  14.655  0.2603  0.5306 -0.4735
18186TIP3    H175973   1.366   5.516  14.643  0.3354  0.2277  1.4745
18186TIP3    H275974   1.321   5.654  14.686  0.1379  1.2360 -1.8261
18187TIP3   OH275975   6.096   1.811   4.203  0.2840  0.0241  0.6857
18187TIP3    H175976   6.160   1.880   4.220  0.8846  0.0320 -1.4063
18187TIP3    H275977   6.012   1.856   4.195  0.5168  0.3922  0.3222
18188TIP3   OH275978   4.671   4.114  14.897  0.7448 -0.3570  0.4152
18188TIP3    H175979   4.716   4.175  14.956  0.6537  0.0099  0.1099
18188TIP3    H275980   4.580   4.143  14.898  0.9895  0.4780 -0.9421
18189TIP3   OH275981   2.500   1.588   2.979 -0.1400 -0.0342 -0.1649
18189TIP3    H175982   2.527   1.658   2.920 -2.5020 -1.1703 -2.6744
18189TIP3    H275983   2.412   1.612   3.007 -1.2099 -2.2509 -1.5137
18190TIP3   OH275984   3.905   2.730   6.743  0.0124 -0.0029  0.3432
18190TIP3    H175985   3.867   2.815   6.767 -0.0968  0.6568 -2.0785
18190TIP3    H275986   3.862   2.707   6.661  0.7507 -1.9563  0.4970
18191TIP3   OH275987   0.392   6.582  12.906 -0.1957 -0.1821  0.4016
18191TIP3    H175988   0.306   6.551  12.880 -0.2399  0.1369  0.1673
18191TIP3    H275989   0.450   6.553  12.835 -0.4524  1.4172 -0.4863
18192TIP3   OH275990   2.404   0.322  12.776  0.2439  0.0634  0.3605
18192TIP3    H175991   2.492   0.348  12.802 -0.4934  1.3417  1.6956
18192TIP3    H275992   2.348   0.394  12.806 -1.2990 -0.9467 -0.0289
18193TIP3   OH275993   0.362   2.580   3.221 -0.1848  0.1490  0.1778
18193TIP3    H175994   0.289   2.612   3.168 -1.0777 -1.0893  0.6411
18193TIP3    H275995   0.321   2.525   3.288  1.0617  0.4552  1.2134
18194TIP3   OH275996   3.840   2.909  16.210 -0.1409  0.1711 -0.1647
18194TIP3    H175997   3.746   2.900  16.225 -0.2972 -0.4902 -1.4796
18194TIP3    H275998   3.863   2.993  16.251 -1.3113  0.3880  0.0620
18195TIP3   OH275999   1.865   5.087   2.571 -0.0058 -0.1463  0.3008
18195TIP3    H176000   1.841   4.996   2.553  0.0649 -0.3046  1.0131
18195TIP3    H276001   1.838   5.103   2.661  2.0587 -0.1799  0.9588
18196TIP3   OH276002   1.936   5.705  15.758  0.7382  0.0883 -0.6502
18196TIP3    H176003   1.958   5.666  15.673 -0.2589 -2.3695  0.1505
18196TIP3    H276004   2.015   5.693  15.811  0.9505  0.5169 -0.8735
18197TIP3   OH276005   5.347   0.853  11.298  0.1927  0.3590 -0.3854
18197TIP3    H176006   5.321   0.927  11.243  0.6960 -0.0183 -1.1410
18197TIP3    H276007   5.412   0.806  11.246 -0.0933 -0.5955  0.1046
18198TIP3   OH276008   2.205   4.884   6.722 -0.1667 -0.5076  0.5214
18198TIP3    H176009   2.296   4.855   6.711 -0.0798  0.0145 -0.1676
18198TIP3    H276010   2.176   4.908   6.634 -1.6359 -2.5473  0.4116
18199TIP3   OH276011   4.226   6.597  11.181  0.1976  0.6055 -0.1956
18199TIP3    H176012   4.204   6.634  11.095 -0.3375  0.6899 -0.0253
18199TIP3    H276013   4.319   6.614  11.191  0.0099  1.6846 -0.2360
18200TIP3   OH276014   1.992   6.672  14.926  0.1022 -0.0846  0.1090
18200TIP3    H176015   1.983   6.719  15.009 -1.1796  0.6261 -0.4254
18200TIP3    H276016   2.043   6.594  14.948 -1.3336 -0.5679  1.8309
18201TIP3   OH276017   3.778   1.076   5.366 -0.2675  0.1651 -0.3397
18201TIP3    H176018   3.792   0.987   5.332  0.7707  0.2074 -0.0505
18201TIP3    H276019   3.848   1.128   5.327 -0.6257  0.7698 -0.1851
18202TIP3   OH276020   4.543   6.276  10.462  0.3924  0.1405 -0.1531
18202TIP3    H176021   4.542   6.208  10.394  0.5173  0.6019 -0.6199
18202TIP3    H276022   4.602   6.343  10.428  1.8345 -0.4094  1.1906
18203TIP3   OH276023   5.143   5.454   4.615  0.3005 -0.4536  0.2279
18203TIP3    H176024   5.138   5.548   4.600  0.3436 -0.4635  0.1539
18203TIP3    H276025   5.194   5.420   4.542  2.2198 -0.2456  1.4420
18204TIP3   OH276026   3.517   0.871   6.734  0.0982  0.4306 -0.4424
18204TIP3    H176027   3.464   0.947   6.758 -0.9662  0.2474 -2.1084
18204TIP3    H276028   3.459   0.817   6.681  1.0170 -1.3004  0.2784
18205TIP3   OH276029   1.530   4.670  13.189 -0.1457 -0.1020  0.5799
18205TIP3    H176030   1.527   4.708  13.102 -0.9422  0.0286  0.6621
18205TIP3    H276031   1.497   4.581  13.178  1.6607 -0.7693  0.3969
18206TIP3   OH276032   2.329   2.888   2.850  0.4037 -1.0860 -0.4891
18206TIP3    H176033   2.407   2.866   2.799  1.5080 -0.8644  1.0589
18206TIP3    H276034   2.304   2.975   2.818  0.0161 -1.6867 -1.8802
18207TIP3   OH276035   6.162   0.815  14.982  0.2323 -0.0137  0.0569
18207TIP3    H176036   6.134   0.827  14.891  3.9618 -1.8967 -1.4614
18207TIP3    H276037   6.086   0.777  15.026 -1.2282 -0.2289 -2.5590
18208TIP3   OH276038   0.704   1.731   4.628 -0.0262 -0.0987  0.2700
18208TIP3    H176039   0.725   1.778   4.547  0.5233 -1.1146 -0.1789
18208TIP3    H276040   0.631   1.674   4.604  0.1156 -0.3774  0.5053
18209TIP3   OH276041   3.972   5.238   0.643 -0.8491 -0.4670  0.3008
18209TIP3    H176042   3.956   5.302   0.574  2.4886  0.6333  0.4416
18209TIP3    H276043   4.024   5.170   0.600  1.0828  0.1329  1.6122
18210TIP3   OH276044   1.752   3.680   2.957  0.0972 -0.0932  0.2056
18210TIP3    H176045   1.674   3.628   2.937 -0.3312 -0.2453  2.1615
18210TIP3    H276046   1.725   3.738   3.028  1.8421 -0.4228  1.1827
18211TIP3   OH276047   1.058   6.020   4.691 -0.4552 -0.4141  0.3809
18211TIP3    H176048   1.116   5.986   4.623 -0.2972  0.0849  0.2618
18211TIP3    H276049   0.970   6.004   4.659 -0.3959 -1.6836  0.8117
18212TIP3   OH276050   4.116   1.113   1.227  0.3187 -0.1047 -0.1297
18212TIP3    H176051   4.176   1.038   1.222  0.6055  0.0969  0.3198
18212TIP3    H276052   4.160   1.176   1.283  0.9402  1.2088 -2.0487
18213TIP3   OH276053   5.672   2.979   4.326  0.6689  0.0167  0.3014
18213TIP3    H176054   5.716   2.940   4.250  1.2389 -0.9179  1.1002
18213TIP3    H276055   5.713   3.065   4.335  1.7223 -0.4822  0.4761
18214TIP3   OH276056   1.285   1.433   1.589  0.4064 -0.1225 -0.4845
18214TIP3    H176057   1.199   1.471   1.603  0.5188 -0.1039  0.1587
18214TIP3    H276058   1.280   1.394   1.502 -0.1237  0.2215 -0.6100
18215TIP3   OH276059   6.543   5.523  14.796  0.4700  0.5022 -0.0279
18215TIP3    H176060   6.632   5.556  14.812  1.1103 -1.7615  1.3167
18215TIP3    H276061   6.542   5.438  14.838 -2.1115  0.1443 -0.7710
18216TIP3   OH276062   3.641   2.328  12.520 -0.3451 -0.0923  0.4543
18216TIP3    H176063   3.581   2.395  12.486  0.8892 -0.5384 -2.8123
18216TIP3    H276064   3.583   2.260  12.555 -1.7599  0.0215 -1.5847
18217TIP3   OH276065   3.792   0.069  14.580 -0.0207 -0.1407 -0.1323
18217TIP3    H176066   3.735   0.137  14.615  2.2296  1.4762  0.4641
18217TIP3    H276067   3.881   0.102  14.593  1.1113 -2.9438 -0.3262
18218TIP3   OH276068   3.671   1.480  11.543 -0.0217 -0.2988  0.0556
18218TIP3    H176069   3.748   1.498  11.489 -1.1198 -2.0854 -2.1747
18218TIP3    H276070   3.703   1.487  11.633  2.5375 -0.1378 -0.8258
18219TIP3   OH276071   5.469   3.834   2.282 -0.1600  0.5540  0.0296
18219TIP3    H176072   5.449   3.745   2.252  0.8556  0.1105  0.6297
18219TIP3    H276073   5.543   3.862   2.228  1.3532 -0.0596  1.7270
18220TIP3   OH276074   2.050   0.902  15.869  0.2925  0.0053 -0.3116
18220TIP3    H176075   2.136   0.933  15.839  0.5422 -1.4377 -1.1429
18220TIP3    H276076   2.032   0.826  15.814 -1.5216  0.2829 -0.1162
18221TIP3   OH276077   4.824   3.817   4.702 -0.0798 -0.0373 -0.0001
18221TIP3    H176078   4.779   3.734   4.687 -1.3955  0.6460  0.0711
18221TIP3    H276079   4.795   3.844   4.789  0.9793  0.1080  0.3134
18222TIP3   OH276080   4.621   2.836  17.102 -0.5524 -0.0003  0.0819
18222TIP3    H176081   4.541   2.807  17.146 -1.4284  0.0049 -1.4508
18222TIP3    H276082   4.597   2.839  17.009  0.6656  1.8823 -0.1998
18223TIP3   OH276083   1.584   5.037   2.024  0.5921 -0.0668 -0.0599
18223TIP3    H176084   1.675   5.021   2.048  0.3197  0.0606  1.0824
18223TIP3    H276085   1.580   5.131   2.006  1.4936 -0.6308 -3.7475
18224TIP3   OH276086   5.144   2.303   3.224 -0.1109 -0.7766  0.5589
18224TIP3    H176087   5.134   2.347   3.139  2.6707 -0.5383  0.3075
18224TIP3    H276088   5.188   2.221   3.204  0.9475 -0.5332  1.7841
18225TIP3   OH276089   0.142   4.321   3.066 -0.2236  0.0872 -0.3057
18225TIP3    H176090   0.062   4.279   3.097 -0.7130  0.7664 -0.6497
18225TIP3    H276091   0.151   4.398   3.121 -0.2880  0.4901 -0.8567
18226TIP3   OH276092   4.533   4.171  10.651 -0.5604 -0.6939 -0.5008
18226TIP3    H176093   4.441   4.160  10.624 -1.0118 -3.2628  1.8745
18226TIP3    H276094   4.534   4.254  10.698 -1.2432  0.3052 -2.2076
18227TIP3   OH276095   1.268   4.486  10.679 -0.0424 -0.6681 -0.3292
18227TIP3    H176096   1.237   4.411  10.628 -0.0658 -0.9760  0.1359
18227TIP3    H276097   1.188   4.534  10.702  0.0822  0.4719 -2.0954
18228TIP3   OH276098   1.216   4.361   1.662  0.1013 -0.0543 -0.2180
18228TIP3    H176099   1.161   4.431   1.627 -0.0935  1.3611  2.8411
18228TIP3    H276100   1.305   4.383   1.633  0.0731  1.5933  0.8951
18229TIP3   OH276101   2.746   4.215   4.122  0.1044 -0.5017  0.0320
18229TIP3    H176102   2.794   4.174   4.193  0.8610  1.7970  0.9008
18229TIP3    H276103   2.691   4.145   4.086  0.8190 -2.0556  1.8957
18230TIP3   OH276104   4.560   3.645   4.835 -0.1147 -0.0207  0.0136
18230TIP3    H176105   4.538   3.681   4.749  1.7452  0.7131 -0.1637
18230TIP3    H276106   4.648   3.608   4.824  0.4624  0.7985  1.8142
18231TIP3   OH276107   1.542   4.043   1.236  0.0645 -0.3113  0.0641
18231TIP3    H176108   1.613   3.996   1.280  0.2110  1.1512  1.4064
18231TIP3    H276109   1.586   4.110   1.185 -0.2724 -0.3164 -0.2370
18232TIP3   OH276110   5.258   2.455   5.226  0.3559  0.2148 -0.3576
18232TIP3    H176111   5.194   2.508   5.179  0.2190  0.3439 -0.0249
18232TIP3    H276112   5.224   2.366   5.221  0.8800  0.0743 -1.4144
18233TIP3   OH276113   1.674   4.423   2.273  0.1760  0.2268  0.0442
18233TIP3    H176114   1.706   4.406   2.361 -2.2469 -1.4892  0.6498
18233TIP3    H276115   1.623   4.503   2.281 -0.3226 -0.1140  0.2719
18234TIP3   OH276116   0.994   3.776  14.986  0.5016  0.2379 -0.0199
18234TIP3    H176117   1.050   3.699  14.996  1.1395  0.3783 -2.2581
18234TIP3    H276118   1.030   3.840  15.047  1.5551 -0.3632  0.0007
18235TIP3   OH276119   5.675   6.287  11.942  0.0890  0.4365 -0.5302
18235TIP3    H176120   5.686   6.204  11.989 -0.8463 -0.1389 -1.3006
18235TIP3    H276121   5.682   6.354  12.009 -0.4091 -0.3386  0.3128
18236TIP3   OH276122   4.869   2.021  16.655  0.1356 -0.0648  0.4367
18236TIP3    H176123   4.948   2.002  16.706  0.5416 -0.1515 -0.2280
18236TIP3    H276124   4.885   2.109  16.620 -1.1078  0.9472  2.3040
18237TIP3   OH276125   3.823   1.427  12.181 -0.2346  0.3231 -0.3543
18237TIP3    H176126   3.764   1.495  12.214 -1.7605 -1.6051  1.0567
18237TIP3    H276127   3.782   1.396  12.100  0.3598  0.9527 -0.8980
18238TIP3   OH276128   0.828   6.301  12.071 -0.6422  0.8398 -0.1867
18238TIP3    H176129   0.883   6.316  12.147  1.4720  1.7088 -1.8190
18238TIP3    H276130   0.812   6.206  12.072 -0.2992  0.7858  1.1024
18239TIP3   OH276131   4.111   6.153  15.626  0.2035  0.0969 -0.1304
18239TIP3    H176132   4.173   6.083  15.647  0.9950  0.9562  0.4443
18239TIP3    H276133   4.145   6.192  15.546  0.5821  0.7471  0.3347
18240TIP3   OH276134   0.317   3.699   1.478 -0.1586 -0.3666  0.1149
18240TIP3    H176135   0.250   3.697   1.410 -1.1635  0.1054  1.0518
18240TIP3    H276136   0.381   3.633   1.452 -0.4993 -0.1433 -1.3029
18241TIP3   OH276137   0.703   4.408   2.484  0.0494  0.0318 -0.6044
18241TIP3    H176138   0.732   4.351   2.556  1.4635  1.2988 -0.1325
18241TIP3    H276139   0.781   4.416   2.428 -0.9888 -0.7907 -2.1977
18242TIP3   OH276140   6.364   4.887  11.320 -0.3135  0.5071  0.2451
18242TIP3    H176141   6.329   4.831  11.389 -2.0035  0.8537 -0.3101
18242TIP3    H276142   6.292   4.897  11.258  0.7238  1.3843 -0.8429
18243TIP3   OH276143   2.905   6.054  11.773 -0.1636 -0.4488  0.4875
18243TIP3    H176144   2.842   6.057  11.845 -0.1105 -1.3004  0.5637
18243TIP3    H276145   2.869   5.990  11.712 -1.1048  1.5246 -1.0860
18244TIP3   OH276146   0.922   5.593   2.842 -0.1315 -0.0024  0.1957
18244TIP3    H176147   0.855   5.586   2.910 -0.9276 -0.9668 -0.6844
18244TIP3    H276148   0.938   5.503   2.815  0.0836  0.3952 -1.0020
18245TIP3   OH276149   4.891   0.912  17.181  0.0244 -0.0448 -0.4110
18245TIP3    H176150   4.984   0.891  17.172 -0.3893 -1.9085 -0.4282
18245TIP3    H276151   4.861   0.858  17.254 -1.1849  0.1126 -0.7793
18246TIP3   OH276152   4.480   2.582  15.167  0.7472  0.1859 -0.6357
18246TIP3    H176153   4.571   2.573  15.139  0.9970 -0.8789  0.5022
18246TIP3    H276154   4.442   2.495  15.155  0.0341  0.4771 -0.5316
18247TIP3   OH276155   5.875   4.061  11.957  0.3334 -0.9194  0.1777
18247TIP3    H176156   5.818   4.081  12.032 -1.0517 -1.6109 -0.6580
18247TIP3    H276157   5.940   4.131  11.957 -2.1442  1.4819 -0.4491
18248TIP3   OH276158   0.370   5.091   3.708 -0.0112 -0.2709  0.1871
18248TIP3    H176159   0.363   5.059   3.618 -1.0157 -0.1037  0.1983
18248TIP3    H276160   0.329   5.022   3.760 -1.2074  0.5321  0.3168
18249TIP3   OH276161   1.412   5.453  13.860 -0.4166 -0.1157  0.0046
18249TIP3    H176162   1.457   5.382  13.815 -1.0648 -0.9636  0.7023
18249TIP3    H276163   1.353   5.410  13.921 -0.7736  1.0189  0.4704
18250TIP3   OH276164   1.940   6.302   3.796  0.2067 -0.2973  0.1587
18250TIP3    H176165   1.867   6.290   3.736  0.6174 -1.6801 -0.0678
18250TIP3    H276166   2.004   6.354   3.747  0.5582 -1.4556 -0.6216
18251TIP3   OH276167   5.014   6.464  11.047 -0.2730 -0.1094  0.0422
18251TIP3    H176168   5.054   6.420  10.972  0.6132  1.0194 -0.1568
18251TIP3    H276169   5.087   6.487  11.104 -0.9711 -1.2530  1.4339
18252TIP3   OH276170   3.482   4.885  13.897  0.6434  0.0053  0.2421
18252TIP3    H176171   3.513   4.841  13.975 -0.9187 -0.4306  0.6463
18252TIP3    H276172   3.511   4.975  13.906  0.1040  0.0579  1.5466
18253TIP3   OH276173   2.560   1.529   6.127  0.0362  0.1044  0.8684
18253TIP3    H176174   2.522   1.576   6.200  1.7241 -0.1243  1.9250
18253TIP3    H276175   2.651   1.559   6.123  0.6656 -1.7272  0.4845
18254TIP3   OH276176   2.023   5.435  13.255 -0.0595 -0.7526 -0.2474
18254TIP3    H176177   1.948   5.427  13.314 -0.2574 -0.8861 -0.5172
18254TIP3    H276178   2.037   5.529  13.247  0.1955 -0.7428  0.3034
18255TIP3   OH276179   1.233   0.013   0.430  0.3650  0.0715 -0.4756
18255TIP3    H176180   1.180   0.086   0.461 -2.0772 -1.7360 -0.1816
18255TIP3    H276181   1.286  -0.013   0.506 -0.9399 -0.3214  0.3057
18256TIP3   OH276182   2.353   2.162   2.619 -1.1319 -0.5536  0.1845
18256TIP3    H176183   2.306   2.220   2.679  1.4255  2.3336 -0.4297
18256TIP3    H276184   2.345   2.205   2.534  0.6605 -1.2144 -0.3375
18257TIP3   OH276185   0.100   0.299   1.695 -0.3854  0.7341 -0.2273
18257TIP3    H176186   0.009   0.280   1.673 -0.2303 -1.0265  0.5502
18257TIP3    H276187   0.150   0.266   1.620 -0.4181  2.4615 -1.0394
18258TIP3   OH276188   3.294   0.836  12.416 -0.1736  0.0246  0.6205
18258TIP3    H176189   3.280   0.752  12.372 -0.6249 -1.1799  3.0109
18258TIP3    H276190   3.362   0.819  12.481  2.3954  2.4479 -1.3327
18259TIP3   OH276191   3.336   5.528  17.125  0.0011  0.4735  0.0179
18259TIP3    H176192   3.408   5.519  17.063  2.3297  2.8185  2.2908
18259TIP3    H276193   3.287   5.604  17.093 -1.4532 -1.0294 -1.4392
18260TIP3   OH276194   6.460   4.244  12.412 -0.5636 -0.4018  0.2329
18260TIP3    H176195   6.456   4.149  12.429 -1.9332 -0.9886 -3.0319
18260TIP3    H276196   6.538   4.256  12.358 -0.3195  0.3646  0.7482
18261TIP3   OH276197   6.396   6.073   3.257  0.6271 -0.6467 -0.2420
18261TIP3    H176198   6.314   6.119   3.239 -0.1067 -2.2260 -0.9465
18261TIP3    H276199   6.398   6.065   3.353 -0.6597 -1.7450 -0.3051
18262TIP3   OH276200   0.881   0.218   2.892  0.5146 -0.0074 -0.1804
18262TIP3    H176201   0.924   0.136   2.917  0.4059 -0.1753 -0.5460
18262TIP3    H276202   0.797   0.190   2.856  0.1442  0.3146  0.4260
18263TIP3   OH276203   1.589   6.437  12.537 -1.2580 -0.9156  0.2230
18263TIP3    H176204   1.625   6.349  12.522 -0.5807 -0.6957  0.5300
18263TIP3    H276205   1.552   6.433  12.625 -0.5873 -0.6954  0.5247
18264TIP3   OH276206   2.819   5.223  15.515  0.7828 -0.0077  0.3581
18264TIP3    H176207   2.808   5.140  15.563 -1.1745 -0.6138 -1.0836
18264TIP3    H276208   2.831   5.196  15.424  1.0114  1.2752  0.0090
18265TIP3   OH276209   2.405   1.959  14.091  0.0300  0.4735  0.1147
18265TIP3    H176210   2.491   1.932  14.122  0.1950  0.4137 -0.3912
18265TIP3    H276211   2.354   1.878  14.089  0.1865  0.3842 -0.3071
18266TIP3   OH276212   0.986   4.798  11.975  0.1438  0.1350  0.0760
18266TIP3    H176213   0.992   4.702  11.966  2.1210  0.2404 -0.0597
18266TIP3    H276214   1.002   4.831  11.886  1.5318  0.6461  0.5067
18267TIP3   OH276215   3.044   1.371  12.509  0.5795 -0.3579  0.1243
18267TIP3    H176216   3.045   1.460  12.546 -0.8274 -0.2864  0.0025
18267TIP3    H276217   3.020   1.315  12.583  0.5607 -0.5387 -0.0199
18268TIP3   OH276218   0.820   5.422   2.332 -0.4084  0.0908 -0.0788
18268TIP3    H176219   0.843   5.428   2.239 -1.3563 -1.9970 -0.4818
18268TIP3    H276220   0.894   5.376   2.372  0.5737  2.0963  0.4478
18269TIP3   OH276221   2.022   3.591   3.060 -0.0198 -0.3386  0.1052
18269TIP3    H176222   1.938   3.602   3.016  0.0093 -1.3747 -0.2304
18269TIP3    H276223   2.036   3.673   3.108 -0.0652  0.8315 -1.8103
18270TIP3   OH276224   4.630   2.125   1.229 -0.2410 -0.1996 -0.2896
18270TIP3    H176225   4.706   2.106   1.284  0.2351 -0.0423 -0.8855
18270TIP3    H276226   4.555   2.111   1.287  0.2656  0.5251  0.5675
18271TIP3   OH276227   0.148   4.533  13.172  0.7973  0.3703 -0.2924
18271TIP3    H176228   0.126   4.474  13.244 -2.3721  1.1490 -0.5411
18271TIP3    H276229   0.166   4.476  13.098  1.3994 -0.3807  0.4348
18272TIP3   OH276230   4.693   2.987  11.866 -0.0718 -0.4759  0.0225
18272TIP3    H176231   4.773   2.941  11.892  0.0699  0.5321  1.4113
18272TIP3    H276232   4.724   3.067  11.824 -0.3390  0.4148  1.4871
18273TIP3   OH276233   3.797   2.384   0.161 -0.2470 -0.0048 -0.5460
18273TIP3    H176234   3.861   2.372   0.091 -0.2984 -0.7172 -0.4775
18273TIP3    H276235   3.754   2.467   0.140 -1.4618 -1.0394 -2.3537
18274TIP3   OH276236   1.962   6.096  17.228 -0.0706 -0.2554 -0.3422
18274TIP3    H176237   1.932   6.138  17.148 -0.4965 -1.6873 -0.9462
18274TIP3    H276238   1.926   6.008  17.224 -0.4093 -0.2340  1.5982
18275TIP3   OH276239   2.553   4.801  12.916  0.1449  0.3438  0.1255
18275TIP3    H176240   2.609   4.728  12.892  0.4307  0.4246  0.5313
18275TIP3    H276241   2.495   4.814  12.841 -0.1502 -0.5276  0.1963
18276TIP3   OH276242   2.646   2.263   3.834 -0.2163  0.1192 -0.2436
18276TIP3    H176243   2.698   2.197   3.787 -0.5791  0.2253 -0.7973
18276TIP3    H276244   2.593   2.304   3.766 -2.4727 -1.3209  0.5736
18277TIP3   OH276245   0.778   3.164  15.905  0.6651  0.1612  0.0751
18277TIP3    H176246   0.761   3.251  15.943  0.7148 -0.6387  1.9697
18277TIP3    H276247   0.873   3.157  15.902  0.6649 -0.0078  0.3835
18278TIP3   OH276248   1.487   6.655  14.814  0.2855  0.1728  0.5266
18278TIP3    H176249   1.567   6.656  14.866 -0.2132 -1.5646  1.3485
18278TIP3    H276250   1.422   6.612  14.869 -0.1708 -2.0086 -1.6438
18279TIP3   OH276251   5.328   3.881  13.058 -0.3188 -0.3316 -0.4561
18279TIP3    H176252   5.297   3.957  13.108 -0.7511 -0.4500 -0.5404
18279TIP3    H276253   5.252   3.823  13.053 -0.2004 -0.4397 -1.0232
18280TIP3   OH276254   6.669   0.155  10.738  0.2733  0.1771  0.1045
18280TIP3    H176255   6.703   0.109  10.661  0.7033  1.0092 -0.2139
18280TIP3    H276256   6.582   0.185  10.711 -0.6827 -1.8591  0.8816
18281TIP3   OH276257   3.090   5.674   2.681 -0.0558 -1.0886 -0.0660
18281TIP3    H176258   2.998   5.663   2.659 -0.4043 -0.8202  1.2220
18281TIP3    H276259   3.120   5.587   2.705  0.2730 -1.3451 -1.3834
18282TIP3   OH276260   1.272   0.487  16.408  0.2247  0.2328  0.1747
18282TIP3    H176261   1.191   0.490  16.460  0.2599  0.5581  0.2169
18282TIP3    H276262   1.243   0.487  16.317  0.1710  0.0850  0.1933
18283TIP3   OH276263   3.188   2.398   0.937 -0.3458  0.2457  0.3360
18283TIP3    H176264   3.254   2.366   0.876 -0.6277 -0.7268  0.5325
18283TIP3    H276265   3.236   2.454   0.998 -0.0922  1.3548 -0.8627
18284TIP3   OH276266   1.359   1.171  11.254 -0.0185 -0.2082 -0.4676
18284TIP3    H176267   1.442   1.204  11.221  0.0631  0.6107  0.5169
18284TIP3    H276268   1.351   1.210  11.341 -0.9682 -1.0592 -0.1625
18285TIP3   OH276269   2.085   0.001   4.784 -0.4378  0.3997  0.5867
18285TIP3    H176270   2.133  -0.068   4.739 -2.1699 -0.3450 -0.1902
18285TIP3    H276271   2.140   0.078   4.777  0.4559 -0.3354 -0.6185
18286TIP3   OH276272   3.510   5.227   4.499 -0.2193 -0.2379 -0.4895
18286TIP3    H176273   3.534   5.313   4.534  0.5666 -0.4461 -0.5262
18286TIP3    H276274   3.415   5.233   4.484 -0.3446  0.2844  0.4695
18287TIP3   OH276275   2.946   3.224  12.250  0.4021  0.0300 -0.3937
18287TIP3    H176276   3.027   3.274  12.258  1.0755 -0.7612 -2.1467
18287TIP3    H276277   2.895   3.249  12.327  1.1810  2.5775 -0.6567
18288TIP3   OH276278   1.622   5.333  15.921 -0.7000 -0.1333 -0.2559
18288TIP3    H176279   1.536   5.376  15.912 -0.4759  0.2958 -0.3835
18288TIP3    H276280   1.681   5.403  15.949 -0.6124 -0.6637  0.9138
18289TIP3   OH276281   6.252   4.540  14.577 -0.2512  0.0538 -0.0435
18289TIP3    H176282   6.333   4.562  14.622 -1.3643  0.0725  2.0022
18289TIP3    H276283   6.225   4.622  14.535  0.2992  0.2739  0.0219
18290TIP3   OH276284   2.783   4.770   4.010  0.0088 -0.3690  0.1533
18290TIP3    H176285   2.737   4.762   3.927  0.6648 -0.4908 -0.1983
18290TIP3    H276286   2.826   4.686   4.023 -0.1553 -0.3814  0.6572
18291TIP3   OH276287   1.329   4.109  12.969  0.0975 -0.1607 -0.1887
18291TIP3    H176288   1.239   4.110  13.002 -0.1719 -1.1739 -0.8593
18291TIP3    H276289   1.373   4.179  13.016 -1.8137  2.3241 -1.9599
18292TIP3   OH276290   2.839   5.235   2.416 -0.1361 -0.0802  0.1752
18292TIP3    H176291   2.877   5.322   2.426  0.7407 -0.4991  0.6111
18292TIP3    H276292   2.863   5.189   2.497 -1.6357 -0.3376  0.4761
18293TIP3   OH276293   1.527   0.950   5.916 -0.0448 -0.7589 -0.6899
18293TIP3    H176294   1.595   1.017   5.921 -1.7876  0.9888  0.7373
18293TIP3    H276295   1.569   0.870   5.946  1.6551  0.0321 -0.8898
18294TIP3   OH276296   3.316   5.865  10.675  0.1005  0.5108  0.1186
18294TIP3    H176297   3.392   5.850  10.732  1.0083  0.7616 -1.0222
18294TIP3    H276298   3.246   5.890  10.736  1.0993  0.9290  1.1211
18295TIP3   OH276299   6.126   2.270  16.606 -0.3988 -0.6241 -0.0906
18295TIP3    H176300   6.076   2.308  16.533  0.3085 -1.1444 -0.8467
18295TIP3    H276301   6.059   2.247  16.670 -0.8019  2.7573  0.8137
18296TIP3   OH276302   4.169   0.991  14.561  0.2518  0.4755  0.1828
18296TIP3    H176303   4.261   1.017  14.558  0.2063  0.5837 -0.2185
18296TIP3    H276304   4.124   1.065  14.601  0.5281 -0.1031  1.6255
18297TIP3   OH276305   6.462   2.581   0.225  1.2096 -1.0179 -0.3389
18297TIP3    H176306   6.440   2.663   0.180  1.1521 -0.1493  1.2309
18297TIP3    H276307   6.512   2.532   0.160 -0.7105 -0.7440 -2.1155
18298TIP3   OH276308   1.874   6.388   2.567  0.0620  0.0769  0.1017
18298TIP3    H176309   1.965   6.411   2.545  0.1791 -1.7419 -1.4863
18298TIP3    H276310   1.822   6.426   2.496 -0.6145  2.3695  1.7672
18299TIP3   OH276311   4.603   5.392   3.571  0.5026 -0.1598 -0.5698
18299TIP3    H176312   4.648   5.311   3.546 -0.6267 -1.2380  0.7834
18299TIP3    H276313   4.552   5.416   3.494 -0.6721 -1.8385 -0.3388
18300TIP3   OH276314   2.990   0.329   2.628 -0.5659  0.8092 -0.1528
18300TIP3    H176315   2.987   0.348   2.722 -0.1977  0.1956 -0.0138
18300TIP3    H276316   3.082   0.346   2.604 -0.8864  1.9524 -0.6177
18301TIP3   OH276317   5.027   0.406   3.458  0.2131 -1.1865  0.2043
18301TIP3    H176318   5.093   0.469   3.487 -0.2496  0.0922 -1.4558
18301TIP3    H276319   4.983   0.379   3.538  0.3464  0.6874  0.9394
18302TIP3   OH276320   3.603   3.246   2.203 -0.1899  0.1456 -0.3900
18302TIP3    H176321   3.679   3.193   2.176 -0.3856  0.2547 -1.1572
18302TIP3    H276322   3.528   3.188   2.193 -0.1612 -0.1238  0.8508
18303TIP3   OH276323   2.940   5.196  11.346 -0.8660  0.6882  0.3245
18303TIP3    H176324   3.020   5.234  11.309  0.0570 -3.3756 -2.2095
18303TIP3    H276325   2.956   5.192  11.440  2.3701 -0.9552 -0.2451
18304TIP3   OH276326   3.525   1.501   2.391  0.3223  0.5827  0.6043
18304TIP3    H176327   3.569   1.444   2.328 -0.5115 -0.4450  0.9346
18304TIP3    H276328   3.596   1.532   2.448  0.7880 -0.1069  0.4065
18305TIP3   OH276329   3.805   0.165   4.552 -0.1448  0.4064 -0.0167
18305TIP3    H176330   3.715   0.186   4.527 -0.9248  0.7881  2.9230
18305TIP3    H276331   3.828   0.233   4.616  1.2376 -1.2521  1.2895
18306TIP3   OH276332   3.201   4.719  12.973  0.2737  0.0190 -0.5367
18306TIP3    H176333   3.154   4.636  12.976  0.1035  0.1515  1.0607
18306TIP3    H276334   3.135   4.784  12.950  0.0945 -0.0788 -0.2965
18307TIP3   OH276335   1.279   3.910   5.090 -0.5514 -0.4571 -0.3155
18307TIP3    H176336   1.242   3.824   5.110  0.2268 -1.0779 -1.5433
18307TIP3    H276337   1.262   3.961   5.169 -1.2602 -1.6493  0.3273
18308TIP3   OH276338   2.204   2.161  15.267 -0.1577  0.2603  0.0706
18308TIP3    H176339   2.142   2.180  15.337  0.2140  0.0955  0.4486
18308TIP3    H276340   2.167   2.203  15.190 -0.7756  0.0935  0.2764
18309TIP3   OH276341   2.328   4.473   5.748 -0.1098 -0.4749 -0.4223
18309TIP3    H176342   2.418   4.487   5.717  0.0801  0.5950  0.5531
18309TIP3    H276343   2.326   4.515   5.834 -1.2329 -1.4774  0.0619
18310TIP3   OH276344   5.889   2.209  16.752  0.0334 -0.2071 -0.3679
18310TIP3    H176345   5.877   2.245  16.840  0.5372 -0.7501 -0.0766
18310TIP3    H276346   5.818   2.248  16.701 -1.0618 -0.9138  0.5943
18311TIP3   OH276347   0.294   1.044   6.793 -0.2410 -0.1726 -0.3013
18311TIP3    H176348   0.256   1.132   6.797 -0.0060  0.0152 -2.0910
18311TIP3    H276349   0.387   1.059   6.774  0.7380 -0.6418  3.7160
18312TIP3   OH276350   1.442   2.247  14.397  0.2477 -0.2647 -0.3643
18312TIP3    H176351   1.473   2.286  14.479 -0.8688  0.6658 -0.3709
18312TIP3    H276352   1.520   2.245  14.341  1.6720 -3.3564  1.5763
18313TIP3   OH276353   4.483   4.733   3.976 -0.3229  0.1270  0.4433
18313TIP3    H176354   4.446   4.757   3.891  0.1921  3.0180  0.9931
18313TIP3    H276355   4.539   4.657   3.957  1.1129  1.7659 -2.1164
18314TIP3   OH276356   4.434   2.165   0.824 -0.3298 -0.1508  0.0022
18314TIP3    H176357   4.462   2.148   0.734 -0.8899 -1.7835  0.1250
18314TIP3    H276358   4.500   2.122   0.878 -1.1442 -1.0034  0.3330
18315TIP3   OH276359   2.943   0.481  16.635  0.5021 -0.2663 -0.0159
18315TIP3    H176360   2.952   0.449  16.725 -1.8759 -1.8306 -0.3015
18315TIP3    H276361   2.854   0.456  16.609 -0.5804  4.3196 -1.1672
18316TIP3   OH276362   1.395   3.172   4.602  0.0146  0.0230 -0.3113
18316TIP3    H176363   1.437   3.250   4.567  1.3643 -0.1625  0.8733
18316TIP3    H276364   1.458   3.101   4.589 -0.5882 -0.5813 -0.0258
18317TIP3   OH276365   5.513   5.803   1.570 -0.7742 -0.2223  0.2886
18317TIP3    H176366   5.549   5.883   1.610  0.7897 -0.3647 -0.7712
18317TIP3    H276367   5.447   5.835   1.509  0.8039  0.4050 -1.1527
18318TIP3   OH276368   6.458   1.264   0.957  0.2631  0.1995  0.4353
18318TIP3    H176369   6.372   1.305   0.964  0.0199  0.0374 -1.3059
18318TIP3    H276370   6.518   1.328   0.994 -0.5179  0.6170  1.0011
18319TIP3   OH276371   2.479   4.334  14.496 -0.4764  0.4159 -0.0455
18319TIP3    H176372   2.460   4.353  14.405  0.9159  1.0492 -0.2170
18319TIP3    H276373   2.571   4.359  14.507  0.1360 -2.0672  0.8457
18320TIP3   OH276374   6.564   4.690   0.864 -0.0241  0.0773 -0.1469
18320TIP3    H176375   6.545   4.615   0.920 -0.2262  0.0685 -0.2259
18320TIP3    H276376   6.597   4.652   0.782 -1.7817 -0.0025 -0.8381
18321TIP3   OH276377   4.943   0.881   3.103  0.0051  0.3261  0.6634
18321TIP3    H176378   4.994   0.837   3.035 -1.6677 -2.8394  1.3220
18321TIP3    H276379   5.003   0.890   3.177  0.4506 -0.7502  0.4432
18322TIP3   OH276380   1.915   5.879  13.765  0.4483  0.3614  0.0843
18322TIP3    H176381   1.946   5.800  13.808 -0.5383  0.0142  0.1789
18322TIP3    H276382   1.844   5.850  13.708 -0.2823  1.2409  0.5219
18323TIP3   OH276383   1.994   3.460   0.637  0.1356 -0.1596  0.1218
18323TIP3    H176384   1.985   3.420   0.550 -0.0088 -0.6610  0.3652
18323TIP3    H276385   1.996   3.386   0.697  0.9280  0.1577  0.4893
18324TIP3   OH276386   0.851   1.990   0.417  0.0221 -0.0269 -0.0809
18324TIP3    H176387   0.869   2.068   0.366 -2.5143 -0.1173 -1.2067
18324TIP3    H276388   0.914   1.925   0.385 -0.5936  0.3430 -2.1433
18325TIP3   OH276389   3.950   2.184   1.028 -0.4603 -0.0818  0.4572
18325TIP3    H176390   3.856   2.198   1.034 -0.6330 -1.8575  3.0025
18325TIP3    H276391   3.987   2.239   1.097  0.1695 -0.8776  0.7643
18326TIP3   OH276392   0.580   0.372  14.405  0.5095  0.2773 -0.0263
18326TIP3    H176393   0.603   0.300  14.465  0.5368  0.9140  0.7249
18326TIP3    H276394   0.610   0.341  14.319 -1.4769 -1.5686 -0.1081
18327TIP3   OH276395   6.004   2.592  16.428  0.3237 -0.4385 -0.2019
18327TIP3    H176396   5.968   2.593  16.339  0.1350 -1.5366 -0.1475
18327TIP3    H276397   5.940   2.641  16.480 -0.8075 -1.8279 -0.2319
18328TIP3   OH276398   3.691   0.591   3.189 -0.1207 -0.0227  0.1066
18328TIP3    H176399   3.650   0.519   3.141  0.8733  0.8203 -2.1189
18328TIP3    H276400   3.619   0.635   3.234 -1.0181 -1.1561 -0.2063
18329TIP3   OH276401   6.537   3.533   5.463 -0.2180  0.4498  0.3590
18329TIP3    H176402   6.466   3.567   5.409  1.5759  0.7701 -1.8812
18329TIP3    H276403   6.587   3.476   5.404  1.0846 -0.2034  2.0385
18330TIP3   OH276404   0.431   2.471   5.563  0.0686 -0.1273 -0.3756
18330TIP3    H176405   0.347   2.517   5.567  0.2257  0.0900  0.5605
18330TIP3    H276406   0.485   2.514   5.629  0.0243 -2.0072  0.9548
18331TIP3   OH276407   5.226   5.821  15.724 -0.2395  0.5584 -0.4921
18331TIP3    H176408   5.268   5.769  15.793  1.0127  1.1560 -0.7925
18331TIP3    H276409   5.278   5.803  15.646 -0.7967  0.9890 -0.9654
18332TIP3   OH276410   0.400   0.937   0.845 -0.3132 -1.0393  0.3661
18332TIP3    H176411   0.450   0.979   0.915 -3.4865  1.6782  1.1383
18332TIP3    H276412   0.335   0.883   0.890 -1.2073 -0.7192 -0.5076
18333TIP3   OH276413   6.578   0.371  14.917  0.3889  0.2639  0.0769
18333TIP3    H176414   6.660   0.339  14.880  1.2938  0.6469  1.7037
18333TIP3    H276415   6.555   0.448  14.865  0.9457  0.0245 -0.5148
18334TIP3   OH276416   0.514   5.223  12.754  0.0770  0.2793 -0.1661
18334TIP3    H176417   0.514   5.193  12.845 -2.2211 -1.0055 -0.5640
18334TIP3    H276418   0.510   5.319  12.761 -0.1377  0.1884  1.0931
18335TIP3   OH276419   5.204   2.793   6.610  0.0268  0.1622  0.1460
18335TIP3    H176420   5.113   2.789   6.578 -0.4029  1.9550  1.0977
18335TIP3    H276421   5.250   2.845   6.544  0.5032 -1.1713 -0.5985
18336TIP3   OH276422   6.779   6.472   1.913 -0.4252  0.0272  0.9613
18336TIP3    H176423   6.856   6.437   1.958  0.3570  0.1909 -0.2325
18336TIP3    H276424   6.771   6.419   1.834 -0.5179  1.1248  0.2237
18337TIP3   OH276425   3.618   2.121  13.194 -0.2339 -0.0319 -0.5432
18337TIP3    H176426   3.679   2.091  13.261 -0.5930  0.1530 -0.1293
18337TIP3    H276427   3.547   2.163  13.243 -0.5343  0.0429 -1.0352
18338TIP3   OH276428   3.973   3.882   5.646  0.2396  0.3591  0.7242
18338TIP3    H176429   3.910   3.938   5.693  1.2273  1.9839  0.1602
18338TIP3    H276430   4.051   3.885   5.701  0.1195 -0.9515  0.9744
18339TIP3   OH276431   1.712   5.363  14.800  0.2648 -0.0135  0.1520
18339TIP3    H176432   1.770   5.352  14.875 -0.3904  1.2498  0.8676
18339TIP3    H276433   1.716   5.279  14.753 -0.5046 -1.3804  2.4360
18340TIP3   OH276434   4.171   6.063  14.904  0.1826  0.8642  0.7411
18340TIP3    H176435   4.105   6.013  14.952 -0.9090  1.6843  0.1162
18340TIP3    H276436   4.195   6.006  14.831  0.5809  0.3304  1.2880
18341TIP3   OH276437   5.471   5.133   4.463  0.3571 -0.0166 -0.1124
18341TIP3    H176438   5.420   5.053   4.450  0.4999 -0.0534 -0.4460
18341TIP3    H276439   5.528   5.137   4.387  0.4528  0.3267 -0.0197
18342TIP3   OH276440   2.152   1.471   1.659  0.4200  0.3706 -0.1975
18342TIP3    H176441   2.167   1.497   1.750  0.9502  0.2667 -0.2500
18342TIP3    H276442   2.202   1.390   1.649  1.1395  0.8744 -0.8360
18343TIP3   OH276443   1.115   4.763  16.586 -0.1510 -0.0532  0.3984
18343TIP3    H176444   1.199   4.799  16.617  0.1791 -0.4030 -0.0794
18343TIP3    H276445   1.080   4.831  16.528 -0.5310  0.3894  1.1384
18344TIP3   OH276446   2.974   0.163   1.475 -0.1677 -0.0391 -0.0417
18344TIP3    H176447   2.985   0.137   1.383 -0.1869 -0.8736  0.1899
18344TIP3    H276448   3.002   0.086   1.525 -0.4056  0.3228  0.6476
18345TIP3   OH276449   2.426   4.228  12.651  0.3803 -0.6274 -0.0295
18345TIP3    H176450   2.512   4.193  12.672  0.4851  0.1794  0.9234
18345TIP3    H276451   2.367   4.189  12.716  0.0109 -1.2196 -0.7122
18346TIP3   OH276452   6.517   2.303   1.773 -0.8054  0.1465 -0.4858
18346TIP3    H176453   6.558   2.221   1.799 -1.6401 -0.3650 -0.7696
18346TIP3    H276454   6.585   2.351   1.727 -0.5002 -0.6499 -0.8603
18347TIP3   OH276455   3.048   2.018   3.263  0.1975  0.3839 -0.4716
18347TIP3    H176456   3.071   2.037   3.354 -2.5087 -0.0931  0.3631
18347TIP3    H276457   3.016   1.928   3.265  0.0509  0.3972 -1.8871
18348TIP3   OH276458   4.130   1.995   2.714 -0.3026  0.6045 -0.1222
18348TIP3    H176459   4.093   1.952   2.637  0.2294 -0.5209  0.2325
18348TIP3    H276460   4.058   1.999   2.777 -0.1764 -0.4302  0.1008
18349TIP3   OH276461   2.226   3.770  11.787  0.0152  0.5518 -0.0199
18349TIP3    H176462   2.197   3.693  11.834  0.0312  0.7769  0.3550
18349TIP3    H276463   2.285   3.736  11.719  3.1609  0.5300  2.5840
18350TIP3   OH276464   2.084   2.929  16.341 -0.2462  0.5623  0.1897
18350TIP3    H176465   2.129   2.985  16.404 -0.2234 -0.8628  1.4728
18350TIP3    H276466   2.028   2.988  16.292  1.1896  1.9953  0.2289
18351TIP3   OH276467   1.697   5.127  16.111  0.6162 -0.4133  0.1949
18351TIP3    H176468   1.617   5.162  16.151  2.0250  1.3207  1.5825
18351TIP3    H276469   1.685   5.143  16.017 -0.9038 -0.6971  0.3189
18352TIP3   OH276470   2.811   0.825   0.670 -0.6101  0.0037  0.4715
18352TIP3    H176471   2.772   0.873   0.598  0.4652  0.1920  0.0010
18352TIP3    H276472   2.841   0.743   0.631 -0.1188  0.0598  0.7164
18353TIP3   OH276473   4.360   0.391  12.500  0.2463  0.8075 -0.6954
18353TIP3    H176474   4.389   0.480  12.516 -1.3451  1.0139  1.1573
18353TIP3    H276475   4.266   0.397  12.489 -0.0073 -0.7591  0.3949
18354TIP3   OH276476   1.593   4.544  15.335 -0.0021  0.3449  0.2280
18354TIP3    H176477   1.630   4.562  15.248  0.6365  0.2453  0.4790
18354TIP3    H276478   1.541   4.465  15.323 -0.1703  0.5064 -0.1319
18355TIP3   OH276479   0.520   3.011  12.992  0.9397 -0.0453  0.1955
18355TIP3    H176480   0.426   2.996  12.978  0.4262  1.4374  1.8746
18355TIP3    H276481   0.559   2.924  12.991 -0.6413 -0.7693  0.6777
18356TIP3   OH276482   6.715   0.318  14.603 -0.5301 -0.2534 -0.5029
18356TIP3    H176483   6.668   0.299  14.522  0.4528  0.8998 -1.3552
18356TIP3    H276484   6.738   0.410  14.596  1.4613 -0.6895  0.0978
18357TIP3   OH276485   5.558   1.274  12.221 -0.0099  0.7743 -0.4398
18357TIP3    H176486   5.631   1.280  12.282 -1.8541  0.9413  1.8085
18357TIP3    H276487   5.497   1.213  12.262 -0.8146  0.0431 -2.6387
18358TIP3   OH276488   1.622   1.626   1.232 -0.8197 -0.7466  0.0918
18358TIP3    H176489   1.556   1.632   1.300  0.4738 -0.7002  1.3550
18358TIP3    H276490   1.705   1.612   1.279  0.6660  2.9383 -1.2088
18359TIP3   OH276491   0.217   6.372   0.197  0.0045 -0.5560  0.1184
18359TIP3    H176492   0.189   6.388   0.287  1.7156 -0.9319  0.7430
18359TIP3    H276493   0.293   6.430   0.185 -0.3402 -0.3576 -1.1525
18360TIP3   OH276494   2.245   1.685   3.037 -0.3531  0.1809 -0.2044
18360TIP3    H176495   2.226   1.595   3.065 -2.0928  0.7569  0.5181
18360TIP3    H276496   2.237   1.737   3.116 -1.6190  1.3033 -1.0596
18361TIP3   OH276497   1.598   5.609   0.248 -0.0949  0.6979  0.2457
18361TIP3    H176498   1.598   5.589   0.341 -1.0641  1.0812  0.3251
18361TIP3    H276499   1.629   5.529   0.206 -1.8056 -0.2281  0.7283
18362TIP3   OH276500   1.022   3.793  15.322  0.0784  0.7229  0.5852
18362TIP3    H176501   1.017   3.782  15.417  2.9858 -0.4265  0.6486
18362TIP3    H276502   1.103   3.749  15.297 -1.1371  0.1560 -2.5815
18363TIP3   OH276503   2.363   4.683  12.342 -0.3554  0.3760  0.1409
18363TIP3    H176504   2.397   4.634  12.267 -1.4768 -0.7801  0.3655
18363TIP3    H276505   2.369   4.621  12.415 -2.8560  0.1484  0.1934
18364TIP3   OH276506   6.528   3.827  16.617 -0.1321 -0.1427  0.3370
18364TIP3    H176507   6.464   3.761  16.645  0.3462  0.1549  2.1562
18364TIP3    H276508   6.580   3.845  16.695  1.9665 -0.1211 -1.0437
18365TIP3   OH276509   1.802   2.274   5.792  0.0257 -0.2165 -0.3491
18365TIP3    H176510   1.750   2.193   5.787 -0.5707  0.1555 -0.2438
18365TIP3    H276511   1.878   2.256   5.737 -0.5543 -0.5232 -1.0651
18366TIP3   OH276512   3.351   0.285   5.618 -0.4943  0.1276 -0.1204
18366TIP3    H176513   3.372   0.378   5.620 -0.6695  0.1517  2.4649
18366TIP3    H276514   3.435   0.242   5.602 -0.1858  0.6645  0.0409
18367TIP3   OH276515   0.847   2.807  14.374 -0.4971 -0.4659  0.0762
18367TIP3    H176516   0.895   2.744  14.427  0.5604  3.0658  3.5823
18367TIP3    H276517   0.912   2.843  14.315 -0.2972 -0.2566  0.4204
18368TIP3   OH276518   5.228   2.651  14.845 -0.1077  0.2182 -0.0098
18368TIP3    H176519   5.203   2.575  14.792  0.2152  0.5645 -0.6750
18368TIP3    H276520   5.184   2.638  14.929 -0.7838 -0.2384 -0.4343
18369TIP3   OH276521   4.995   0.185   3.174  0.7013 -0.3576 -0.2279
18369TIP3    H176522   4.999   0.278   3.150 -0.1782  0.0974  1.3169
18369TIP3    H276523   5.063   0.175   3.240  1.1196 -0.9332 -0.7407
18370TIP3   OH276524   3.867   1.188  16.412 -0.0160  0.4683  0.6274
18370TIP3    H176525   3.904   1.245  16.480 -0.4374  0.8701  0.5248
18370TIP3    H276526   3.773   1.205  16.416 -0.2183 -0.6942  1.0269
18371TIP3   OH276527   6.697   5.966   4.886 -0.6316  0.9355 -0.1149
18371TIP3    H176528   6.621   5.916   4.857 -0.9413  1.7007 -0.6185
18371TIP3    H276529   6.665   6.020   4.959 -0.3907  0.6991  0.1701
18372TIP3   OH276530   3.513   0.689  16.048  0.7524  0.0272  0.0730
18372TIP3    H176531   3.561   0.622  15.999  0.9246  0.3207 -0.1624
18372TIP3    H276532   3.523   0.769  15.996  1.6178  0.5314  0.9826
18373TIP3   OH276533   1.039   0.534  16.533 -0.7659 -0.0906 -0.1293
18373TIP3    H176534   0.975   0.463  16.536 -1.0991  0.2769  2.9741
18373TIP3    H276535   0.987   0.614  16.537 -0.1957  0.2138  2.4639
18374TIP3   OH276536   2.611   2.325   0.455  0.3375  0.3913 -1.1770
18374TIP3    H176537   2.658   2.343   0.537  2.4154  1.1343 -2.4869
18374TIP3    H276538   2.577   2.410   0.427  0.4866  0.3166 -1.5930
18375TIP3   OH276539   4.038   5.803   2.043  0.0593  0.1456  0.0660
18375TIP3    H176540   4.095   5.728   2.061  1.3064  1.1153  0.1414
18375TIP3    H276541   3.969   5.795   2.109  0.2078 -0.9086  0.1115
18376TIP3   OH276542   1.919   3.089  16.203 -0.1285  0.4335  0.4476
18376TIP3    H176543   1.930   3.183  16.221 -2.4032  0.8029 -0.0128
18376TIP3    H276544   1.876   3.086  16.118 -0.4985 -1.0320  0.6806
18377TIP3   OH276545   1.226   6.407  13.526 -0.5531 -0.2881 -0.2096
18377TIP3    H176546   1.195   6.489  13.487 -1.4966  0.3346  1.8224
18377TIP3    H276547   1.236   6.348  13.451  0.1231  1.6641 -1.6935
18378TIP3   OH276548   3.552   5.096  16.093  0.1827 -0.0942  0.4433
18378TIP3    H176549   3.498   5.127  16.021 -1.5427 -0.5313  1.4974
18378TIP3    H276550   3.612   5.168  16.112  0.6048  0.0439 -1.3517
18379TIP3   OH276551   0.878   0.925  15.401 -0.0552 -0.7274  0.1456
18379TIP3    H176552   0.786   0.898  15.409 -0.0475 -0.8357 -0.1257
18379TIP3    H276553   0.917   0.860  15.344  0.1328 -0.5428  0.0634
18380TIP3   OH276554   3.864   3.496  13.502 -0.2486 -0.0225  0.0283
18380TIP3    H176555   3.876   3.414  13.550  0.9014 -0.7044 -1.3649
18380TIP3    H276556   3.937   3.499  13.440 -1.1045  1.3209 -0.9706
18381TIP3   OH276557   2.281   0.483   1.298 -0.0895  0.8839 -0.8226
18381TIP3    H176558   2.366   0.506   1.259  0.1672 -0.9818 -1.4175
18381TIP3    H276559   2.265   0.552   1.362  2.1695  0.9712 -0.2838
18382TIP3   OH276560   5.544   4.944  14.702  0.1858  0.9916 -0.3946
18382TIP3    H176561   5.492   4.952  14.782  2.1943 -0.7951  1.1066
18382TIP3    H276562   5.526   4.856  14.670  0.7005  1.1008 -0.9999
18383TIP3   OH276563   3.384   2.210   2.484 -0.3509 -0.0331  0.2967
18383TIP3    H176564   3.474   2.205   2.451 -0.6385 -1.0024 -0.3601
18383TIP3    H276565   3.393   2.249   2.571  0.4226  2.5353 -0.8710
18384TIP3   OH276566   4.401   5.447  11.505 -0.6054 -0.0191 -0.0312
18384TIP3    H176567   4.489   5.476  11.479 -0.9551  1.1557  0.0897
18384TIP3    H276568   4.368   5.401  11.428  0.7038 -1.8224  0.4550
18385TIP3   OH276569   1.209   0.441   4.690  0.3169 -1.0850  0.1582
18385TIP3    H176570   1.264   0.515   4.713 -0.7672 -0.4268  0.6560
18385TIP3    H276571   1.173   0.464   4.604 -1.6392 -0.0845  1.2183
18386TIP3   OH276572   2.535   2.783  13.771  0.0361 -0.0155 -0.1246
18386TIP3    H176573   2.464   2.720  13.767 -1.2829  1.3083  1.7997
18386TIP3    H276574   2.522   2.840  13.695 -2.2712  1.5418  1.3786
18387TIP3   OH276575   2.150   1.709   2.608 -0.7052 -0.4066 -0.1930
18387TIP3    H176576   2.166   1.625   2.651  1.1133 -0.0873 -0.2065
18387TIP3    H276577   2.099   1.759   2.672 -1.6340 -1.4425 -0.1074
18388TIP3   OH276578   3.756   6.034   4.677 -0.2613  0.0532  0.0110
18388TIP3    H176579   3.840   6.032   4.632 -1.2894  0.8613 -2.0298
18388TIP3    H276580   3.748   5.949   4.718  1.8308  0.2002  0.7534
18389TIP3   OH276581   3.981   2.886  13.802  0.2569 -0.3876  0.7574
18389TIP3    H176582   4.036   2.825  13.852  0.9999 -0.4344 -0.0979
18389TIP3    H276583   3.951   2.834  13.727 -0.4528 -0.1795  0.8981
18390TIP3   OH276584   3.890   2.403   3.946  0.4359  0.1600 -0.0120
18390TIP3    H176585   3.872   2.309   3.953  2.0582 -0.1581  0.2049
18390TIP3    H276586   3.974   2.407   3.900 -0.1981  1.5508 -1.0680
18391TIP3   OH276587   1.082   6.252  11.636  0.1177 -0.0789  0.2052
18391TIP3    H176588   1.137   6.198  11.693 -0.8249  0.5934  1.7669
18391TIP3    H276589   1.027   6.302  11.696  0.3663  1.9751 -1.2616
18392TIP3   OH276590   5.373   5.941  10.935 -0.1797  0.1919  0.2454
18392TIP3    H176591   5.310   5.879  10.971  0.5313 -0.7555 -0.1347
18392TIP3    H276592   5.420   5.892  10.868 -0.2699  1.4184 -0.7450
18393TIP3   OH276593   6.725   0.138   0.951  0.2148 -0.5933 -0.1270
18393TIP3    H176594   6.704   0.075   0.882 -0.6193 -0.2458 -0.1980
18393TIP3    H276595   6.640   0.173   0.979  0.7495  1.8355 -1.3642
18394TIP3   OH276596   0.538   4.676   2.177 -0.8808  0.7045  0.2300
18394TIP3    H176597   0.632   4.679   2.160 -1.0770 -0.6155 -1.1302
18394TIP3    H276598   0.527   4.724   2.260  0.9987  0.6899  0.4966
18395TIP3   OH276599   6.741   4.493   4.056 -0.2705 -0.1209 -0.0515
18395TIP3    H176600   6.739   4.401   4.084 -0.2645 -0.2267 -0.3965
18395TIP3    H276601   6.694   4.494   3.973 -1.3537  0.4004  0.5511
18396TIP3   OH276602   2.606   3.897   2.577  0.0604 -0.0101 -0.2238
18396TIP3    H176603   2.693   3.859   2.585 -0.0552 -0.4776 -1.0890
18396TIP3    H276604   2.579   3.915   2.667  0.8538 -0.3056  0.0788
18397TIP3   OH276605   2.491   6.406   0.618  0.1185 -0.5711 -0.7562
18397TIP3    H176606   2.486   6.430   0.710 -1.0966 -4.7011  0.3471
18397TIP3    H276607   2.585   6.408   0.598  0.3558  0.7676  0.4045
18398TIP3   OH276608   0.253   3.415  16.920  0.3741 -0.3882  0.1659
18398TIP3    H176609   0.280   3.507  16.914 -3.9676  0.9584 -0.4203
18398TIP3    H276610   0.320   3.367  16.870  2.1150  2.5535 -0.4659
18399TIP3   OH276611   3.372   3.868  15.594  0.3049  0.2358 -0.0495
18399TIP3    H176612   3.452   3.861  15.646  0.9465 -2.0273 -1.2822
18399TIP3    H276613   3.394   3.932  15.526 -0.0609  2.1005  1.5203
18400TIP3   OH276614   6.300   1.336   6.949 -0.5434 -0.0206  0.0295
18400TIP3    H176615   6.272   1.428   6.956 -2.6982 -0.6442  0.0657
18400TIP3    H276616   6.360   1.324   7.023 -0.7017  1.2028  0.3677
18401TIP3   OH276617   6.641   0.364  11.765 -0.0900 -0.1672  0.5371
18401TIP3    H176618   6.682   0.355  11.679  0.0054 -1.1908  0.6904
18401TIP3    H276619   6.675   0.291  11.816 -1.0057 -0.2114  1.1014
18402TIP3   OH276620   1.191   4.803  15.347  0.4584 -0.0531 -0.3778
18402TIP3    H176621   1.233   4.871  15.399  0.7464 -1.8867  1.8509
18402TIP3    H276622   1.121   4.849  15.300  1.5313  2.0160 -0.0139
18403TIP3   OH276623   5.542   3.069   1.036  0.0280  0.0840  0.0712
18403TIP3    H176624   5.628   3.070   1.077 -0.1727  0.1518  0.4864
18403TIP3    H276625   5.555   3.115   0.953  0.5050 -0.3378 -0.0916
18404TIP3   OH276626   4.931   3.829  11.067  0.1179 -0.1134 -0.1505
18404TIP3    H176627   4.846   3.813  11.108 -0.0250  1.8013  0.3380
18404TIP3    H276628   4.923   3.916  11.029  2.0710  0.3461  0.4496
18405TIP3   OH276629   3.044   5.787  12.105  0.0118 -0.5371  0.5491
18405TIP3    H176630   3.118   5.838  12.072 -0.3812 -0.8678 -0.8467
18405TIP3    H276631   3.052   5.702  12.062 -1.0261 -0.6713  0.6194
18406TIP3   OH276632   6.775   5.608  14.942  0.4584 -0.3043  0.0377
18406TIP3    H176633   6.812   5.527  14.975  2.0001 -0.0229 -0.9328
18406TIP3    H276634   6.768   5.664  15.019 -1.5922 -1.6853  0.8951
18407TIP3   OH276635   5.523   5.226   5.372  0.0647 -0.0656 -0.1882
18407TIP3    H176636   5.594   5.162   5.366 -0.1422 -0.3130 -0.0288
18407TIP3    H276637   5.561   5.308   5.341  1.3477  0.5587  2.7988
18408TIP3   OH276638   6.734   4.022  13.940 -0.1351  0.6424 -0.2618
18408TIP3    H176639   6.710   4.114  13.946 -1.1544  0.3519  0.3490
18408TIP3    H276640   6.685   3.980  14.010  1.4138 -0.1540  0.3652
18409TIP3   OH276641   6.474   4.163   3.817 -0.0570 -0.0320 -0.6219
18409TIP3    H176642   6.517   4.077   3.821  1.2556  0.5699 -1.2302
18409TIP3    H276643   6.452   4.174   3.724  0.2120  0.4842 -0.6266
18410TIP3   OH276644   3.490   0.930  14.448  0.5332 -0.1725  0.1623
18410TIP3    H176645   3.523   0.996  14.509 -0.2399  2.0282 -1.7041
18410TIP3    H276646   3.395   0.943  14.448  0.4998 -0.3339 -1.2773
18411TIP3   OH276647   2.441   4.168   2.611 -0.6019 -0.1555 -0.2129
18411TIP3    H176648   2.479   4.086   2.642  0.5090  0.5066  0.2236
18411TIP3    H276649   2.469   4.233   2.675  0.2940  0.9461 -1.6905
18412TIP3   OH276650   3.372   4.660   2.004  0.0605 -0.7479 -0.0625
18412TIP3    H176651   3.334   4.644   1.918  1.5311 -1.4095 -0.6111
18412TIP3    H276652   3.435   4.730   1.990  0.0144 -0.5769  0.5612
18413TIP3   OH276653   2.150   4.551  14.123 -0.2122 -0.1640 -0.1734
18413TIP3    H176654   2.094   4.542  14.200 -1.2161 -0.3705 -0.9147
18413TIP3    H276655   2.098   4.513  14.052 -0.0253  1.6348 -1.2993
18414TIP3   OH276656   4.680   4.181   2.656 -0.3882 -0.6245  0.1608
18414TIP3    H176657   4.591   4.180   2.621 -1.0307 -1.9554  1.7775
18414TIP3    H276658   4.734   4.145   2.585 -1.3894 -1.4393 -0.2004
18415TIP3   OH276659   1.278   5.463  16.079  0.1399  0.2910  0.3322
18415TIP3    H176660   1.245   5.514  16.153 -0.6524  1.5486 -0.8697
18415TIP3    H276661   1.353   5.513  16.047  1.5000 -1.0907  1.2691
18416TIP3   OH276662   3.988   5.507   4.904 -0.2322  0.6615  0.0336
18416TIP3    H176663   3.982   5.586   4.957  1.5681  0.2188  0.9167
18416TIP3    H276664   4.054   5.527   4.838  0.6099 -0.2726  0.5783
18417TIP3   OH276665   0.765   4.844   1.831  0.0629 -0.2326  0.2722
18417TIP3    H176666   0.761   4.935   1.860  1.3833  0.3817 -1.3792
18417TIP3    H276667   0.803   4.797   1.906  0.0955  0.6986  0.8538
18418TIP3   OH276668   6.283   4.337   4.167  0.0402  0.0704 -0.1888
18418TIP3    H176669   6.357   4.348   4.226  0.5477 -0.8556 -0.6497
18418TIP3    H276670   6.214   4.298   4.222  0.3087 -0.2263 -0.0600
18419TIP3   OH276671   6.408   1.289  14.094  0.3047 -0.0873  0.1584
18419TIP3    H176672   6.349   1.338  14.151  0.4666  1.7388 -1.1868
18419TIP3    H276673   6.494   1.328  14.110  0.3391  0.5018 -1.3634
18420TIP3   OH276674   4.954   5.766  10.352  0.1036 -0.5213  0.5123
18420TIP3    H176675   4.897   5.778  10.277  1.2514 -1.7506 -0.6019
18420TIP3    H276676   4.961   5.852  10.392 -0.7371  0.0886 -0.6420
18421TIP3   OH276677   6.102   0.137  13.527 -0.4748 -0.1532 -0.0528
18421TIP3    H176678   6.026   0.182  13.565 -0.2650 -0.7101  1.0343
18421TIP3    H276679   6.176   0.163  13.582 -0.1093 -0.6871 -0.2877
18422TIP3   OH276680   0.545   1.867  13.884 -0.0576  0.5937  0.8236
18422TIP3    H176681   0.628   1.864  13.836 -1.1456 -0.1136 -1.0639
18422TIP3    H276682   0.527   1.960  13.896  0.8597  0.7512  0.9646
18423TIP3   OH276683   6.695   0.063  13.829 -0.2870 -0.1591 -0.5273
18423TIP3    H176684   6.782   0.052  13.791  0.3266 -0.6996  1.0085
18423TIP3    H276685   6.709   0.114  13.909 -1.6340  1.4604 -1.2716
18424TIP3   OH276686   1.888   1.950  15.130 -0.5849  0.4205  0.3778
18424TIP3    H176687   1.875   1.885  15.198  0.8733 -1.5392 -1.1551
18424TIP3    H276688   1.876   1.902  15.048  2.1908  1.6416 -0.8135
18425TIP3   OH276689   0.240   6.537  11.931  0.0756  0.0764  0.0102
18425TIP3    H176690   0.238   6.532  11.835 -2.3218 -2.1931  0.1166
18425TIP3    H276691   0.206   6.624  11.952  0.6065  0.5786 -1.2124
18426TIP3   OH276692   0.326   3.408   0.633  0.6738  0.7853 -0.1286
18426TIP3    H176693   0.257   3.349   0.662  1.1752  0.2655  0.0283
18426TIP3    H276694   0.359   3.448   0.714 -0.4465  2.1669 -0.3413
18427TIP3   OH276695   3.731   3.834   2.792  0.1329 -0.2838  0.1533
18427TIP3    H176696   3.636   3.850   2.796  0.2174  0.2679 -0.0285
18427TIP3    H276697   3.764   3.901   2.732  0.6866 -0.2674  0.4776
18428TIP3   OH276698   5.535   6.462   0.875  0.1615 -0.6539 -0.7887
18428TIP3    H176699   5.599   6.519   0.917 -0.6105  0.5329 -1.1896
18428TIP3    H276700   5.540   6.380   0.923  1.3911 -0.2950 -0.2957
18429TIP3   OH276701   3.093   2.084   5.053 -0.5959 -0.2977  0.0380
18429TIP3    H176702   3.041   2.051   5.127 -1.2503 -0.0780 -0.3217
18429TIP3    H276703   3.045   2.160   5.022  0.6122  0.6706  0.4950
18430TIP3   OH276704   5.465   6.483  15.136 -0.7490  0.9047 -0.3475
18430TIP3    H176705   5.556   6.478  15.163 -0.5530 -2.3550 -1.4380
18430TIP3    H276706   5.417   6.434  15.203 -1.6145  1.8304 -0.2661
18431TIP3   OH276707   5.788   4.251   4.346  0.0214 -0.0466  0.9225
18431TIP3    H176708   5.768   4.160   4.368 -0.3818 -0.0852  0.4063
18431TIP3    H276709   5.717   4.302   4.383 -0.5016 -0.0833 -0.0115
18432TIP3   OH276710   5.398   1.678   3.888 -0.1957 -0.1968  0.0026
18432TIP3    H176711   5.392   1.741   3.960 -0.5308 -0.6340  0.3610
18432TIP3    H276712   5.444   1.726   3.819 -0.0498  0.2942  0.4297
18433TIP3   OH276713   4.804   2.968  11.037 -0.2038 -0.0461 -0.3526
18433TIP3    H176714   4.730   2.909  11.049 -1.2798  1.0913 -1.1956
18433TIP3    H276715   4.840   2.945  10.952  0.5490 -0.7334  0.1455
18434TIP3   OH276716   5.623   4.347   0.071 -0.3414  0.3226 -0.5593
18434TIP3    H176717   5.570   4.386   0.002 -1.7522 -0.3451  0.1106
18434TIP3    H276718   5.653   4.422   0.124 -2.1534  0.6044  0.1110
18435TIP3   OH276719   6.196   6.640   1.626 -0.0112  0.2575 -0.3252
18435TIP3    H176720   6.114   6.601   1.596 -0.6524  0.5769  0.9661
18435TIP3    H276721   6.191   6.636   1.721  2.3178 -1.4354 -0.2238
18436TIP3   OH276722   4.234   1.551  16.858  0.3971 -0.9131 -0.7104
18436TIP3    H176723   4.168   1.573  16.791 -0.0238  0.1906  0.0459
18436TIP3    H276724   4.318   1.569  16.815  0.1372 -0.5708 -1.0848
18437TIP3   OH276725   0.228   4.424  16.771  0.0344  0.3827  0.2154
18437TIP3    H176726   0.280   4.449  16.848 -0.2120  0.7149  0.2711
18437TIP3    H276727   0.245   4.493  16.707 -0.7122  0.7383  0.4001
18438TIP3   OH276728   1.619   0.154   0.034 -0.8218  0.7513  0.3820
18438TIP3    H176729   1.574   0.223  -0.015 -0.7328  0.4196 -0.1701
18438TIP3    H276730   1.549   0.095   0.061 -0.7609  0.4371 -0.1487
18439TIP3   OH276731   3.820   4.426   2.056  0.1691 -0.7724  0.5381
18439TIP3    H176732   3.897   4.474   2.086 -0.5382 -0.0260  1.1800
18439TIP3    H276733   3.767   4.412   2.135 -1.7822  1.3343 -0.3276
18440TIP3   OH276734   0.339   1.769   3.672 -0.2969  0.0668 -0.5015
18440TIP3    H176735   0.295   1.815   3.601 -1.2919 -0.1933 -0.0652
18440TIP3    H276736   0.367   1.838   3.732 -3.0785  0.0576  0.8889
18441TIP3   OH276737   2.153   4.888  14.637 -0.0523 -0.3669  0.1593
18441TIP3    H176738   2.164   4.937  14.555  0.6819  0.5932  0.8036
18441TIP3    H276739   2.110   4.950  14.696  0.4294 -0.6691  0.8373
18442TIP3   OH276740   2.890   2.718   6.219 -0.4765  0.8009 -0.0486
18442TIP3    H176741   2.855   2.669   6.144  0.2787  1.4292 -0.8052
18442TIP3    H276742   2.822   2.707   6.287 -1.1581  0.2241 -0.8020
18443TIP3   OH276743   4.795   1.125   4.694  0.1646 -0.5934  0.0349
18443TIP3    H176744   4.723   1.133   4.757 -0.7365  0.0146 -1.0635
18443TIP3    H276745   4.803   1.031   4.679 -0.1374 -0.6916  0.4763
18444TIP3   OH276746   5.642   0.821  16.793  0.1011 -0.0779 -0.4717
18444TIP3    H176747   5.554   0.854  16.774  0.3405  0.6783 -0.2742
18444TIP3    H276748   5.678   0.884  16.855 -0.3275 -2.0143  1.8002
18445TIP3   OH276749   1.254   1.234   4.822 -0.4934  0.0287 -0.4982
18445TIP3    H176750   1.249   1.279   4.906  0.6944  0.7456 -0.8024
18445TIP3    H276751   1.164   1.208   4.803 -0.9018  0.6696  0.5556
18446TIP3   OH276752   4.936   2.859  13.676  0.9760  0.0301  0.3449
18446TIP3    H176753   4.955   2.804  13.600 -0.6580 -0.2841  0.1382
18446TIP3    H276754   4.893   2.800  13.738 -0.6440  1.0207  0.1913
18447TIP3   OH276755   2.515   5.147  10.419  0.4598 -0.1334  0.1483
18447TIP3    H176756   2.574   5.077  10.450  0.2911  0.0605  0.9211
18447TIP3    H276757   2.445   5.149  10.484  0.5436  0.8605  0.2097
18448TIP3   OH276758   1.728   0.358  12.174 -0.2434  0.0383 -0.3474
18448TIP3    H176759   1.766   0.375  12.260 -1.3886  0.1846  0.1400
18448TIP3    H276760   1.753   0.434  12.121 -0.9550  0.7623  0.3406
18449TIP3   OH276761   0.983   0.906   5.076  0.2480 -0.2064 -0.3920
18449TIP3    H176762   1.075   0.930   5.082  0.3338 -0.4883 -0.5548
18449TIP3    H276763   0.981   0.836   5.010  0.0807 -1.0560  0.4991
18450TIP3   OH276764   1.547   3.182  17.195  0.0697  0.3823 -0.6375
18450TIP3    H176765   1.576   3.245  17.261 -0.8758  0.4991 -0.3306
18450TIP3    H276766   1.458   3.208  17.173 -0.0310 -0.3414 -1.1265
18451TIP3   OH276767   2.831   1.131  14.606  0.1447  0.5421 -0.2934
18451TIP3    H176768   2.926   1.140  14.596  0.7132 -2.5241  1.8581
18451TIP3    H276769   2.805   1.072  14.534  0.3150 -0.7945  0.7225
18452TIP3   OH276770   4.336   1.766   4.686  0.0154  0.1412  0.5299
18452TIP3    H176771   4.425   1.743   4.660  0.8984 -0.2245  3.6577
18452TIP3    H276772   4.335   1.862   4.686  0.1044  0.1428 -0.4424
18453TIP3   OH276773   5.728   4.578  13.896 -0.1126  0.4198 -0.7801
18453TIP3    H176774   5.654   4.589  13.837 -0.4440  4.5874  0.2574
18453TIP3    H276775   5.778   4.660  13.888  1.6674 -0.2879  2.2079
18454TIP3   OH276776   4.638   3.339  16.513 -0.0941  0.0922  0.1478
18454TIP3    H176777   4.714   3.379  16.470 -0.1739 -1.5850 -1.6056
18454TIP3    H276778   4.640   3.374  16.602  1.3125  1.9835 -0.5847
18455TIP3   OH276779   0.322   5.193  14.350 -0.9236 -0.2650 -0.2627
18455TIP3    H176780   0.410   5.231  14.357 -1.1560  0.1605  0.4026
18455TIP3    H276781   0.329   5.130  14.278 -0.4051  0.6889 -1.0586
18456TIP3   OH276782   3.462   3.482  11.389  1.0395  0.3269  0.1524
18456TIP3    H176783   3.509   3.420  11.333 -1.2788  0.6226 -2.1784
18456TIP3    H276784   3.382   3.437  11.414  0.6683  1.3273  0.8201
18457TIP3   OH276785   4.569   6.506   4.271 -0.5447  0.4236 -0.2598
18457TIP3    H176786   4.565   6.485   4.178  2.7054 -0.1568 -0.3000
18457TIP3    H276787   4.491   6.464   4.308 -0.7410 -1.1142 -2.3412
18458TIP3   OH276788   0.554   1.285  12.966  0.2143 -0.3429 -0.1077
18458TIP3    H176789   0.482   1.290  13.029 -0.4523 -2.0436 -0.6984
18458TIP3    H276790   0.577   1.192  12.962  1.3875 -0.0356 -1.1070
18459TIP3   OH276791   6.406   1.576   4.904  0.2282 -0.7935  0.6017
18459TIP3    H176792   6.451   1.608   4.983 -0.3908 -0.0600  0.6650
18459TIP3    H276793   6.477   1.553   4.844  0.7042  0.4085  0.6793
18460TIP3   OH276794   0.093   3.377  14.592 -0.3096 -0.4273  0.3450
18460TIP3    H176795   0.133   3.308  14.644 -0.2911 -0.5296  0.1925
18460TIP3    H276796   0.159   3.399  14.526 -0.6447 -0.8493 -0.1348
18461TIP3   OH276797   4.856   1.978  15.401 -0.0643 -0.1922 -0.2820
18461TIP3    H176798   4.810   1.903  15.440 -0.5627  0.1910 -0.1294
18461TIP3    H276799   4.862   1.957  15.308  0.2874 -0.6731 -0.1557
18462TIP3   OH276800   0.562   4.813  11.342 -0.0679 -0.2642  0.7546
18462TIP3    H176801   0.617   4.890  11.355  0.2338  0.1275 -2.5549
18462TIP3    H276802   0.476   4.848  11.320  0.9353 -0.7463 -4.3854
18463TIP3   OH276803   5.605   5.742  14.670  0.4906  0.4625 -0.4857
18463TIP3    H176804   5.674   5.708  14.727 -0.0316  0.3417  0.0784
18463TIP3    H276805   5.629   5.833  14.654  0.9090  0.3516 -0.4921
18464TIP3   OH276806   2.929   6.774   5.180 -0.9218  0.1982  0.2173
18464TIP3    H176807   2.933   6.862   5.217  0.4926 -0.5079  1.7773
18464TIP3    H276808   2.934   6.788   5.086  0.1808  1.7539  0.4799
18465TIP3   OH276809   6.766   1.029  17.093  0.0693 -0.1208 -0.5740
18465TIP3    H176810   6.845   1.002  17.140 -0.3791  0.3740  0.4952
18465TIP3    H276811   6.697   0.971  17.126 -0.0603 -0.3977 -1.3308
18466TIP3   OH276812   3.725   3.841   3.463  0.8168 -0.3276  0.5856
18466TIP3    H176813   3.651   3.835   3.524 -0.1470  1.3529 -0.3810
18466TIP3    H276814   3.789   3.896   3.509 -1.4722  4.1651 -1.3534
18467TIP3   OH276815   1.544   5.701  15.311 -0.4327  0.2277 -0.0338
18467TIP3    H176816   1.634   5.732  15.316 -0.6050  0.6761  0.3072
18467TIP3    H276817   1.551   5.613  15.274  0.2635 -0.2904  1.2935
18468TIP3   OH276818   3.774   4.090  14.353 -0.2697 -0.1858  0.7139
18468TIP3    H176819   3.779   4.172  14.305 -1.2041  0.2801  1.3895
18468TIP3    H276820   3.764   4.116  14.445  0.4684 -1.0592  1.0578
18469TIP3   OH276821   6.695   1.707   0.638 -0.0114 -0.3116 -0.0644
18469TIP3    H176822   6.650   1.768   0.696  2.8748 -0.7495  2.7855
18469TIP3    H276823   6.661   1.621   0.662 -1.2192 -0.2052 -1.3539
18470TIP3   OH276824   0.412   3.839   5.167 -0.3958 -0.0909  0.1505
18470TIP3    H176825   0.375   3.751   5.162 -0.3429 -0.0962 -0.1205
18470TIP3    H276826   0.444   3.846   5.257  2.0407 -1.3401 -0.5632
18471TIP3   OH276827   6.156   0.428  12.728 -0.3395 -0.7660 -0.1642
18471TIP3    H176828   6.099   0.446  12.803 -0.5233 -1.0611 -0.2332
18471TIP3    H276829   6.244   0.420  12.765 -0.2170  0.5351 -0.1580
18472TIP3   OH276830   1.567   0.744  13.185 -0.9155  0.4227  0.3421
18472TIP3    H176831   1.488   0.697  13.210 -0.1201 -0.1436  1.8440
18472TIP3    H276832   1.581   0.807  13.256  0.0205  0.4562  0.1355
18473TIP3   OH276833   6.583   6.739  14.821  0.5080  0.7991  0.2963
18473TIP3    H176834   6.601   6.645  14.816 -1.2328  0.3435  2.0604
18473TIP3    H276835   6.638   6.770  14.893 -0.0552  0.8447  0.7067
18474TIP3   OH276836   1.099   6.020   5.647 -0.2088  0.2066  0.1971
18474TIP3    H176837   1.119   6.110   5.622 -2.1037  0.7833  0.6827
18474TIP3    H276838   1.107   6.018   5.742  0.0290 -0.1843  0.1694
18475TIP3   OH276839   0.356   3.109  12.646  0.3173 -0.3014  0.5815
18475TIP3    H176840   0.431   3.048  12.652  0.0844 -0.6989 -0.4618
18475TIP3    H276841   0.327   3.120  12.737  0.7428 -1.2810  0.8450
18476TIP3   OH276842   2.845   1.125  11.171  0.1728  0.4730  0.0651
18476TIP3    H176843   2.884   1.167  11.247 -1.4804 -0.6088  1.5422
18476TIP3    H276844   2.767   1.177  11.152 -2.1904 -2.1241  2.2400
18477TIP3   OH276845   3.367   5.192   2.012 -0.1531 -0.4417  0.3330
18477TIP3    H176846   3.273   5.174   2.016 -0.2125  0.0054  1.2078
18477TIP3    H276847   3.402   5.151   2.091 -0.2090  2.7335  2.1062
18478TIP3   OH276848   6.663   4.326   4.846  0.3574 -0.3467 -0.5584
18478TIP3    H176849   6.651   4.242   4.800  2.0607 -1.4882  0.9992
18478TIP3    H276850   6.758   4.336   4.853  0.1570  1.2360  0.1543
18479TIP3   OH276851   0.626   5.528   5.256 -0.3376 -0.1296  0.1014
18479TIP3    H176852   0.531   5.524   5.259 -0.3064 -2.3825 -0.6711
18479TIP3    H276853   0.651   5.460   5.192  1.7287  1.0538 -0.4038
18480TIP3   OH276854   2.644   1.996  15.826  0.2721 -0.0091  0.1177
18480TIP3    H176855   2.656   1.911  15.868  1.1452 -0.3983 -0.8834
18480TIP3    H276856   2.565   2.032  15.865 -0.7352 -1.7815 -0.2456
18481TIP3   OH276857   3.930   0.818  13.132  0.9715  0.3279 -0.5969
18481TIP3    H176858   3.963   0.881  13.197 -2.9750  4.8807 -2.7491
18481TIP3    H276859   3.983   0.834  13.054  1.3510 -0.5248 -0.5176
18482TIP3   OH276860   1.489   2.068   0.036 -0.0924 -0.0243  0.9390
18482TIP3    H176861   1.419   2.011   0.005 -0.2081  1.1371 -1.0298
18482TIP3    H276862   1.543   2.012   0.092 -0.9017 -1.7209  0.0567
18483TIP3   OH276863   4.487   1.574   0.198 -0.2013 -0.3271 -0.1554
18483TIP3    H176864   4.558   1.630   0.166 -0.3201 -0.1834 -0.1647
18483TIP3    H276865   4.409   1.629   0.193 -0.3655 -0.5864 -0.4365
18484TIP3   OH276866   2.137   2.783   1.705  0.0907 -0.2754  0.0658
18484TIP3    H176867   2.207   2.797   1.769  0.0583  1.3863 -0.2204
18484TIP3    H276868   2.154   2.849   1.637 -0.9398 -0.7956 -0.7121
18485TIP3   OH276869   4.006   3.265  12.734 -0.6606 -0.6931  0.7324
18485TIP3    H176870   3.914   3.263  12.707 -0.7586  0.5546  0.9378
18485TIP3    H276871   4.045   3.335  12.681 -0.0678 -0.5384  1.3721
18486TIP3   OH276872   4.213   2.821  16.299  0.6137  0.4279 -0.0336
18486TIP3    H176873   4.194   2.878  16.225  0.5846 -1.0836 -1.2146
18486TIP3    H276874   4.308   2.807  16.294  0.1355 -2.6305 -2.0333
18487TIP3   OH276875   5.458   6.394   6.016  0.4602  0.4728 -0.2154
18487TIP3    H176876   5.454   6.324   6.081 -0.7724 -1.5978 -2.4192
18487TIP3    H276877   5.551   6.408   6.002  0.7403 -1.2510 -0.2291
18488TIP3   OH276878   4.829   6.172  13.199  0.2538 -0.6062 -0.9957
18488TIP3    H176879   4.801   6.096  13.250  0.2265  0.5588  0.7927
18488TIP3    H276880   4.923   6.161  13.189  0.5430  0.0040  0.8331
18489TIP3   OH276881   5.195   2.591   3.616  0.1869  0.4552  0.1727
18489TIP3    H176882   5.252   2.629   3.683  0.6814  0.1004 -0.0376
18489TIP3    H276883   5.114   2.570   3.662  0.4758  0.3406  0.6327
18490TIP3   OH276884   2.193   4.860   5.808  0.1292 -0.0423 -0.2548
18490TIP3    H176885   2.267   4.909   5.772 -1.0871  1.6490 -0.5348
18490TIP3    H276886   2.185   4.891   5.898 -0.9872  0.6844 -0.5976
18491TIP3   OH276887   3.735   4.829  13.286 -0.4968  0.2762  0.3535
18491TIP3    H176888   3.809   4.883  13.314  0.4847 -0.5234 -0.6735
18491TIP3    H276889   3.771   4.772  13.218 -2.5463  1.2901 -1.6150
18492TIP3   OH276890   1.031   3.369  14.691  0.3324 -0.1441 -0.5587
18492TIP3    H176891   1.120   3.363  14.726 -0.8320 -2.5117  2.1859
18492TIP3    H276892   0.997   3.452  14.725  0.3021 -0.9329  1.3943
18493TIP3   OH276893   2.659   0.023   6.140 -0.1892  0.0861 -0.1349
18493TIP3    H176894   2.599  -0.011   6.073 -0.1997  0.0694 -0.1169
18493TIP3    H276895   2.722  -0.048   6.153 -0.6176 -0.1919  0.4085
18494TIP3   OH276896   1.868   6.456  15.987 -0.0096 -0.6728  0.4465
18494TIP3    H176897   1.806   6.463  15.914  0.2795  0.7186  0.3253
18494TIP3    H276898   1.951   6.433  15.946  0.1530  0.1108  0.3298
18495TIP3   OH276899   2.307   0.412  13.728  0.1728 -0.0177  0.1615
18495TIP3    H176900   2.303   0.322  13.695  3.1552 -0.0306 -0.3337
18495TIP3    H276901   2.260   0.463  13.663 -3.0370 -1.3964  1.2990
18496TIP3   OH276902   2.869   4.370   3.256  0.6395  0.2172  0.1553
18496TIP3    H176903   2.901   4.322   3.333  0.8016 -0.3732 -0.2804
18496TIP3    H276904   2.931   4.349   3.187  0.4090  0.6379 -0.1807
18497TIP3   OH276905   4.933   5.733  14.541 -0.7038 -0.0551 -0.4789
18497TIP3    H176906   4.919   5.814  14.591  0.8598  0.8162 -1.3899
18497TIP3    H276907   4.886   5.666  14.590 -0.1080  0.9711  1.5682
18498TIP3   OH276908   2.988   6.313   2.359 -0.2326  0.3814  0.0210
18498TIP3    H176909   2.937   6.393   2.372  1.8318  1.7869 -0.2310
18498TIP3    H276910   3.028   6.296   2.444 -0.4921 -0.2800  0.0150
18499TIP3   OH276911   1.245   4.496   5.121  1.0287 -0.0974  0.4635
18499TIP3    H176912   1.207   4.506   5.033  1.6827  0.0980  0.1997
18499TIP3    H276913   1.176   4.454   5.172  0.3004  0.6378  0.0997
18500TIP3   OH276914   1.972   2.515   1.407 -0.1891 -0.3735 -0.0754
18500TIP3    H176915   1.953   2.600   1.448  0.1234  0.1934 -1.0900
18500TIP3    H276916   1.887   2.483   1.377 -0.2040 -0.0677 -0.3628
18501TIP3   OH276917   3.961   2.687  13.560  0.3770  0.1262 -0.1578
18501TIP3    H176918   3.879   2.682  13.511 -0.1672  0.8043  0.6633
18501TIP3    H276919   3.997   2.598  13.556  0.4025  0.1954 -1.8603
18502TIP3   OH276920   5.681   0.319   3.556 -0.6119  0.0131 -0.2316
18502TIP3    H176921   5.646   0.235   3.525 -0.8405 -0.2565  0.7329
18502TIP3    H276922   5.605   0.377   3.557 -0.4202  0.2879 -1.0638
18503TIP3   OH276923   6.686   6.757  14.567  0.2687  0.7035  0.1435
18503TIP3    H176924   6.778   6.735  14.556  0.1615  0.4892 -0.3284
18503TIP3    H276925   6.679   6.786  14.658  1.0895  2.2367 -0.2708
18504TIP3   OH276926   0.529   3.132   5.427  0.1057 -0.6634 -0.2167
18504TIP3    H176927   0.471   3.200   5.463  2.1981  1.3667 -0.5593
18504TIP3    H276928   0.569   3.091   5.504  0.1657 -0.3117 -0.0618
18505TIP3   OH276929   1.321   6.102   3.535  0.9219  0.0448 -0.4070
18505TIP3    H176930   1.232   6.075   3.513  1.0744  0.0671 -1.0624
18505TIP3    H276931   1.342   6.169   3.470  1.7428 -0.5913 -0.8027
18506TIP3   OH276932   2.358   1.466   3.692 -0.1800 -0.2517 -0.5526
18506TIP3    H176933   2.337   1.524   3.619  2.0163  0.5648 -0.5770
18506TIP3    H276934   2.342   1.519   3.770  0.5351 -0.0335 -0.5446
18507TIP3   OH276935   1.218   5.417  12.805  0.1347 -0.2798  0.3343
18507TIP3    H176936   1.181   5.447  12.722 -1.3112 -2.3428  0.2152
18507TIP3    H276937   1.207   5.492  12.864 -1.6173  0.1385 -0.4925
18508TIP3   OH276938   2.549   3.373  14.530  0.5429 -0.4307  0.5318
18508TIP3    H176939   2.533   3.377  14.436  0.7451 -1.4750  0.4543
18508TIP3    H276940   2.612   3.443  14.547 -1.4286  1.4638  0.3006
18509TIP3   OH276941   6.059   3.521   6.301 -0.2214  0.7235 -0.2489
18509TIP3    H176942   6.022   3.440   6.266 -0.9072  1.2067 -0.6568
18509TIP3    H276943   6.012   3.537   6.382 -0.5768  1.0795 -0.5216
18510TIP3   OH276944   0.677   0.118  12.524  0.0815  0.3347 -0.0544
18510TIP3    H176945   0.715   0.030  12.520  1.6656  0.8118  3.0524
18510TIP3    H276946   0.620   0.123  12.447  1.0801 -2.8668 -1.0853
18511TIP3   OH276947   6.435   2.875   2.251 -0.5254  0.3477 -0.0879
18511TIP3    H176948   6.366   2.875   2.184 -0.9315 -1.0264  0.3061
18511TIP3    H276949   6.455   2.782   2.264  0.6142  0.6845  0.6140
18512TIP3   OH276950   4.791   0.157   1.430 -0.4111 -0.4235  0.4405
18512TIP3    H176951   4.806   0.125   1.518  1.8911 -1.0403 -0.1527
18512TIP3    H276952   4.822   0.248   1.432 -0.1402 -0.5096  0.2113
18513TIP3   OH276953   2.531   0.462  15.156  0.0736 -0.0901 -0.0125
18513TIP3    H176954   2.546   0.376  15.116 -0.7066 -1.7541  3.1244
18513TIP3    H276955   2.610   0.512  15.136  0.4240 -1.4083 -2.1183
18514TIP3   OH276956   3.666   2.509  12.238 -0.0710  0.2738  0.3182
18514TIP3    H176957   3.603   2.476  12.302 -1.6708  0.2022 -1.2564
18514TIP3    H276958   3.674   2.602  12.257 -2.5495  0.7855 -0.9991
18515TIP3   OH276959   4.954   3.240   3.489  0.1351  0.0142 -0.2556
18515TIP3    H176960   4.963   3.152   3.525  1.9716 -0.1356 -1.0705
18515TIP3    H276961   4.982   3.298   3.560 -0.1863 -0.0999 -0.0362
18516TIP3   OH276962   1.286   1.820  15.229  0.2393 -0.2719  0.5181
18516TIP3    H176963   1.341   1.864  15.164  0.8423  0.2661  1.3965
18516TIP3    H276964   1.339   1.746  15.259 -1.1696 -2.2634 -1.7158
18517TIP3   OH276965   1.733   3.866  13.054  0.3513  0.2215  0.2461
18517TIP3    H176966   1.700   3.778  13.038  0.7909  0.0983 -0.0064
18517TIP3    H276967   1.810   3.853  13.111  0.6873  0.4014 -0.1620
18518TIP3   OH276968   6.626   2.048   1.832  0.1772 -0.6359 -0.1636
18518TIP3    H176969   6.640   1.953   1.830 -0.5837 -0.7440 -0.6260
18518TIP3    H276970   6.711   2.084   1.854  0.1134 -1.5095  1.5708
18519TIP3   OH276971   1.867   0.025   0.510  0.2799  0.0512  0.2645
18519TIP3    H176972   1.808   0.006   0.437 -1.3626  1.5231  1.1667
18519TIP3    H276973   1.813   0.010   0.588  0.8965  2.0506  1.0911
18520TIP3   OH276974   4.190   1.935  16.263 -0.4995 -0.5621 -0.3855
18520TIP3    H176975   4.153   2.017  16.233 -1.7231 -1.6257 -1.8058
18520TIP3    H276976   4.144   1.867  16.214  1.5598 -2.0380 -0.3669
18521TIP3   OH276977   5.342   2.041   1.825  0.2899 -0.0955 -0.6214
18521TIP3    H176978   5.380   1.963   1.786 -0.0853 -0.7816  0.3581
18521TIP3    H276979   5.248   2.023   1.828  0.2912  0.0255  0.3918
18522TIP3   OH276980   6.277   4.894  10.901 -0.2170  0.6300 -0.1426
18522TIP3    H176981   6.185   4.876  10.922  0.1660 -0.9662  0.1670
18522TIP3    H276982   6.302   4.964  10.962 -0.9230  0.3528  0.4723
18523TIP3   OH276983   1.389   6.329  15.578  0.2238  0.3899  0.1072
18523TIP3    H176984   1.459   6.365  15.524 -1.0316  1.4321 -0.8487
18523TIP3    H276985   1.398   6.374  15.662  0.2695  1.0405 -0.2424
18524TIP3   OH276986   1.769   4.903   0.784  0.4822  0.7650  0.1016
18524TIP3    H176987   1.848   4.918   0.836  0.6569 -2.4326  0.8225
18524TIP3    H276988   1.770   4.810   0.763 -2.3875  0.9256 -1.0759
18525TIP3   OH276989   2.127   4.758   2.836 -0.3106 -0.4614  0.0335
18525TIP3    H176990   2.040   4.785   2.865  0.6927  1.1219  1.6218
18525TIP3    H276991   2.184   4.832   2.856  1.8876 -2.4575  1.4454
18526TIP3   OH276992   1.981   1.320   3.528  0.4806 -0.1904  0.6537
18526TIP3    H176993   2.045   1.374   3.482  1.0721 -0.1180  1.5514
18526TIP3    H276994   2.027   1.238   3.544  0.0346 -0.4731  0.4861
18527TIP3   OH276995   3.216   1.941  12.133 -0.4909 -1.1203 -0.0498
18527TIP3    H176996   3.243   1.850  12.124  1.1414 -0.5645 -0.9243
18527TIP3    H276997   3.171   1.961  12.050  0.1641 -0.7993 -0.3313
18528TIP3   OH276998   5.979   4.464  14.691  0.2602  0.1914 -0.2715
18528TIP3    H176999   5.897   4.478  14.644  1.3145  1.2128 -1.8369
18528TIP3    H277000   5.999   4.372  14.678 -1.3969 -0.4490  1.4106
18529TIP3   OH277001   2.145   1.433   3.040 -0.3133 -0.1045  0.0267
18529TIP3    H177002   2.177   1.357   3.088  1.7122  1.3943  1.1453
18529TIP3    H277003   2.062   1.455   3.082 -0.6709 -1.3645  0.0145
18530TIP3   OH277004   1.774   4.171  11.862 -0.0734  0.2253  0.0035
18530TIP3    H177005   1.760   4.266  11.867  0.1228  0.2504  0.1000
18530TIP3    H277006   1.863   4.159  11.894  0.6513  0.2190 -1.9321
18531TIP3   OH277007   0.558   0.166  14.587  0.0022  0.3701 -0.2014
18531TIP3    H177008   0.523   0.102  14.649 -1.8883  0.9158 -0.6641
18531TIP3    H277009   0.527   0.250  14.619  0.4869  0.8257 -0.9065
18532TIP3   OH277010   4.764   0.329  13.102 -0.5883 -0.0814  0.0203
18532TIP3    H177011   4.824   0.317  13.028 -1.2107 -0.9057 -0.3627
18532TIP3    H277012   4.737   0.420  13.097 -0.0784  0.0493 -0.3565
18533TIP3   OH277013   2.234   5.519  12.237 -0.3570  0.1510  0.3375
18533TIP3    H177014   2.163   5.519  12.302 -1.1859 -2.0074 -0.5056
18533TIP3    H277015   2.200   5.466  12.165  0.7585  2.0625 -1.6478
18534TIP3   OH277016   4.408   0.773   3.714 -0.0542 -0.0401 -0.0317
18534TIP3    H177017   4.453   0.713   3.774  1.6525  2.3285  1.1402
18534TIP3    H277018   4.340   0.814   3.768 -0.7143 -0.3495 -0.6249
18535TIP3   OH277019   0.946   2.086   2.013  0.4687 -0.4952 -0.1313
18535TIP3    H177020   0.854   2.060   2.023  1.1383 -2.9153  0.0340
18535TIP3    H277021   0.993   2.032   2.076  2.1591 -0.1471 -1.0612
18536TIP3   OH277022   4.021   6.281  12.958 -0.7315  0.3377 -0.6804
18536TIP3    H177023   3.954   6.223  12.996  2.6630 -2.7412  0.9051
18536TIP3    H277024   4.066   6.318  13.034  1.7264 -0.5535 -1.6553
18537TIP3   OH277025   4.903   0.013   4.686  0.3564 -0.3116 -0.4687
18537TIP3    H177026   4.838  -0.019   4.748  1.0362 -3.1592 -1.1479
18537TIP3    H277027   4.987  -0.007   4.727  0.8584 -4.6115 -3.3264
18538TIP3   OH277028   0.134   6.087   1.821  0.0078  0.0294 -0.4722
18538TIP3    H177029   0.147   6.163   1.879 -1.4459 -1.2839  1.6898
18538TIP3    H277030   0.049   6.103   1.780 -0.7543 -0.8156  0.7125
18539TIP3   OH277031   6.676   2.187   4.964  0.5014 -0.4024  0.2157
18539TIP3    H177032   6.588   2.169   4.930  0.3897 -0.9848  0.8044
18539TIP3    H277033   6.735   2.161   4.892  0.2628 -1.5468  0.4245
18540TIP3   OH277034   3.270   4.871  10.867  0.8518  0.6238 -0.0221
18540TIP3    H177035   3.242   4.837  10.952 -1.5167 -1.5316 -1.5914
18540TIP3    H277036   3.222   4.954  10.858 -0.6581 -0.2599 -0.2191
18541TIP3   OH277037   6.108   2.864   3.437  0.3676 -0.2122 -0.0653
18541TIP3    H177038   6.065   2.949   3.448 -1.0607 -0.7489 -1.4453
18541TIP3    H277039   6.065   2.824   3.362  0.9143 -2.2455  0.6676
18542TIP3   OH277040   2.341   4.568   4.460 -0.1208 -0.2966 -0.2663
18542TIP3    H177041   2.424   4.521   4.449 -1.6491 -3.0122 -0.8187
18542TIP3    H277042   2.300   4.565   4.374 -0.6711  1.3111 -0.0809
18543TIP3   OH277043   2.420   0.455   4.320 -0.0013 -0.3527  0.0494
18543TIP3    H177044   2.411   0.550   4.323 -2.4881 -0.5753  0.8377
18543TIP3    H277045   2.397   0.426   4.408  0.4044 -1.7006 -0.2759
18544TIP3   OH277046   5.447   2.620   1.973  0.2777 -0.0783  0.6573
18544TIP3    H177047   5.524   2.595   2.025  1.5096  0.6317 -0.7996
18544TIP3    H277048   5.460   2.578   1.888 -0.0795  1.4874 -0.1819
18545TIP3   OH277049   0.423   0.909   5.711 -0.7206  0.2177 -0.0816
18545TIP3    H177050   0.491   0.932   5.647  0.3338 -2.1925  0.1073
18545TIP3    H277051   0.462   0.931   5.796 -1.1433  1.0658 -0.0971
18546TIP3   OH277052   1.754   4.295   2.498  0.2532 -0.1366 -0.0070
18546TIP3    H177053   1.846   4.275   2.483  0.0731 -0.7011 -0.4046
18546TIP3    H277054   1.714   4.210   2.520  0.0441  0.2856  1.3015
18547TIP3   OH277055   5.319   5.586  14.293  0.5586 -0.0251 -0.5137
18547TIP3    H177056   5.347   5.663  14.343  0.8073 -0.2296 -0.3397
18547TIP3    H277057   5.236   5.613  14.252 -0.0434 -0.1116  0.6173
18548TIP3   OH277058   5.824   2.118   2.405  0.7111  0.5994  0.2290
18548TIP3    H177059   5.779   2.171   2.339 -1.3829  0.1121  1.2125
18548TIP3    H277060   5.803   2.028   2.380  2.0497  0.3180  0.0942
18549TIP3   OH277061   0.041   3.696  15.570 -0.0407  0.1651 -0.3266
18549TIP3    H177062   0.006   3.743  15.495 -0.3860  0.8692  0.2564
18549TIP3    H277063   0.033   3.759  15.643  1.6028  0.0289 -0.0017
18550TIP3   OH277064   3.486   6.633  12.256 -0.4489  0.4275 -0.6058
18550TIP3    H177065   3.422   6.593  12.197  0.5099 -1.8715 -0.1559
18550TIP3    H277066   3.517   6.710  12.210 -1.9424  0.3511 -1.7666
18551TIP3   OH277067   2.165   2.941  14.937  0.3929  0.0296 -0.0417
18551TIP3    H177068   2.232   2.899  14.882 -0.4522 -0.9503 -0.3320
18551TIP3    H277069   2.155   2.883  15.012 -1.4696 -0.8205 -0.9092
18552TIP3   OH277070   0.488   0.027  16.703 -0.1399  0.4082 -0.3729
18552TIP3    H177071   0.582   0.014  16.699 -0.1532  0.3408 -0.4622
18552TIP3    H277072   0.451  -0.044  16.651 -0.3372 -0.8833  1.4924
18553TIP3   OH277073   4.058   5.124  13.681 -0.0167  0.2384 -0.0365
18553TIP3    H177074   4.093   5.210  13.706  0.6898 -0.5681  1.8044
18553TIP3    H277075   4.100   5.063  13.741 -0.1757 -1.4696 -1.6161
18554TIP3   OH277076   6.040   3.819  13.449 -0.2276  0.2319 -0.0498
18554TIP3    H177077   6.037   3.866  13.365  0.5388  0.2182 -0.0846
18554TIP3    H277078   5.950   3.788  13.461 -0.4056  0.4500 -0.7408
18555TIP3   OH277079   0.635   5.159  17.179 -0.3735 -0.0745 -0.0785
18555TIP3    H177080   0.557   5.183  17.228 -0.1527 -0.5464  0.5001
18555TIP3    H277081   0.697   5.230  17.196 -0.1363 -0.4593  0.6942
18556TIP3   OH277082   0.133   0.808   0.888  0.2460  0.3431 -0.2476
18556TIP3    H177083   0.147   0.777   0.977 -0.9853  1.7161  0.4354
18556TIP3    H277084   0.051   0.767   0.861  0.9413 -0.5862 -1.0110
18557TIP3   OH277085   5.813   0.206  16.957  0.0719 -0.4115  0.0375
18557TIP3    H177086   5.823   0.204  17.052  1.1242  1.0515 -0.0397
18557TIP3    H277087   5.723   0.237  16.943 -0.3927 -1.4863  0.5470
18558TIP3   OH277088   4.799   5.892  16.217  0.2284 -0.0331  0.2188
18558TIP3    H177089   4.774   5.969  16.269  1.6026  0.0230  0.8166
18558TIP3    H277090   4.838   5.832  16.280  0.2750 -0.7174 -0.4542
18559TIP3   OH277091   3.666   3.854  15.319 -0.2878  0.1487 -0.4302
18559TIP3    H177092   3.745   3.872  15.371 -0.4042 -0.2508 -0.1142
18559TIP3    H277093   3.662   3.759  15.314 -0.2551  0.1901 -1.2138
18560TIP3   OH277094   2.714   5.836  12.850  0.1414  0.2478 -0.0239
18560TIP3    H177095   2.775   5.787  12.905 -2.3454 -1.0240  1.6892
18560TIP3    H277096   2.678   5.771  12.790  0.3853  0.9771 -0.9698
18561TIP3   OH277097   6.302   2.747  16.708 -0.3764  0.1022 -0.0880
18561TIP3    H177098   6.255   2.754  16.625 -0.1465  1.3119 -0.1187
18561TIP3    H277099   6.263   2.671  16.751 -0.5431 -0.4869 -1.2678
18562TIP3   OH277100   4.203   2.798  14.908 -0.2530  0.1708 -0.3887
18562TIP3    H177101   4.170   2.877  14.951 -0.5562 -0.0335 -0.2482
18562TIP3    H277102   4.168   2.726  14.960  1.1149 -0.0337  0.2755
18563TIP3   OH277103   1.067   6.478   1.717  0.4968 -0.8389 -0.5452
18563TIP3    H177104   1.107   6.563   1.737  0.6122 -0.9976 -0.0972
18563TIP3    H277105   1.077   6.469   1.622  0.6640 -0.4423 -0.5686
18564TIP3   OH277106   3.924   3.293   4.011  0.7178  0.3711 -0.3777
18564TIP3    H177107   3.861   3.366   4.013  0.7608  0.4337 -1.2786
18564TIP3    H277108   3.916   3.253   4.097 -1.8217 -0.6736 -1.0398
18565TIP3   OH277109   5.175   4.659   2.373  0.0060  0.5659  0.0212
18565TIP3    H177110   5.227   4.593   2.419 -0.0999  1.1970  1.0482
18565TIP3    H277111   5.171   4.733   2.433 -2.2773  0.4436  0.0650
18566TIP3   OH277112   0.885   1.103   4.094  0.2469 -0.1885 -0.5378
18566TIP3    H177113   0.800   1.118   4.136  1.5865  2.5738  1.3272
18566TIP3    H277114   0.917   1.022   4.134  0.2732  0.9408  1.8296
18567TIP3   OH277115   2.211   3.923  13.356  0.0559 -0.6659  0.4020
18567TIP3    H177116   2.134   3.958  13.401  1.5128  3.1345  0.1106
18567TIP3    H277117   2.227   3.839  13.398 -4.3771 -1.6706  0.2829
18568TIP3   OH277118   0.479   5.405  11.046 -0.2202  0.2982 -0.0958
18568TIP3    H177119   0.551   5.433  10.990  2.3654 -3.5467  1.0368
18568TIP3    H277120   0.484   5.463  11.122  1.2027  0.5732 -0.3796
18569TIP3   OH277121   5.850   0.378  15.040  0.0879 -0.1358 -0.1501
18569TIP3    H177122   5.900   0.425  15.107 -0.5275 -1.7155  1.4822
18569TIP3    H277123   5.914   0.353  14.974  0.8220  0.9185  0.1581
18570TIP3   OH277124   3.783   0.764  10.898  0.4108  0.7309 -0.4015
18570TIP3    H177125   3.721   0.722  10.958 -0.1758  0.4971 -1.1701
18570TIP3    H277126   3.731   0.832  10.854 -0.1371 -1.4707 -3.2994
18571TIP3   OH277127   4.329   1.990  10.843  0.0203  0.5055 -0.0857
18571TIP3    H177128   4.304   2.071  10.888 -0.2729  0.2609  0.2023
18571TIP3    H277129   4.254   1.969  10.788  0.1936  0.5574 -0.3408
18572TIP3   OH277130   5.849   1.853   0.919  0.2817 -0.0222 -0.3115
18572TIP3    H177131   5.815   1.818   0.837 -1.4510  0.3366  0.2255
18572TIP3    H277132   5.935   1.813   0.928  0.2729 -0.4791 -2.0315
18573TIP3   OH277133   3.038   5.864   3.797  0.2726  0.1738  0.2628
18573TIP3    H177134   3.118   5.864   3.745  0.7348  1.2181  0.9611
18573TIP3    H277135   3.051   5.796   3.863  0.3863  0.0143  0.0748
18574TIP3   OH277136   0.515   3.356  16.522 -0.1834 -0.5904  0.1336
18574TIP3    H177137   0.548   3.312  16.601 -1.3559 -0.9655  0.4192
18574TIP3    H277138   0.501   3.286  16.459  0.0875 -0.3651 -0.1850
18575TIP3   OH277139   5.940   4.501  10.528  0.2417  0.2186 -0.1139
18575TIP3    H177140   5.924   4.566  10.460 -0.1463  0.5838  0.3215
18575TIP3    H277141   5.912   4.418  10.489 -0.5218  0.5124 -0.1939
18576TIP3   OH277142   5.140   6.384   1.385  0.3336 -0.2113  0.0320
18576TIP3    H177143   5.067   6.430   1.427  0.6688 -0.0789  0.4712
18576TIP3    H277144   5.217   6.414   1.431  0.5257 -1.5052  0.5809
18577TIP3   OH277145   3.532   2.440   2.193  0.2659 -0.5525 -0.1686
18577TIP3    H177146   3.508   2.474   2.279  3.6912  0.8351  0.3148
18577TIP3    H277147   3.573   2.355   2.211  0.5346 -0.4919 -0.4877
18578TIP3   OH277148   3.155   2.246  11.762 -0.2409  0.4540 -0.4529
18578TIP3    H177149   3.088   2.295  11.808 -1.6800 -1.6377 -0.2396
18578TIP3    H277150   3.123   2.156  11.762  1.5225 -0.2173 -2.2590
18579TIP3   OH277151   3.039   6.583   4.683 -0.5287  0.0977  0.3881
18579TIP3    H177152   2.950   6.612   4.660 -0.5949  0.0141  0.5351
18579TIP3    H277153   3.062   6.519   4.616 -0.1086  1.0083 -0.3409
18580TIP3   OH277154   4.595   1.002  15.784  0.0336 -0.2309  0.0463
18580TIP3    H177155   4.620   1.043  15.701  0.3381 -0.6695 -0.0819
18580TIP3    H277156   4.661   1.032  15.847  1.1761 -1.7570 -0.3949
18581TIP3   OH277157   5.815   3.022  12.268  0.6129 -0.1179  0.4829
18581TIP3    H177158   5.871   2.978  12.203 -1.0676  1.4679 -2.1211
18581TIP3    H277159   5.747   3.064  12.216 -1.6123  0.0534  3.4189
18582TIP3   OH277160   3.309   0.982  12.735 -0.1211 -0.6365 -0.3708
18582TIP3    H177161   3.220   0.982  12.702 -0.1884 -1.3243 -0.1993
18582TIP3    H277162   3.318   0.898  12.781  0.9443 -1.0546 -1.3043
18583TIP3   OH277163   0.827   2.536  13.083  0.3692 -0.2128 -0.3736
18583TIP3    H177164   0.744   2.523  13.036 -0.6291  0.9229  1.0167
18583TIP3    H277165   0.853   2.448  13.110 -0.0328 -0.6617 -1.4016
18584TIP3   OH277166   4.508   1.588  14.820 -0.0014  0.1890  0.4320
18584TIP3    H177167   4.489   1.676  14.787  0.7626  0.8823  1.8001
18584TIP3    H277168   4.584   1.559  14.768 -0.5868  0.1127 -0.3864
18585TIP3   OH277169   2.901   0.437   1.300  0.1510  0.1400  0.2990
18585TIP3    H177170   2.949   0.355   1.286  1.2163  0.5260  1.6189
18585TIP3    H277171   2.841   0.418   1.372 -2.2579 -0.5536 -1.8014
18586TIP3   OH277172   6.005   3.924   6.656 -0.2114  0.0191 -0.2928
18586TIP3    H177173   5.918   3.961   6.640  0.4422  0.4685 -3.0842
18586TIP3    H277174   6.048   3.988   6.713 -1.6785 -0.2203  1.1504
18587TIP3   OH277175   4.526   5.845  17.179  0.4723 -0.2121 -0.2842
18587TIP3    H177176   4.559   5.930  17.207 -0.0885  0.6580 -2.2193
18587TIP3    H277177   4.436   5.843  17.210  0.1430  0.3547 -1.2112
18588TIP3   OH277178   1.517   2.271   5.318 -0.3177  0.0290 -0.4364
18588TIP3    H177179   1.584   2.282   5.386 -1.7676  0.3641  0.9543
18588TIP3    H277180   1.554   2.316   5.242  1.4143 -0.5048  0.0485
18589TIP3   OH277181   4.918   2.355   4.443 -0.0135  0.5498  0.2054
18589TIP3    H177182   4.951   2.274   4.481 -1.7636  0.2685  1.1826
18589TIP3    H277183   4.958   2.358   4.355  0.4525 -1.1063  0.3377
18590TIP3   OH277184   2.692   0.418  16.590  0.1778 -0.2506  0.8491
18590TIP3    H177185   2.648   0.500  16.609 -1.9869 -1.4151  1.0450
18590TIP3    H277186   2.621   0.354  16.582  1.6553 -1.6820 -1.4729
18591TIP3   OH277187   4.231   0.139  12.373  0.4929  0.2382 -0.0574
18591TIP3    H177188   4.298   0.106  12.432  1.0117  0.6537 -0.4162
18591TIP3    H277189   4.181   0.202  12.425 -0.0971 -0.6194  0.4328
18592TIP3   OH277190   6.673   1.821  12.308 -0.6502 -0.6235  0.1223
18592TIP3    H177191   6.629   1.744  12.344  0.8170 -0.9014  1.3959
18592TIP3    H277192   6.604   1.871  12.267 -1.6463 -2.5750 -0.6356
18593TIP3   OH277193   2.822   5.638  12.978 -0.0018  0.1491 -0.6614
18593TIP3    H177194   2.832   5.543  12.976 -0.5837  0.1026 -1.6345
18593TIP3    H277195   2.739   5.653  13.022  0.6000  0.2489  0.4506
18594TIP3   OH277196   0.779   4.230  16.528  0.0600  0.0971 -0.0286
18594TIP3    H177197   0.841   4.164  16.560  0.3106  1.3141  2.0774
18594TIP3    H277198   0.737   4.264  16.607 -0.0702  2.4584 -1.0628
18595TIP3   OH277199   6.470   1.387  16.313 -0.4591  0.1998 -0.6162
18595TIP3    H177200   6.544   1.364  16.257 -0.1944 -1.6489  0.4333
18595TIP3    H277201   6.406   1.318  16.297  0.0759 -1.0244  2.1383
18596TIP3   OH277202   1.695   4.834   5.048  0.1535 -0.7860 -0.2023
18596TIP3    H177203   1.705   4.764   5.113  1.6864 -0.8378 -0.4759
18596TIP3    H277204   1.768   4.822   4.988  0.7766  1.3984  0.0732
18597TIP3   OH277205   3.825   4.943  16.616  0.8891  0.1045  0.5435
18597TIP3    H177206   3.763   5.001  16.661  1.0193  2.2601 -1.9377
18597TIP3    H277207   3.799   4.855  16.643 -0.6211  1.1934  2.8036
18598TIP3   OH277208   2.439   4.562   3.859  0.3587 -0.2358 -0.1455
18598TIP3    H177209   2.433   4.501   3.933  1.1394  1.5790  1.4825
18598TIP3    H277210   2.350   4.594   3.847  0.4093  0.2702  0.7514
18599TIP3   OH277211   0.441   3.209   1.585 -1.1965 -0.5533  0.0846
18599TIP3    H177212   0.508   3.161   1.633  1.1398 -0.1769 -2.6769
18599TIP3    H277213   0.362   3.157   1.596  0.3307 -2.8501  0.5753
18600TIP3   OH277214   3.653   0.019  10.318 -0.0433  0.4306 -0.4997
18600TIP3    H177215   3.728  -0.037  10.303  0.7037  1.1010  0.6606
18600TIP3    H277216   3.578  -0.033  10.291  0.6451 -1.1242  0.5209
18601TIP3   OH277217   4.304   5.798   1.059  0.2019 -0.3224  0.7292
18601TIP3    H177218   4.209   5.796   1.064  0.1868  1.2978  1.3982
18601TIP3    H277219   4.324   5.871   1.001  1.0568  0.8651  2.4413
18602TIP3   OH277220   1.065   1.459  13.937 -0.1624 -0.1527  0.2001
18602TIP3    H177221   1.112   1.404  13.874 -0.7598  0.1268 -0.4968
18602TIP3    H277222   0.982   1.414  13.950 -0.5548  0.4543 -0.1813
18603TIP3   OH277223   4.839   3.427  12.592  0.1542 -0.0581  0.1776
18603TIP3    H177224   4.895   3.464  12.524 -0.3482 -0.2092 -0.3222
18603TIP3    H277225   4.874   3.339  12.608 -0.0532 -0.2230 -0.2685
18604TIP3   OH277226   2.331   3.194   5.645  0.0691 -0.2638 -0.2265
18604TIP3    H177227   2.412   3.149   5.620  0.2648  1.0681 -2.1954
18604TIP3    H277228   2.361   3.274   5.689 -0.1672 -0.0669 -0.4181
18605TIP3   OH277229   3.656   2.647  15.969  0.9895 -0.4777 -0.2404
18605TIP3    H177230   3.597   2.719  15.993  2.2494  0.8654 -1.0920
18605TIP3    H277231   3.724   2.689  15.916  1.6412 -2.3372 -0.9026
18606TIP3   OH277232   5.326   5.500   5.532 -0.2958 -0.5449  0.2086
18606TIP3    H177233   5.377   5.581   5.532 -2.5184  0.9370 -2.4579
18606TIP3    H277234   5.267   5.509   5.606 -0.0437 -0.0381  0.3508
18607TIP3   OH277235   5.880   1.917   2.104  0.1452 -0.1288  0.5149
18607TIP3    H177236   5.825   1.926   2.182  0.4926  1.5061  0.5821
18607TIP3    H277237   5.829   1.960   2.035  1.2862  1.3284  0.5601
18608TIP3   OH277238   3.255   4.044   4.580 -0.0111 -0.4932 -0.3375
18608TIP3    H177239   3.244   3.950   4.598 -1.1801 -0.5598 -1.3178
18608TIP3    H277240   3.168   4.081   4.597  0.2785  0.3120 -0.6015
18609TIP3   OH277241   3.784   6.610  15.467  0.1174  0.5289 -0.4518
18609TIP3    H177242   3.841   6.547  15.424  1.0411  1.4580 -0.6177
18609TIP3    H277243   3.737   6.653  15.395  0.1628  0.6587 -0.4050
18610TIP3   OH277244   6.529   2.920  15.309 -0.6612 -0.1875 -0.2752
18610TIP3    H177245   6.560   3.000  15.266  0.2701  0.6381  1.8459
18610TIP3    H277246   6.538   2.851  15.242  1.0533  0.9810 -1.2713
18611TIP3   OH277247   5.631   6.608  13.886  0.1956 -0.1401 -0.3852
18611TIP3    H177248   5.600   6.597  13.796 -0.4306 -1.2395 -0.0461
18611TIP3    H277249   5.556   6.582  13.940  0.8069 -0.1706  0.4539
18612TIP3   OH277250   3.537   3.450   0.971  0.0711 -0.7448  0.2014
18612TIP3    H177251   3.542   3.533   1.019 -2.0455 -0.7992  0.5929
18612TIP3    H277252   3.443   3.430   0.969  0.7198 -4.6352  2.6990
18613TIP3   OH277253   0.073   6.456   0.411  0.3969 -0.2529  0.8809
18613TIP3    H177254   0.003   6.521   0.404  0.3347 -0.6107 -2.3212
18613TIP3    H277255   0.038   6.390   0.471 -1.5234  0.1655  0.2527
18614TIP3   OH277256   3.396   4.118   0.582  0.4486 -0.0731 -0.1732
18614TIP3    H177257   3.472   4.095   0.529  0.4788  1.0540 -0.6401
18614TIP3    H277258   3.323   4.073   0.541  0.5683  0.3222 -0.8143
18615TIP3   OH277259   2.554   2.040  13.488 -0.4863  0.0994 -0.1135
18615TIP3    H177260   2.491   1.976  13.456 -0.2257  0.6180 -1.7021
18615TIP3    H277261   2.631   2.027  13.434  0.6969 -0.3226  1.6142
18616TIP3   OH277262   1.183   0.326   5.114  0.2286 -0.1761  0.5725
18616TIP3    H177263   1.248   0.396   5.118 -0.0490  0.1348 -0.2340
18616TIP3    H277264   1.115   0.352   5.176 -0.3444  0.7533 -0.4377
18617TIP3   OH277265   6.531   2.779   3.033 -0.0664 -0.3495  1.0992
18617TIP3    H177266   6.623   2.805   3.029 -0.3495  0.6171  0.7277
18617TIP3    H277267   6.491   2.841   3.093 -1.3378  1.9359 -1.9619
18618TIP3   OH277268   1.719   0.857  14.960  0.4689 -0.2545 -0.2113
18618TIP3    H177269   1.806   0.880  14.925 -0.1417 -0.3359 -1.8549
18618TIP3    H277270   1.679   0.942  14.981  1.2516 -0.2602  1.3343
18619TIP3   OH277271   0.575   0.416  12.429  0.2173  0.2256 -0.7381
18619TIP3    H177272   0.509   0.362  12.472  1.6624 -0.5484  0.5385
18619TIP3    H277273   0.556   0.505  12.460  0.6538 -0.1905  0.7894
18620TIP3   OH277274   4.829   0.648  11.682 -0.9799  0.1452 -0.3253
18620TIP3    H177275   4.777   0.726  11.702 -0.6683  0.7350 -1.7236
18620TIP3    H277276   4.863   0.619  11.766 -0.7697  1.7765  0.1678
18621TIP3   OH277277   0.184   5.202  11.986  0.2343  0.6479 -0.5965
18621TIP3    H177278   0.116   5.176  12.048 -0.2282  0.0941 -1.3211
18621TIP3    H277279   0.183   5.133  11.919  0.6086  1.3155 -1.3030
18622TIP3   OH277280   2.929   0.078  12.408  0.4167  0.3927  0.2386
18622TIP3    H177281   2.866   0.007  12.410 -0.0598  0.7755 -0.6224
18622TIP3    H277282   2.998   0.047  12.349 -0.2972  1.0405 -0.9631
18623TIP3   OH277283   2.505   0.806   4.805 -0.3310  0.8598  0.3407
18623TIP3    H177284   2.561   0.753   4.862 -1.2096  0.0961  0.5071
18623TIP3    H277285   2.559   0.881   4.781  0.1709  1.0070  1.8840
18624TIP3   OH277286   3.992   5.729   5.076  0.5897 -0.2335  0.1770
18624TIP3    H177287   4.058   5.798   5.066  0.8447 -0.6208 -0.9243
18624TIP3    H277288   3.943   5.753   5.154  0.3593  1.4763 -0.4747
18625TIP3   OH277289   1.000   4.837   4.479  0.1187  0.0134 -0.1171
18625TIP3    H177290   0.956   4.921   4.470 -0.0133  0.1263  1.3884
18625TIP3    H277291   0.992   4.796   4.393 -2.8402  0.0926  0.0596
18626TIP3   OH277292   0.002   0.601  10.920  0.2086  0.0559 -0.0703
18626TIP3    H177293  -0.091   0.579  10.911  0.3942 -1.4413  1.3890
18626TIP3    H277294   0.036   0.598  10.831 -0.9647 -0.2005 -0.5198
18627TIP3   OH277295   5.685   3.316  14.844 -0.0412  0.3448  0.1120
18627TIP3    H177296   5.643   3.293  14.926  1.7938  0.3182  1.0717
18627TIP3    H277297   5.653   3.251  14.781  1.9485 -2.3649  1.8420
18628TIP3   OH277298   4.327   3.911   5.424 -0.3695 -0.2485 -0.2925
18628TIP3    H177299   4.379   3.832   5.434  0.4335  0.2419 -0.5328
18628TIP3    H277300   4.307   3.939   5.513 -0.7049 -0.7564 -0.2095
18629TIP3   OH277301   1.311   5.378  15.034  0.2932  0.1506 -0.1305
18629TIP3    H177302   1.382   5.363  15.096 -0.1871  1.3797  0.7500
18629TIP3    H277303   1.351   5.366  14.948  0.5728 -3.2452  0.4039
18630TIP3   OH277304   4.792   1.941  12.294  0.4544  0.0938  0.1234
18630TIP3    H177305   4.858   1.943  12.364 -0.1773 -0.0159  0.7243
18630TIP3    H277306   4.716   1.985  12.332  0.2156  0.3215 -0.6115
18631TIP3   OH277307   5.984   5.940   5.849 -0.0303 -0.1342 -0.5353
18631TIP3    H177308   5.982   6.007   5.917  2.5291  1.3058 -1.7774
18631TIP3    H277309   6.034   5.868   5.888 -0.1650 -0.0676 -0.2389
18632TIP3   OH277310   3.336   2.865   5.702 -0.1441  0.2550  0.7074
18632TIP3    H177311   3.243   2.859   5.724 -1.3606  1.0956 -3.7344
18632TIP3    H277312   3.356   2.780   5.662  0.1129  1.1509 -1.1464
18633TIP3   OH277313   4.204   0.055   3.268 -0.3917 -0.0665 -0.2037
18633TIP3    H177314   4.202  -0.008   3.197  0.9091 -0.3055 -0.0365
18633TIP3    H277315   4.274   0.115   3.245  0.1186 -0.2084  0.9347
18634TIP3   OH277316   6.293   3.861  10.363 -0.3591 -0.7583  0.3015
18634TIP3    H177317   6.307   3.911  10.282  0.2456 -1.4110  0.0041
18634TIP3    H277318   6.324   3.919  10.432 -0.4100 -0.3968  0.0255
18635TIP3   OH277319   2.672   2.786   1.240 -0.3236  0.5207 -0.3041
18635TIP3    H177320   2.638   2.824   1.159 -0.8379 -0.7422 -0.7117
18635TIP3    H277321   2.764   2.767   1.222 -1.0210 -1.9735 -1.4629
18636TIP3   OH277322   3.342   1.918   2.214  0.0836  0.3539 -0.2764
18636TIP3    H177323   3.275   1.925   2.282  1.1331 -4.1556  1.4239
18636TIP3    H277324   3.424   1.910   2.262  1.0574 -0.9685 -2.1113
18637TIP3   OH277325   1.284   2.770  13.116  0.6201  0.4443 -0.1038
18637TIP3    H177326   1.282   2.740  13.207  0.3480  2.2912  0.5321
18637TIP3    H277327   1.207   2.730  13.075  1.7242 -1.8326 -0.0207
18638TIP3   OH277328   4.095   4.878   0.123 -0.5671  0.2010  0.2698
18638TIP3    H177329   4.032   4.885   0.051  2.1029 -0.0399 -2.1690
18638TIP3    H277330   4.100   4.784   0.141 -2.4679  0.3769  1.9950
18639TIP3   OH277331   6.675   1.917   2.701  0.0786  0.4767  0.4118
18639TIP3    H177332   6.625   1.916   2.782 -1.2908  4.5671 -0.2950
18639TIP3    H277333   6.612   1.944   2.634  2.1179  1.0484 -1.3334
18640TIP3   OH277334   6.284   0.372  13.558  0.0417  0.1867  0.5355
18640TIP3    H177335   6.208   0.420  13.592  1.7136  2.5143  1.1456
18640TIP3    H277336   6.348   0.376  13.628  1.0657 -0.9804 -0.3112
18641TIP3   OH277337   5.687   5.932   2.731  0.1512  0.1745 -0.0155
18641TIP3    H177338   5.724   5.930   2.819  0.7005  0.8200 -0.2186
18641TIP3    H277339   5.680   5.841   2.705  1.7069  0.0453 -0.0043
18642TIP3   OH277340   6.681   0.731   6.271 -0.0092  0.1147 -0.0877
18642TIP3    H177341   6.663   0.703   6.181  2.5592 -0.7000 -0.3780
18642TIP3    H277342   6.737   0.663   6.307 -0.4636  0.7702  1.9371
18643TIP3   OH277343   0.379   0.651   3.847  0.2270 -0.5050  0.1397
18643TIP3    H177344   0.392   0.558   3.829  1.1983 -0.5033  0.7851
18643TIP3    H277345   0.467   0.684   3.867 -0.1602  0.4722  0.2443
18644TIP3   OH277346   2.965   1.874  13.394 -0.1662  0.2911 -0.0527
18644TIP3    H177347   2.893   1.937  13.388  0.1488  0.5790 -0.8277
18644TIP3    H277348   3.003   1.873  13.307 -1.1916 -2.2032 -0.5223
18645TIP3   OH277349   3.163   0.469   5.532  0.1626 -0.2258  0.3684
18645TIP3    H177350   3.184   0.376   5.544 -0.2123 -0.2385  0.9301
18645TIP3    H277351   3.244   0.515   5.554  0.4987 -0.4424 -0.3843
18646TIP3   OH277352   1.580   0.262   1.230 -0.3310  0.2038 -0.4399
18646TIP3    H177353   1.596   0.278   1.323 -0.0453  1.2256 -0.6517
18646TIP3    H277354   1.668   0.250   1.193 -0.2744  2.1320 -0.9735
18647TIP3   OH277355   3.871   6.583  10.479 -0.4779  0.1965  0.8338
18647TIP3    H177356   3.918   6.505  10.508 -1.7349 -0.4889  1.0570
18647TIP3    H277357   3.876   6.580  10.383  0.7409  0.6352  0.8789
18648TIP3   OH277358   0.626   1.209   4.162  0.5118  1.1687  0.1053
18648TIP3    H177359   0.626   1.304   4.174 -0.7301  1.2179 -0.2976
18648TIP3    H277360   0.549   1.191   4.108  0.7772 -0.0617  0.1253
18649TIP3   OH277361   5.805   3.750  11.842  0.0557  0.4881 -0.5080
18649TIP3    H177362   5.892   3.787  11.855  1.4878 -2.6812 -0.7987
18649TIP3    H277363   5.815   3.657  11.860 -3.5333  0.2115  0.5313
18650TIP3   OH277364   1.370   5.962   1.943 -0.2698 -0.5500 -0.1063
18650TIP3    H177365   1.283   5.933   1.917  0.0845 -0.7165 -1.1384
18650TIP3    H277366   1.377   5.938   2.035 -2.0786  1.2954  0.5606
18651TIP3   OH277367   0.634   4.476   3.657  0.1804 -0.6922 -0.0047
18651TIP3    H177368   0.726   4.491   3.640  0.0262  1.1092  0.6069
18651TIP3    H277369   0.597   4.448   3.573  1.0927 -0.4772 -0.4767
18652TIP3   OH277370   6.783   3.300   4.361 -0.4079 -0.0126 -0.4934
18652TIP3    H177371   6.773   3.312   4.267 -0.4865 -0.6122 -0.5650
18652TIP3    H277372   6.877   3.299   4.375 -0.3829 -1.0913 -0.7232
18653TIP3   OH277373   5.333   3.822  11.639 -0.4862 -0.0567 -0.0084
18653TIP3    H177374   5.399   3.854  11.577  2.0390 -0.1521  2.4722
18653TIP3    H277375   5.345   3.728  11.641 -2.0203 -0.2867 -0.9136
18654TIP3   OH277376   0.156   2.954   4.618 -0.0727  0.7914 -0.3414
18654TIP3    H177377   0.236   3.005   4.609 -0.3061  1.1546 -0.4064
18654TIP3    H277378   0.184   2.863   4.615  0.4604  0.9046  0.7170
18655TIP3   OH277379   0.699   3.481  15.629  0.8096  0.2648 -0.1842
18655TIP3    H177380   0.750   3.530  15.693 -0.3533  0.5265  0.5747
18655TIP3    H277381   0.612   3.521  15.633 -0.1348 -1.7745  0.3845
18656TIP3   OH277382   4.241   0.417  16.434  0.1924  0.0887  0.3691
18656TIP3    H177383   4.279   0.495  16.473 -0.6560  0.7687 -0.1368
18656TIP3    H277384   4.186   0.450  16.363  1.4109 -1.1001 -1.1545
18657TIP3   OH277385   0.461   2.868  15.421  0.1931  0.2337  0.1769
18657TIP3    H177386   0.482   2.828  15.506  0.3735  0.6381  0.3263
18657TIP3    H277387   0.417   2.799  15.372  0.8107 -0.2582  0.3086
18658TIP3   OH277388   3.205   2.193  15.273  0.1533  0.3527  0.4285
18658TIP3    H177389   3.198   2.105  15.238 -3.3037 -0.1294  2.1546
18658TIP3    H277390   3.268   2.186  15.345  1.3420 -0.2506 -0.6481
18659TIP3   OH277391   4.379   2.267  16.123 -0.3862  0.0745 -0.4628
18659TIP3    H177392   4.340   2.199  16.068  0.4083  0.1061 -1.0752
18659TIP3    H277393   4.417   2.219  16.196 -0.7289 -0.0468 -0.3632
18660TIP3   OH277394   2.552   3.581  15.747 -0.6194 -1.0227 -0.4517
18660TIP3    H177395   2.594   3.496  15.756 -0.7168 -1.2161 -1.6600
18660TIP3    H277396   2.503   3.575  15.664 -1.6188 -0.2141  0.0687
18661TIP3   OH277397   1.838   1.269   2.331  0.4282 -0.0009 -0.0544
18661TIP3    H177398   1.921   1.284   2.285  0.4160 -1.0456 -0.4305
18661TIP3    H277399   1.775   1.251   2.262  0.7183 -2.9987  0.4092
18662TIP3   OH277400   6.348   5.692   2.271  0.2703  0.0153 -0.1986
18662TIP3    H177401   6.353   5.778   2.311 -0.0541 -0.2661  0.4603
18662TIP3    H277402   6.311   5.708   2.183 -1.8084  0.3193  0.6948
18663TIP3   OH277403   1.807   1.190   3.339  0.5896 -0.0629  0.2888
18663TIP3    H177404   1.787   1.121   3.402  0.3197  1.4769  1.9618
18663TIP3    H277405   1.827   1.267   3.394  1.5786  0.9884 -1.4993
18664TIP3   OH277406   1.636   3.895  11.781  0.2026 -0.3346  0.6753
18664TIP3    H177407   1.665   3.864  11.867  0.6803 -1.4862  0.1109
18664TIP3    H277408   1.713   3.940  11.745  0.6329 -1.5676  0.0413
18665TIP3   OH277409   4.655   2.340   0.709 -0.4120 -0.7242  0.8197
18665TIP3    H177410   4.739   2.373   0.741 -0.1506 -0.5555 -0.0301
18665TIP3    H277411   4.617   2.295   0.784  0.4083 -0.7416  1.2296
18666TIP3   OH277412   2.617   1.392   5.392  0.1839  0.1379  0.1008
18666TIP3    H177413   2.604   1.307   5.434  0.2856 -0.0851 -0.3163
18666TIP3    H277414   2.706   1.390   5.359  0.0964  0.2991 -0.1519
18667TIP3   OH277415   5.312   1.430  15.878  0.3728 -0.0118  0.2408
18667TIP3    H177416   5.306   1.352  15.824  0.0006  1.0745 -1.3416
18667TIP3    H277417   5.302   1.503  15.816  0.8060  1.2889  1.6527
18668TIP3   OH277418   5.277   3.165  16.591  0.2979 -0.3437 -0.3676
18668TIP3    H177419   5.206   3.105  16.571  1.8652 -2.3485 -0.0820
18668TIP3    H277420   5.265   3.186  16.684 -0.4685  0.0747 -0.5633
18669TIP3   OH277421   0.300   0.491  16.411 -0.0498  0.2809 -0.5236
18669TIP3    H177422   0.341   0.567  16.453  0.2426 -0.5099  0.6793
18669TIP3    H277423   0.351   0.478  16.331  1.0670  0.2733  0.1614
18670TIP3   OH277424   3.672   5.202   1.871  0.0299 -0.1688 -0.4087
18670TIP3    H177425   3.669   5.256   1.792  1.6971  0.0546 -0.3357
18670TIP3    H277426   3.586   5.161   1.875 -1.0183  1.8971 -0.8837
18671TIP3   OH277427   2.484   6.610  12.539  0.1375 -0.0310  0.0504
18671TIP3    H177428   2.483   6.652  12.625  0.9449 -0.4986  0.2909
18671TIP3    H277429   2.428   6.666  12.485  1.7125  1.7157  0.1997
18672TIP3   OH277430   6.458   5.268   1.251 -0.1825 -0.2521  0.0484
18672TIP3    H177431   6.477   5.360   1.232  2.3715 -0.6963  0.1797
18672TIP3    H277432   6.387   5.245   1.192  1.0515  1.0440 -2.0108
18673TIP3   OH277433   6.738   3.086  14.596 -0.2826 -0.4271 -0.2743
18673TIP3    H177434   6.668   3.071  14.660 -0.0129  1.5195  0.4992
18673TIP3    H277435   6.718   3.171  14.557  0.4844 -0.8313 -1.6021
18674TIP3   OH277436   6.734   6.006   0.738  0.2157 -0.8635  0.1318
18674TIP3    H177437   6.773   6.092   0.758 -0.3758 -0.8305  1.1737
18674TIP3    H277438   6.808   5.945   0.745  0.1476 -0.7745  1.9129
18675TIP3   OH277439   5.197   5.277  15.046 -0.0198  0.1507 -0.0968
18675TIP3    H177440   5.232   5.190  15.066 -1.4207 -0.5839 -0.7916
18675TIP3    H277441   5.271   5.325  15.009  0.7857 -0.7040  0.3779
18676TIP3   OH277442   2.456   5.089   3.015  0.0645 -0.0002  0.3826
18676TIP3    H177443   2.456   5.182   3.036  1.1563  0.9436 -3.4931
18676TIP3    H277444   2.548   5.064   3.015 -0.0727 -0.5191 -0.8842
18677TIP3   OH277445   6.544   5.233   4.543  0.9183 -0.2457  0.0714
18677TIP3    H177446   6.520   5.314   4.499 -0.1873  0.5054  2.0038
18677TIP3    H277447   6.468   5.176   4.531  0.7956 -0.1972  0.6192
18678TIP3   OH277448   1.708   0.547   2.116  0.0234 -0.2687 -1.0544
18678TIP3    H177449   1.772   0.478   2.133  0.8473  0.3808 -1.4767
18678TIP3    H277450   1.633   0.524   2.171  1.6598  0.3992  1.5588
18679TIP3   OH277451   3.307   5.987  12.469 -0.3985  0.8202 -0.2387
18679TIP3    H177452   3.224   5.953  12.436 -0.5428 -0.7808  1.6984
18679TIP3    H277453   3.371   5.919  12.447 -0.2558  0.3837  1.4492
18680TIP3   OH277454   6.435   4.279  14.050  0.9154  0.6633  0.1636
18680TIP3    H177455   6.459   4.194  14.088  0.1797 -0.0138 -0.8462
18680TIP3    H277456   6.382   4.321  14.118  0.3291 -0.1729  0.2381
18681TIP3   OH277457   4.936   2.254  14.666  0.9991  0.3091  0.6667
18681TIP3    H177458   4.999   2.204  14.613  0.6821  0.4122  0.2010
18681TIP3    H277459   4.859   2.198  14.670  0.5143  0.9248 -0.1518
18682TIP3   OH277460   2.644   4.602   5.761  0.7932  0.2051  0.0056
18682TIP3    H177461   2.623   4.538   5.829  0.3494  0.1572 -0.1775
18682TIP3    H277462   2.689   4.672   5.807 -0.2222  0.5467  0.4764
18683TIP3   OH277463   6.726   5.696   1.641 -0.6692  0.0733  0.0398
18683TIP3    H177464   6.800   5.743   1.680 -0.6685  0.5287 -0.5076
18683TIP3    H277465   6.688   5.647   1.714  1.4963 -1.9205 -0.0994
18684TIP3   OH277466   6.471   1.925   1.197 -0.3530  0.0367  0.0875
18684TIP3    H177467   6.460   1.874   1.277 -1.3747 -0.7376 -0.5389
18684TIP3    H277468   6.406   1.995   1.202 -0.7544 -0.3026 -0.2816
18685TIP3   OH277469   5.710   6.370   4.375  0.0906 -0.1243 -0.1672
18685TIP3    H177470   5.773   6.390   4.445 -0.7981  0.1091  0.5741
18685TIP3    H277471   5.648   6.442   4.377 -0.7304 -0.8230 -0.2868
18686TIP3   OH277472   1.667   1.754   2.224  0.1107 -0.2545  0.5211
18686TIP3    H177473   1.706   1.837   2.250  0.7049 -0.7544  1.2495
18686TIP3    H277474   1.698   1.692   2.290 -0.1570 -1.0931 -0.1415
18687TIP3   OH277475   0.775   5.588  12.269  0.3046 -0.0601 -0.2547
18687TIP3    H177476   0.761   5.506  12.222 -1.8286  1.2338 -1.9202
18687TIP3    H277477   0.853   5.626  12.229  0.5502 -0.6353 -0.3310
18688TIP3   OH277478   4.149   4.470   6.770  0.2720  0.4909 -0.5951
18688TIP3    H177479   4.156   4.459   6.675 -0.1148  0.6111 -0.6403
18688TIP3    H277480   4.234   4.445   6.804 -0.3055 -1.8300 -0.7672
18689TIP3   OH277481   3.311   4.189   2.352 -0.5188 -0.2780  0.1555
18689TIP3    H177482   3.226   4.173   2.312  0.1160 -0.7429 -1.0465
18689TIP3    H277483   3.320   4.122   2.419 -1.0441 -0.2968  0.2085
18690TIP3   OH277484   1.986   0.688   5.023  0.2458  0.5159 -0.2407
18690TIP3    H177485   2.073   0.709   5.057  0.5097  1.6739 -1.5997
18690TIP3    H277486   1.995   0.696   4.928 -0.5183 -2.4664 -0.6218
18691TIP3   OH277487   3.122   5.297   1.016  0.0109 -0.4135  0.0466
18691TIP3    H177488   3.130   5.204   1.037 -0.1804 -0.4931 -0.2384
18691TIP3    H277489   3.212   5.327   1.004 -0.0010 -0.8535 -1.1614
18692TIP3   OH277490   1.300   2.626   1.483 -0.5635  0.4440 -0.8961
18692TIP3    H177491   1.300   2.720   1.500 -1.3856  0.4535 -0.9150
18692TIP3    H277492   1.222   2.594   1.529 -1.4008  0.0785 -2.5502
18693TIP3   OH277493   4.156   2.515  12.861  0.4532 -0.3951  0.3183
18693TIP3    H177494   4.098   2.581  12.898  1.9230 -0.4792  2.9110
18693TIP3    H277495   4.202   2.559  12.790 -1.6469  0.1008 -0.7561
18694TIP3   OH277496   5.761   3.332  11.430  0.2377  0.1577  0.0797
18694TIP3    H177497   5.694   3.279  11.387 -1.9765  3.1861 -0.3903
18694TIP3    H277498   5.804   3.379  11.358 -0.7672  2.2167  0.7750
18695TIP3   OH277499   4.092   2.153  11.768 -0.5505  0.0791 -0.4021
18695TIP3    H177500   4.009   2.185  11.732 -0.2175  0.4252 -0.8653
18695TIP3    H277501   4.159   2.205  11.724 -0.1150  0.1601  0.3496
18696TIP3   OH277502   2.787   2.597   5.926 -0.0256  0.2388  0.3533
18696TIP3    H177503   2.743   2.547   5.857 -0.8103  0.7918  0.4455
18696TIP3    H277504   2.881   2.584   5.908 -0.2148  0.6018 -0.9858
18697TIP3   OH277505   1.060   5.290   0.269  0.1876  0.0676  0.0670
18697TIP3    H177506   1.137   5.259   0.223 -0.3448 -1.9073  0.4730
18697TIP3    H277507   1.087   5.295   0.361  0.7471  2.4148 -0.1747
18698TIP3   OH277508   2.601   4.935  15.134  0.6679  0.0645 -0.1935
18698TIP3    H177509   2.519   4.969  15.097  1.2332  1.1463 -0.4686
18698TIP3    H277510   2.575   4.898  15.218 -0.3635 -1.0095 -0.9681
18699TIP3   OH277511   0.871   4.269  12.722  0.0405 -0.1971 -0.1885
18699TIP3    H177512   0.926   4.190  12.726  0.1441 -0.0738  0.9229
18699TIP3    H277513   0.850   4.287  12.813  2.4466  2.7916 -0.1520
18700TIP3   OH277514   4.463   0.394   2.668 -0.1886 -0.5118 -0.0595
18700TIP3    H177515   4.443   0.301   2.671  0.6102 -0.6857  0.0020
18700TIP3    H277516   4.488   0.417   2.757 -0.6158 -0.1797 -0.0209
18701TIP3   OH277517   2.298   5.893   2.026  0.1757  0.2029  0.3135
18701TIP3    H177518   2.320   5.802   2.004 -1.3022 -0.5730  1.9251
18701TIP3    H277519   2.370   5.922   2.082 -0.1754 -0.5163  1.1394
18702TIP3   OH277520   5.513   6.103  14.523  0.7517 -0.3988 -0.3379
18702TIP3    H177521   5.546   6.136  14.607  0.1307  0.8673 -0.5819
18702TIP3    H277522   5.565   6.149  14.457 -0.5727  0.6086 -0.6968
18703TIP3   OH277523   6.267   5.843   1.560 -0.1597 -0.7318 -0.0408
18703TIP3    H177524   6.323   5.877   1.630 -0.6580 -0.0918  0.0531
18703TIP3    H277525   6.239   5.757   1.592 -1.2867  0.0221  1.0629
18704TIP3   OH277526   2.412   1.152  13.005 -0.2024 -1.1490 -0.0890
18704TIP3    H177527   2.407   1.233  12.953  1.3060 -0.0562  1.4001
18704TIP3    H277528   2.489   1.107  12.969 -0.1934 -1.2324  0.0385
18705TIP3   OH277529   3.034   4.537   6.674  0.6455 -0.1330  0.4595
18705TIP3    H177530   2.963   4.601   6.678  0.2970 -0.4433 -0.6180
18705TIP3    H277531   3.036   4.498   6.762  0.5288  0.9887  0.9746
18706TIP3   OH277532   0.302   3.296  14.342 -0.3182 -0.7671  0.1542
18706TIP3    H177533   0.224   3.243  14.359  0.3902 -1.5313  1.0639
18706TIP3    H277534   0.370   3.257  14.397  0.8311 -0.4059 -0.9892
18707TIP3   OH277535   6.364   3.187   1.149 -0.8859  0.2598  0.2919
18707TIP3    H177536   6.302   3.171   1.220 -2.4881 -0.2815 -1.1803
18707TIP3    H277537   6.330   3.266   1.106 -0.9979 -0.4720 -0.9796
18708TIP3   OH277538   2.265   6.008   5.480 -0.0902  0.4808 -0.1853
18708TIP3    H177539   2.187   5.953   5.471  1.4302 -1.5699 -1.4909
18708TIP3    H277540   2.331   5.949   5.518  1.6231  1.3323 -1.7766
18709TIP3   OH277541   3.235   5.591  13.991  0.0416 -0.0287 -0.7851
18709TIP3    H177542   3.194   5.674  13.968 -1.0448 -0.3681 -0.1493
18709TIP3    H277543   3.275   5.607  14.076  1.0637  0.2475 -1.3184
18710TIP3   OH277544   4.599   5.770  16.052 -0.2524  0.5948  0.8418
18710TIP3    H177545   4.645   5.843  16.093 -0.9020  0.2703  2.2061
18710TIP3    H277546   4.643   5.692  16.087  0.5915  0.3179 -0.7871
18711TIP3   OH277547   1.918   6.396   5.211 -0.2867  0.4222 -0.5105
18711TIP3    H177548   2.003   6.379   5.170 -0.9578 -1.0121 -1.3607
18711TIP3    H277549   1.854   6.374   5.144 -1.3677 -0.0187  0.6295
18712TIP3   OH277550   3.147   5.842  13.595  0.3376  0.0552  0.3666
18712TIP3    H177551   3.054   5.863  13.590  0.2329 -0.3636  0.5791
18712TIP3    H277552   3.156   5.762  13.543  0.7895  0.7991 -0.7199
18713TIP3   OH277553   1.742   5.119  12.745 -0.0967  0.1927  0.0085
18713TIP3    H177554   1.653   5.094  12.769  0.2639 -1.9159 -0.7239
18713TIP3    H277555   1.731   5.189  12.681 -1.1408  2.4529  2.5298
18714TIP3   OH277556   3.674   0.569  14.747  0.0386 -0.2790 -0.4695
18714TIP3    H177557   3.669   0.643  14.808 -2.3998 -0.5168 -0.3068
18714TIP3    H277558   3.599   0.515  14.770  0.9011 -2.0031 -1.6379
18715TIP3   OH277559   4.808   0.267  16.103 -0.3271  0.5140  0.5222
18715TIP3    H177560   4.876   0.285  16.168  1.1599  0.7929 -1.1012
18715TIP3    H277561   4.851   0.213  16.037 -2.0204 -0.3516  0.0907
18716TIP3   OH277562   5.549   6.723   2.740 -0.0544 -0.6220 -0.2379
18716TIP3    H177563   5.490   6.657   2.776  0.7080 -1.1743  0.0257
18716TIP3    H277564   5.549   6.794   2.804 -1.3145 -0.1139 -0.7948
18717TIP3   OH277565   0.477   3.720  11.684  0.0294 -0.5936 -0.4155
18717TIP3    H177566   0.405   3.734  11.746  2.6066  2.6368  2.0586
18717TIP3    H277567   0.456   3.775  11.609 -0.2306  0.0843  0.1558
18718TIP3   OH277568   2.593   1.223  12.228 -0.4937  0.3312 -0.2701
18718TIP3    H177569   2.529   1.267  12.172 -1.2891  1.0217  1.1521
18718TIP3    H277570   2.555   1.228  12.316  1.1056 -0.0312  0.4544
18719TIP3   OH277571   2.032   1.254  11.519 -0.3914  0.0510  0.0837
18719TIP3    H177572   1.977   1.280  11.445 -0.4311  0.7771  0.3613
18719TIP3    H277573   2.030   1.158  11.518 -0.6100  0.0577 -0.6892
18720TIP3   OH277574   4.325   2.377  15.071 -0.5231 -0.6455 -0.2293
18720TIP3    H177575   4.242   2.423  15.082 -0.0203  0.5706 -1.4023
18720TIP3    H277576   4.304   2.285  15.088 -1.0289  0.2623  4.7700
18721TIP3   OH277577   5.889   6.444   3.142  0.0435  0.1234  0.2934
18721TIP3    H177578   5.972   6.437   3.096 -0.1570  0.3943 -0.1164
18721TIP3    H277579   5.823   6.426   3.074 -0.3269  2.1868  0.0810
18722TIP3   OH277580   3.924   6.278   0.447  0.5439  0.2934  0.2254
18722TIP3    H177581   3.980   6.283   0.369 -1.1717 -0.3153 -1.0821
18722TIP3    H277582   3.933   6.187   0.477 -0.6442 -0.1446 -0.6983
18723TIP3   OH277583   1.080   6.080   0.336  0.6708  0.2600  0.4531
18723TIP3    H177584   1.047   6.108   0.422 -0.1167  2.8430 -0.6530
18723TIP3    H277585   1.022   6.008   0.311 -0.3141  0.7565  1.2324
18724TIP3   OH277586   4.821   3.545   4.061  0.7771  0.1192 -0.0771
18724TIP3    H177587   4.877   3.489   4.006 -0.1940 -0.5823 -0.3602
18724TIP3    H277588   4.883   3.593   4.116  1.6886 -0.3362 -0.6806
18725TIP3   OH277589   6.375   1.610   6.992  0.3138 -0.0402  0.1622
18725TIP3    H177590   6.419   1.549   6.932  0.9228  0.3573  0.2004
18725TIP3    H277591   6.378   1.694   6.947 -0.6691 -0.0704  0.0442
18726TIP3   OH277592   3.601   6.729   2.612 -0.2387 -0.4087  0.3369
18726TIP3    H177593   3.543   6.690   2.547  0.0342 -1.1086  0.5085
18726TIP3    H277594   3.670   6.664   2.624  0.5127  0.3702  0.2243
18727TIP3   OH277595   0.971   0.404   4.938 -0.2819  0.4408  0.5809
18727TIP3    H177596   1.021   0.358   5.006  0.6828 -0.4329 -0.6756
18727TIP3    H277597   1.013   0.490   4.931  0.7962 -0.1246 -0.1446
18728TIP3   OH277598   2.858   5.187  13.148  0.1385 -0.1999 -0.3480
18728TIP3    H177599   2.806   5.107  13.144  1.4817 -1.1645  0.9267
18728TIP3    H277600   2.942   5.160  13.185  0.6863  1.7561 -0.0778
18729TIP3   OH277601   0.639   0.106  17.082 -0.1815  0.0093  0.2504
18729TIP3    H177602   0.641   0.044  17.155 -1.0556 -0.2340  0.0766
18729TIP3    H277603   0.549   0.139  17.080 -0.3605 -0.4967 -1.1282
18730TIP3   OH277604   3.160   2.568  17.093 -0.0891  0.1204 -0.2368
18730TIP3    H177605   3.222   2.634  17.125 -0.5190 -0.8754  2.8223
18730TIP3    H277606   3.108   2.614  17.027  0.0129  2.6724  1.3970
18731TIP3   OH277607   6.100   0.690   4.363  0.1452 -0.1121 -0.0778
18731TIP3    H177608   6.142   0.604   4.353  2.2360  0.7413  1.0111
18731TIP3    H277609   6.127   0.738   4.285  0.1071  0.0179 -0.0097
18732TIP3   OH277610   1.940   6.756   3.214  0.2738 -0.0234 -0.3275
18732TIP3    H177611   1.852   6.779   3.185 -0.8377 -1.8916  1.4292
18732TIP3    H277612   1.950   6.800   3.298  1.1274  0.3816 -0.6350
18733TIP3   OH277613   3.311   5.187  15.484 -0.2392  0.3560  0.0634
18733TIP3    H177614   3.315   5.150  15.396  1.6010 -0.4318  0.4596
18733TIP3    H277615   3.359   5.125  15.538  1.8486  2.6773  0.9600
18734TIP3   OH277616   3.685   1.959   1.262 -0.4979  0.0776 -0.1975
18734TIP3    H177617   3.661   2.051   1.265  0.8335  0.4185  0.6375
18734TIP3    H277618   3.762   1.956   1.204  0.6253 -0.2113  1.2703
18735TIP3   OH277619   5.487   3.354   6.793  0.2752  0.0289  0.3496
18735TIP3    H177620   5.416   3.302   6.832  1.4777 -1.9124  0.0319
18735TIP3    H277621   5.567   3.307   6.817  1.3047  0.9925 -1.1119
18736TIP3   OH277622   5.982   2.447   3.354  0.2600 -0.0509 -0.3398
18736TIP3    H177623   5.934   2.475   3.276  2.1202 -0.5571 -1.7132
18736TIP3    H277624   5.931   2.374   3.390 -2.2015  2.1148  0.6720
18737TIP3   OH277625   4.766   4.679  12.086 -0.3564  0.4369  0.3207
18737TIP3    H177626   4.860   4.690  12.097 -0.4978  0.0777  2.1852
18737TIP3    H277627   4.755   4.587  12.064 -0.3820  0.0572  1.8710
18738TIP3   OH277628   0.587   2.946   4.990 -0.0210  0.1018 -0.1676
18738TIP3    H177629   0.635   2.877   5.035 -0.4440 -0.3458 -0.4035
18738TIP3    H277630   0.655   3.000   4.950  0.3209 -0.0179  0.2452
18739TIP3   OH277631   0.861   2.232   3.136  0.4726  0.5275 -0.1593
18739TIP3    H177632   0.815   2.173   3.076 -0.2180  1.6449 -0.7259
18739TIP3    H277633   0.906   2.173   3.197  1.6786 -0.6392 -2.1099
18740TIP3   OH277634   3.404   0.413  12.910  0.3498 -0.3441  0.1867
18740TIP3    H177635   3.329   0.359  12.885  0.4464 -0.4099  0.0335
18740TIP3    H277636   3.472   0.390  12.846  0.0447  0.7336 -0.5334
18741TIP3   OH277637   2.318   2.057  11.207 -0.2358 -1.3327 -0.4062
18741TIP3    H177638   2.335   1.980  11.262 -1.5962 -1.3599  0.0157
18741TIP3    H277639   2.347   2.031  11.120  2.6037 -1.0284  0.4247
18742TIP3   OH277640   1.435   0.612  11.469  0.3605 -0.7459 -0.0591
18742TIP3    H177641   1.400   0.659  11.545 -0.8570 -0.8553 -0.5389
18742TIP3    H277642   1.512   0.662  11.443  0.1398 -0.0689  0.5680
18743TIP3   OH277643   5.094   1.073   1.531 -0.4750  0.5070  0.3586
18743TIP3    H177644   5.090   1.032   1.617  0.8002 -3.4827 -1.3464
18743TIP3    H277645   5.126   1.162   1.548 -1.3259  0.1705  4.0630
18744TIP3   OH277646   4.464   0.193   6.378  0.1039  0.3679  0.3079
18744TIP3    H177647   4.459   0.268   6.319  0.4106 -0.3635 -0.6477
18744TIP3    H277648   4.558   0.178   6.390  0.0437 -0.1398  0.1533
18745TIP3   OH277649   6.420   3.052  11.435  0.7110 -0.1427  0.0944
18745TIP3    H177650   6.457   2.967  11.461 -0.4410 -0.5566  0.4160
18745TIP3    H277651   6.389   3.037  11.345 -0.9788 -0.5568  0.7304
18746TIP3   OH277652   0.310   6.508   5.576  0.3128  0.1532  0.1137
18746TIP3    H177653   0.324   6.586   5.522 -0.3184  0.9156  1.0424
18746TIP3    H277654   0.321   6.538   5.666  1.7488 -1.1950  0.4290
18747TIP3   OH277655   0.575   3.082  14.209 -0.1073  0.3105  0.4915
18747TIP3    H177656   0.660   3.092  14.166  0.2118  0.0746  1.0587
18747TIP3    H277657   0.583   3.132  14.290 -0.2261 -0.3664  0.9273
18748TIP3   OH277658   2.977   1.638   2.880  0.3620 -0.4407 -0.1972
18748TIP3    H177659   2.898   1.660   2.831  0.3079  1.9629  0.8915
18748TIP3    H277660   3.049   1.660   2.821  0.2790  1.5426  0.4144
18749TIP3   OH277661   4.468   5.856   2.345 -0.3271 -0.2659  0.4300
18749TIP3    H177662   4.494   5.904   2.266  0.8229 -0.0141  0.9584
18749TIP3    H277663   4.423   5.921   2.399  0.4687  0.0033  0.7675
18750TIP3   OH277664   1.124   4.644  11.781  0.6380 -0.2672 -0.3497
18750TIP3    H177665   1.082   4.606  11.704 -0.7861  0.2126  0.1738
18750TIP3    H277666   1.160   4.727  11.751 -0.7824  0.3861 -0.2783
18751TIP3   OH277667   0.555   0.203   4.095  0.9796 -0.1139  0.3150
18751TIP3    H177668   0.606   0.129   4.127  0.7544 -0.5496 -0.3131
18751TIP3    H277669   0.474   0.200   4.146  0.6780 -0.7248 -0.1834
18752TIP3   OH277670   5.006   3.962  10.649 -0.3206  0.0192 -0.2243
18752TIP3    H177671   4.983   3.982  10.558  1.1372 -1.0483 -0.8558
18752TIP3    H277672   4.925   3.932  10.688 -0.6289 -1.0721 -1.6491
18753TIP3   OH277673   1.137   5.636  15.784  0.1656 -0.0602 -0.0912
18753TIP3    H177674   1.085   5.588  15.848  0.8519 -2.3690 -1.2274
18753TIP3    H277675   1.095   5.616  15.700  1.8433 -0.5125 -0.8289
18754TIP3   OH277676   3.510   1.776  11.750 -0.3159  0.0361  0.0145
18754TIP3    H177677   3.598   1.790  11.715 -0.9125  0.3828 -1.4241
18754TIP3    H277678   3.521   1.712  11.819  0.7523 -1.7465 -1.7541
18755TIP3   OH277679   4.991   1.401   2.229  0.3415 -0.6818 -0.6304
18755TIP3    H177680   4.971   1.311   2.252  0.2533 -0.3277  0.7104
18755TIP3    H277681   5.086   1.403   2.222  0.5743 -0.2680  2.0802
18756TIP3   OH277682   2.409   3.325  16.460 -0.6098  0.0597  0.5301
18756TIP3    H177683   2.460   3.394  16.418 -2.7506  0.3022 -1.8085
18756TIP3    H277684   2.463   3.295  16.532  1.6356  2.1544 -0.2342
18757TIP3   OH277685   1.772   4.232  14.709 -0.1123 -0.5177 -0.5262
18757TIP3    H177686   1.829   4.305  14.730 -1.3038  0.3508 -0.2714
18757TIP3    H277687   1.831   4.165  14.673  1.2815 -0.2583  1.2133
18758TIP3   OH277688   1.031   3.385   4.174 -0.5144  0.1756  0.7322
18758TIP3    H177689   1.058   3.326   4.244 -0.7571  0.2904  0.9237
18758TIP3    H277690   1.048   3.473   4.208 -0.9198  0.2404  0.7705
18759TIP3   OH277691   2.268   1.306  13.719  0.1489  0.5088  0.7027
18759TIP3    H177692   2.264   1.304  13.623  1.3364  0.4119  0.6386
18759TIP3    H277693   2.323   1.230  13.741  1.6102  1.7245  1.3300
18760TIP3   OH277694   6.254   5.562  11.536 -0.0023 -0.8036  0.1780
18760TIP3    H177695   6.160   5.544  11.528  0.0032 -0.3919 -0.9058
18760TIP3    H277696   6.285   5.498  11.600 -1.2167 -0.2437  1.3663
18761TIP3   OH277697   3.350   4.338   1.456  0.0331 -0.3599 -0.0548
18761TIP3    H177698   3.362   4.294   1.372 -0.3837 -1.1204  0.2765
18761TIP3    H277699   3.257   4.329   1.475  0.1098 -0.1194  0.4551
18762TIP3   OH277700   0.254   3.911   4.432  0.5412  0.0228 -0.3189
18762TIP3    H177701   0.219   3.873   4.512  0.1392  1.3399  0.1565
18762TIP3    H277702   0.216   3.859   4.362  1.7437 -1.8237  0.3657
18763TIP3   OH277703   3.727   1.162  13.374 -0.4441  0.1752  0.5511
18763TIP3    H177704   3.743   1.235  13.433  0.3137 -0.5831  1.2982
18763TIP3    H277705   3.655   1.191  13.318  0.7274  2.0093 -0.0366
18764TIP3   OH277706   2.299   2.006   0.639  0.1024 -0.3511 -0.0821
18764TIP3    H177707   2.257   1.934   0.685 -0.0995 -0.0701  0.1792
18764TIP3    H277708   2.273   2.084   0.688  2.0032 -0.2824  0.8526
18765TIP3   OH277709   0.784   0.406  17.104 -0.3377 -0.3817  0.2967
18765TIP3    H177710   0.855   0.467  17.124 -1.2976  0.9395 -0.2384
18765TIP3    H277711   0.828   0.325  17.079  0.9654  0.1971  0.6589
18766TIP3   OH277712   3.200   2.923  14.564  0.0107 -0.9577 -0.3245
18766TIP3    H177713   3.244   2.912  14.648 -0.8924  0.5934  0.3800
18766TIP3    H277714   3.158   3.009  14.570  0.0693 -0.7515 -2.4210
18767TIP3   OH277715   5.560   0.680  16.539  0.3970 -0.7035 -0.1021
18767TIP3    H177716   5.528   0.590  16.545 -1.7644  0.1300  1.8236
18767TIP3    H277717   5.622   0.689  16.610  0.4959 -0.6324 -0.1943
18768TIP3   OH277718   0.384   6.341  15.541 -0.6063 -0.2669 -0.0289
18768TIP3    H177719   0.308   6.360  15.486 -1.1837 -1.3617  0.3808
18768TIP3    H277720   0.359   6.372  15.628 -0.1113  0.4884 -0.1584
18769TIP3   OH277721   2.528   1.884   3.103  0.5290 -0.0532 -0.0345
18769TIP3    H177722   2.482   1.887   3.019 -0.5799 -2.7040  0.4237
18769TIP3    H277723   2.551   1.792   3.114  1.1242  0.3512  2.3392
18770TIP3   OH277724   6.082   0.142   3.187 -0.1385  0.5238  0.1466
18770TIP3    H177725   6.076   0.189   3.104 -0.2781  0.6337  0.2189
18770TIP3    H277726   6.097   0.051   3.162 -0.0547  0.5776  0.0030
18771TIP3   OH277727   2.325   5.118  15.969  0.2038 -0.0652 -0.5510
18771TIP3    H177728   2.323   5.153  15.880  0.6425 -0.2315 -0.6259
18771TIP3    H277729   2.353   5.191  16.023  2.3265 -0.5980 -0.8579
18772TIP3   OH277730   1.499   5.960   4.881 -0.5502 -0.1135  0.3741
18772TIP3    H177731   1.425   5.958   4.943 -1.1667  0.5470 -0.3349
18772TIP3    H277732   1.570   6.003   4.929 -0.8765 -0.0353  0.7875
18773TIP3   OH277733   4.176   2.075   1.263  0.6634  0.1874 -0.0155
18773TIP3    H177734   4.116   2.149   1.261 -0.9823 -1.0558  1.2075
18773TIP3    H277735   4.136   2.014   1.325  2.7538 -1.0667  0.1464
18774TIP3   OH277736   6.241   2.772  15.389  0.4750 -0.0367 -0.2061
18774TIP3    H177737   6.185   2.718  15.444 -0.1497 -0.2428 -1.0435
18774TIP3    H277738   6.259   2.718  15.312  0.8786  0.4696 -0.4709
18775TIP3   OH277739   2.884   6.766  16.970 -0.2639 -0.6870 -0.2830
18775TIP3    H177740   2.917   6.812  16.893  0.3982  0.3526  0.6160
18775TIP3    H277741   2.897   6.674  16.950  1.1093 -0.3786 -0.8756
18776TIP3   OH277742   0.772   3.697   5.592  0.0006  0.2141  0.1518
18776TIP3    H177743   0.733   3.779   5.563 -0.9236 -0.1269  0.4038
18776TIP3    H277744   0.701   3.633   5.583  1.0372 -0.7744 -1.0829
18777TIP3   OH277745   4.118   4.636   4.694  0.2571  0.0557  0.1752
18777TIP3    H177746   4.086   4.641   4.785  0.2799 -1.0555  0.2442
18777TIP3    H277747   4.110   4.726   4.662 -0.2650  0.3547  1.1036
18778TIP3   OH277748   6.610   4.950  11.478 -0.6473  0.5214 -0.2231
18778TIP3    H177749   6.659   4.877  11.515 -1.1389  0.4906  0.3552
18778TIP3    H277750   6.546   4.910  11.420 -0.6544  0.5170 -0.2128
18779TIP3   OH277751   1.978   3.437  12.156 -0.1169  0.0276 -0.0189
18779TIP3    H177752   1.931   3.401  12.231 -2.1520  2.7523  0.0532
18779TIP3    H277753   2.014   3.519  12.187  0.4683  0.3615 -1.5488
18780TIP3   OH277754   2.430   1.987  17.183 -0.5494 -0.1477 -0.2751
18780TIP3    H177755   2.507   2.029  17.144  0.9308  0.0503  2.6780
18780TIP3    H277756   2.387   2.058  17.231 -2.6184 -0.2622 -1.9175
18781TIP3   OH277757   3.072   6.014  16.205 -0.1353  0.2926  0.9870
18781TIP3    H177758   3.167   6.008  16.196 -0.4362 -2.0987 -1.3087
18781TIP3    H277759   3.038   5.985  16.120 -2.9152  0.6061  1.9489
18782TIP3   OH277760   2.069   3.100   5.540 -0.2502 -0.3020 -0.2462
18782TIP3    H177761   2.150   3.144   5.513 -0.6132  1.2258  1.0518
18782TIP3    H277762   2.096   3.010   5.559  0.7234 -0.3870 -1.8783
18783TIP3   OH277763   6.057   4.919   0.382 -0.5198 -0.0420 -0.6879
18783TIP3    H177764   6.076   4.885   0.470 -0.9303  1.6930  0.0908
18783TIP3    H277765   6.000   4.852   0.343 -1.1874 -0.3445  0.7564
18784TIP3   OH277766   1.664   1.598  13.462  0.5068  0.3648 -0.4578
18784TIP3    H177767   1.661   1.513  13.506  0.0958  0.2431 -0.7207
18784TIP3    H277768   1.653   1.662  13.533  0.5142  0.1904 -0.2980
18785TIP3   OH277769   0.517   3.881  12.033  0.1867 -0.6836  0.1674
18785TIP3    H177770   0.578   3.928  11.977  0.0407 -1.8728 -1.0262
18785TIP3    H277771   0.566   3.804  12.062 -0.3666 -1.0662  0.0965
18786TIP3   OH277772   3.122   4.989   4.042 -0.2927 -0.5923 -0.0844
18786TIP3    H177773   3.178   5.039   4.101 -1.4892 -0.0025  0.5778
18786TIP3    H277774   3.119   4.901   4.081  0.4091 -0.7151 -0.2974
18787TIP3   OH277775   5.388   5.428  11.123 -0.1765  0.4908 -0.2711
18787TIP3    H177776   5.413   5.512  11.161  1.4339 -0.2460  0.3043
18787TIP3    H277777   5.379   5.447  11.029  1.5419  1.0143 -0.3531
18788TIP3   OH277778   4.922   2.987   4.843  0.4294 -0.1579 -0.5674
18788TIP3    H177779   4.958   2.907   4.880  1.3703 -0.1878 -1.5566
18788TIP3    H277780   4.984   3.013   4.775 -0.1325  1.1254 -0.6054
18789TIP3   OH277781   0.497   2.589   1.668 -0.2608 -0.2810  0.3594
18789TIP3    H177782   0.488   2.568   1.761  0.5097  2.2193  1.0542
18789TIP3    H277783   0.456   2.675   1.659 -1.0862 -0.8806 -1.7994
18790TIP3   OH277784   3.691   6.429  13.568 -0.2369  0.0482 -0.5320
18790TIP3    H177785   3.698   6.369  13.494 -0.0579  0.9878 -1.2806
18790TIP3    H277786   3.608   6.407  13.609  1.3371 -3.0060  1.2130
18791TIP3   OH277787   0.346   3.611  12.976 -0.0197 -1.0721 -0.1055
18791TIP3    H177788   0.332   3.656  13.059  0.1382  0.2055 -0.7619
18791TIP3    H277789   0.259   3.580  12.951 -0.5794  1.0803 -0.8912
18792TIP3   OH277790   2.807   1.053  15.913  0.5319 -0.0262 -0.3222
18792TIP3    H177791   2.813   1.051  16.009 -0.2505  1.9788 -0.2119
18792TIP3    H277792   2.876   1.113  15.886 -0.5250  0.9446 -0.8844
18793TIP3   OH277793   1.732   4.322   2.855 -0.3819 -0.5352 -0.2112
18793TIP3    H177794   1.807   4.290   2.805 -1.2924 -1.5737 -0.9053
18793TIP3    H277795   1.657   4.274   2.821 -1.7571  2.1912 -1.1598
18794TIP3   OH277796   4.771   0.105  13.268  0.0072  0.4352 -0.2669
18794TIP3    H177797   4.704   0.120  13.335  0.4645  0.7078  0.1343
18794TIP3    H277798   4.781   0.189  13.224  1.3502  0.8816  0.8522
18795TIP3   OH277799   3.848   0.846  14.260 -0.2928 -0.0660  0.1138
18795TIP3    H177800   3.844   0.812  14.349  1.2220 -1.5140 -0.3462
18795TIP3    H277801   3.929   0.897  14.257 -1.6638  2.2393  0.2894
18796TIP3   OH277802   3.819   0.530  16.501 -1.3860 -0.2162  0.4651
18796TIP3    H177803   3.875   0.607  16.508  0.8016 -1.7869  0.7029
18796TIP3    H277804   3.796   0.525  16.408 -0.1864 -0.2183  0.1680
18797TIP3   OH277805   1.674   0.153   5.791 -0.0645 -0.1946  0.6102
18797TIP3    H177806   1.629   0.069   5.799  1.1186 -0.7850  1.2588
18797TIP3    H277807   1.608   0.218   5.816 -1.2374 -0.8548 -0.7287
18798TIP3   OH277808   4.819   1.839   2.908  0.0864 -0.4190  0.0348
18798TIP3    H177809   4.743   1.808   2.859  1.2715 -0.5705 -1.7501
18798TIP3    H277810   4.879   1.763   2.910  0.7662  0.1177  0.2160
18799TIP3   OH277811   3.447   2.142  11.295  0.1126 -0.2091 -0.3316
18799TIP3    H177812   3.402   2.223  11.320 -0.2759 -0.4577 -0.2271
18799TIP3    H277813   3.400   2.073  11.342  0.3769 -0.5083 -0.5072
18800TIP3   OH277814   6.188   6.598  10.975 -0.5134 -0.7310  0.1814
18800TIP3    H177815   6.262   6.547  11.010 -0.7246 -1.4261 -0.3872
18800TIP3    H277816   6.227   6.653  10.907 -0.0332  0.8807  1.7098
18801TIP3   OH277817   5.204   5.355  11.439 -0.4963 -0.0726  0.5812
18801TIP3    H177818   5.250   5.282  11.480 -0.3708 -0.2442  0.1405
18801TIP3    H277819   5.267   5.427  11.438 -0.7916  0.1985  1.4814
18802TIP3   OH277820   4.138   6.698  12.649 -0.1211 -0.7713  0.0295
18802TIP3    H177821   4.213   6.738  12.694 -0.5528  1.2951 -1.0605
18802TIP3    H277822   4.097   6.642  12.716  0.4400  0.6489  1.5936
18803TIP3   OH277823   6.637   1.446  11.237  0.6504  0.1803  0.4708
18803TIP3    H177824   6.716   1.409  11.197  1.5601  1.1593  1.3222
18803TIP3    H277825   6.568   1.430  11.173  1.4727 -0.9820 -0.1448
18804TIP3   OH277826   0.592   2.392  13.809 -0.0493  0.3505  0.2735
18804TIP3    H177827   0.552   2.472  13.842 -1.5385 -0.2511  0.0016
18804TIP3    H277828   0.609   2.410  13.716 -0.6306  0.2656  0.1489
18805TIP3   OH277829   1.672   2.334  16.755  0.3699  0.4137  0.3044
18805TIP3    H177830   1.747   2.358  16.809  0.0807 -0.1970  0.9810
18805TIP3    H277831   1.605   2.307  16.817 -0.0552 -0.0508 -0.3498
18806TIP3   OH277832   2.419   5.327  16.127  0.5336 -0.3294 -0.1093
18806TIP3    H177833   2.360   5.369  16.190 -0.3629 -0.5702 -0.7859
18806TIP3    H277834   2.484   5.395  16.107  1.8482 -0.7934  2.3762
18807TIP3   OH277835   5.536   5.700   6.125  0.4704 -0.2372 -0.0104
18807TIP3    H177836   5.491   5.785   6.125  0.4862 -0.2286  1.3095
18807TIP3    H277837   5.601   5.706   6.195  1.5439 -0.7865 -0.9372
18808TIP3   OH277838   2.958   4.079   2.555  0.5300 -0.5766  0.7451
18808TIP3    H177839   3.027   4.074   2.621  0.6604 -0.1213  0.6454
18808TIP3    H277840   2.889   4.130   2.595  0.3547 -0.8179  0.7513
18809TIP3   OH277841   1.048   6.564   3.785 -0.1496  0.2947  0.5502
18809TIP3    H177842   0.953   6.557   3.788 -0.1494 -0.4462 -0.7233
18809TIP3    H277843   1.079   6.476   3.763  0.7496  0.7669 -0.1501
18810TIP3   OH277844   4.550   0.737  16.449 -0.4172  0.5543 -0.1027
18810TIP3    H177845   4.527   0.750  16.541 -1.3749 -0.2958 -0.2204
18810TIP3    H277846   4.642   0.766  16.443  0.4146 -1.5882  1.6172
18811TIP3   OH277847   0.230   4.836  14.964  0.5874 -0.0618  0.5217
18811TIP3    H177848   0.230   4.905  15.030  1.1730 -0.6393  1.1382
18811TIP3    H277849   0.192   4.876  14.887  1.4066  1.0961  0.7197
18812TIP3   OH277850   3.474   6.167  11.541 -0.1290  0.5576 -0.1568
18812TIP3    H177851   3.565   6.174  11.567 -0.6083  0.5980  1.5847
18812TIP3    H277852   3.450   6.256  11.515  0.7511  0.2340 -2.1989
18813TIP3   OH277853   1.231   0.286  14.337  0.5490 -0.2125 -0.2841
18813TIP3    H177854   1.296   0.231  14.293  1.7204 -0.3884  1.6062
18813TIP3    H277855   1.182   0.225  14.393  0.7508  0.4014  0.5674
18814TIP3   OH277856   6.693   6.467   5.204 -0.1889  0.2899  0.0587
18814TIP3    H177857   6.750   6.468   5.127 -1.3459  1.0789 -0.7882
18814TIP3    H277858   6.631   6.538   5.190 -2.6926 -1.8334 -0.0028
18815TIP3   OH277859   6.565   4.149  12.819  0.1695  0.5598  0.4275
18815TIP3    H177860   6.476   4.152  12.784 -0.6720  1.3059  2.5092
18815TIP3    H277861   6.620   4.130  12.743 -1.8127 -0.5496 -0.7901
18816TIP3   OH277862   6.447   5.650  15.248 -0.3805 -0.5140 -0.3163
18816TIP3    H177863   6.519   5.689  15.297 -1.2081  0.3224  0.2718
18816TIP3    H277864   6.436   5.707  15.172 -0.8431 -0.2362 -0.0530
18817TIP3   OH277865   3.891   6.569   4.949  0.2095 -0.0729 -0.8003
18817TIP3    H177866   3.848   6.585   5.033  0.6738 -0.1861 -0.5398
18817TIP3    H277867   3.983   6.554   4.972  0.2253 -0.7126 -1.2721
18818TIP3   OH277868   3.765   3.153  13.460 -0.2496 -0.9411 -0.9910
18818TIP3    H177869   3.733   3.120  13.544  3.3107  0.7894  1.1832
18818TIP3    H277870   3.838   3.095  13.438  1.0868  0.7460 -1.0875
18819TIP3   OH277871   0.560   4.179  13.368  0.2115  0.0843 -0.0462
18819TIP3    H177872   0.505   4.104  13.390 -2.4394  1.7463 -0.8247
18819TIP3    H277873   0.522   4.215  13.288  3.3403  0.4267 -1.4511
18820TIP3   OH277874   0.193   2.819  17.057  0.4436  0.3263 -0.3689
18820TIP3    H177875   0.224   2.899  17.100  0.0051  1.3575 -1.9377
18820TIP3    H277876   0.125   2.849  16.997 -2.9516 -1.7241  2.2280
18821TIP3   OH277877   1.340   0.483  14.094 -0.0384  0.0622  0.0843
18821TIP3    H177878   1.383   0.483  14.008 -1.4015  0.7408 -0.6113
18821TIP3    H277879   1.389   0.547  14.145  0.7557 -0.3122 -0.1951
18822TIP3   OH277880   5.349   5.556  10.869  0.0875 -0.3315 -0.1229
18822TIP3    H177881   5.286   5.627  10.861  1.4010  0.8291 -0.4652
18822TIP3    H277882   5.404   5.563  10.791  0.7724 -1.1927  0.2574
18823TIP3   OH277883   5.685   6.292  10.556 -0.0454 -0.1637  0.1062
18823TIP3    H177884   5.628   6.244  10.616 -2.8358  1.4620 -1.1433
18823TIP3    H277885   5.640   6.288  10.472 -0.1893  4.1707 -0.1613
18824TIP3   OH277886   3.704   1.359   6.016  0.4357  0.4029 -0.1578
18824TIP3    H177887   3.797   1.355   5.995  0.5208 -2.8445  0.5995
18824TIP3    H277888   3.699   1.404   6.100  1.2728  0.7992 -0.3198
18825TIP3   OH277889   0.928   5.358   5.424 -0.5068 -0.6357  0.2526
18825TIP3    H177890   0.981   5.429   5.389  1.7348 -2.1156  0.5633
18825TIP3    H277891   0.943   5.360   5.518 -1.8852 -0.4054  0.4903
18826TIP3   OH277892   0.891   5.575  16.917  0.0816  0.0915 -0.3716
18826TIP3    H177893   0.929   5.649  16.964 -0.0862 -0.4388  0.6332
18826TIP3    H277894   0.965   5.533  16.873  0.4287 -0.0644  0.3506
18827TIP3   OH277895   2.177   2.923  13.674 -0.2659 -0.7930 -0.6941
18827TIP3    H177896   2.248   2.967  13.722 -0.1202 -1.7053 -0.0614
18827TIP3    H277897   2.202   2.830  13.675 -1.5378 -1.1337 -0.3406
18828TIP3   OH277898   0.034   0.833  13.459 -0.2817 -0.6256  0.2908
18828TIP3    H177899   0.019   0.890  13.384  1.9864  1.6340  1.4842
18828TIP3    H277900   0.126   0.807  13.452 -0.7690 -2.6407  0.8226
18829TIP3   OH277901   3.454   6.510   0.469  0.2313  0.5237 -0.2304
18829TIP3    H177902   3.458   6.554   0.554 -0.2072  3.1129 -1.5066
18829TIP3    H277903   3.368   6.467   0.469  0.8366 -0.7507  1.1927
18830TIP3   OH277904   5.590   6.067   0.188 -0.0484  0.5018 -0.0323
18830TIP3    H177905   5.599   6.024   0.273  0.8189  1.1075  0.1830
18830TIP3    H277906   5.519   6.130   0.200 -1.0213 -0.5287 -0.2214
18831TIP3   OH277907   2.062   1.074   3.638 -0.4607 -0.3194 -0.4010
18831TIP3    H177908   2.082   0.982   3.657  1.3519  0.2239  0.4841
18831TIP3    H277909   2.111   1.123   3.704  0.1244  1.3482 -2.0125
18832TIP3   OH277910   2.986   3.431  15.262  0.1390 -0.1031  0.3230
18832TIP3    H177911   2.941   3.466  15.339 -1.8253 -1.0399 -0.3655
18832TIP3    H277912   2.956   3.340  15.257  1.9361 -0.6722 -0.3064
18833TIP3   OH277913   3.047   1.666   4.101 -0.1168  0.0525  0.1171
18833TIP3    H177914   3.049   1.726   4.175 -1.6264  0.2561  0.0122
18833TIP3    H277915   3.111   1.598   4.123 -0.4802  0.1668  1.5509
18834TIP3   OH277916   4.286   3.985   5.707 -0.1105 -0.3375  0.0486
18834TIP3    H177917   4.280   4.081   5.706 -0.8144 -0.3652  0.8843
18834TIP3    H277918   4.232   3.959   5.781 -0.0222 -1.3947 -0.2565
18835TIP3   OH277919   6.677   4.887  11.853  0.0042  0.6739 -0.0015
18835TIP3    H177920   6.700   4.808  11.902  1.1390  0.5590 -0.6876
18835TIP3    H277921   6.595   4.917  11.892 -0.7851 -1.2037 -0.1702
18836TIP3   OH277922   4.789   5.248  16.789  0.3954  0.5877 -0.1387
18836TIP3    H177923   4.750   5.182  16.845  1.3422 -0.7095 -0.9847
18836TIP3    H277924   4.803   5.323  16.846 -2.1527  0.6498  0.4782
18837TIP3   OH277925   0.652   1.936   1.280  0.5176  0.2909  0.5755
18837TIP3    H177926   0.583   1.870   1.272  0.2704  0.3479  2.0570
18837TIP3    H277927   0.608   2.013   1.314  1.3699  0.1758  2.0188
18838TIP3   OH277928   0.514   5.804  13.043 -0.7741 -0.1724 -0.0072
18838TIP3    H177929   0.560   5.887  13.061  0.2680 -0.9470  1.0231
18838TIP3    H277930   0.585   5.740  13.031 -1.4329 -0.0620 -5.4213
18839TIP3   OH277931   6.241   0.497  12.055 -0.2437 -0.1759  0.4267
18839TIP3    H177932   6.323   0.539  12.080  1.1789 -3.2914  1.2772
18839TIP3    H277933   6.266   0.439  11.983 -1.5877 -1.6093  1.0966
18840TIP3   OH277934   1.584   0.166  11.414 -0.3339  0.2457 -0.2186
18840TIP3    H177935   1.661   0.159  11.470  0.1727 -0.5264 -1.0054
18840TIP3    H277936   1.617   0.156  11.325 -1.7299 -3.2183 -0.4062
18841TIP3   OH277937   4.431   2.536   5.780  0.7519 -0.4249 -0.9159
18841TIP3    H177938   4.445   2.487   5.861  0.1929 -1.1158 -1.2360
18841TIP3    H277939   4.353   2.497   5.741 -0.5054  1.6137 -0.5027
18842TIP3   OH277940   6.258   3.011   2.990  0.0012  0.3956 -0.0744
18842TIP3    H177941   6.230   3.061   3.067 -0.9151  0.1636 -0.2511
18842TIP3    H277942   6.331   3.061   2.954 -1.1672  1.8734 -0.4909
18843TIP3   OH277943   0.868   6.230   2.278 -0.2758  0.2512 -0.1771
18843TIP3    H177944   0.854   6.282   2.357 -0.1600  0.2401 -0.1497
18843TIP3    H277945   0.869   6.294   2.207 -0.1994  0.2787 -0.1507
18844TIP3   OH277946   5.597   4.664  10.271 -0.7406  0.3376 -0.4172
18844TIP3    H177947   5.531   4.644  10.204 -0.5880  2.9182 -1.4069
18844TIP3    H277948   5.580   4.755  10.295 -0.0005 -0.1746  2.2015
18845TIP3   OH277949   1.195   3.426   3.311  0.3486  0.3606  0.0362
18845TIP3    H177950   1.217   3.333   3.314  0.4887  0.3770 -0.4652
18845TIP3    H277951   1.167   3.441   3.221  1.3351  1.0290 -0.1692
18846TIP3   OH277952   5.103   3.347   2.971  0.1684 -0.5373 -0.1481
18846TIP3    H177953   5.144   3.410   2.912  0.0936 -0.8749 -0.5627
18846TIP3    H277954   5.130   3.261   2.937  0.3161 -0.7280  0.4424
18847TIP3   OH277955   6.670   0.827  15.492  0.3225  0.1048 -0.0083
18847TIP3    H177956   6.676   0.832  15.396  2.7910  2.2818  0.1885
18847TIP3    H277957   6.576   0.823  15.510 -0.1741 -0.4911 -2.5151
18848TIP3   OH277958   0.043   0.979   2.870  0.3037  0.2128  0.2338
18848TIP3    H177959  -0.019   0.959   2.939  1.3948  0.5322  1.3261
18848TIP3    H277960   0.010   1.060   2.829 -0.2634  0.0971  0.4707
18849TIP3   OH277961   5.382   5.627   1.103  0.0619 -0.1147 -0.0921
18849TIP3    H177962   5.324   5.649   1.031 -0.2573 -0.8793 -0.0729
18849TIP3    H277963   5.458   5.683   1.091  0.0279 -0.2745 -1.0456
18850TIP3   OH277964   3.910   4.906  15.642  0.2655  0.2387  0.1025
18850TIP3    H177965   3.950   4.984  15.683  0.4852 -0.5975  1.5254
18850TIP3    H277966   3.840   4.881  15.702 -0.1336 -0.3709 -0.6101
18851TIP3   OH277967   2.180   3.893   0.731 -0.4260  0.0427  0.2564
18851TIP3    H177968   2.121   3.860   0.799 -0.8061  2.3817  1.0870
18851TIP3    H277969   2.138   3.972   0.698  0.0564 -0.7027 -2.3130
18852TIP3   OH277970   3.701   3.799   5.912  0.0912 -0.7082 -0.0985
18852TIP3    H177971   3.621   3.751   5.892 -1.0055  1.3327 -0.7223
18852TIP3    H277972   3.688   3.833   6.000  0.1018 -0.0011 -0.3713
18853TIP3   OH277973   3.040   5.495   4.564  0.2207 -0.8585  0.2176
18853TIP3    H177974   2.985   5.437   4.616 -1.5695  2.7391  2.5643
18853TIP3    H277975   3.106   5.528   4.625 -0.8406  2.0704 -0.1128
18854TIP3   OH277976   0.096   6.212   4.096 -0.0851 -0.4820 -0.1558
18854TIP3    H177977   0.007   6.218   4.131 -0.2983 -0.1621 -0.7523
18854TIP3    H277978   0.110   6.294   4.050  0.4313 -0.6340 -0.2749
18855TIP3   OH277979   2.237   0.082   2.857  0.0327 -0.3810  0.0560
18855TIP3    H177980   2.238  -0.013   2.849  0.2865 -0.2294 -1.7743
18855TIP3    H277981   2.327   0.106   2.880 -0.2941 -0.6556  1.7332
18856TIP3   OH277982   1.543   6.235   3.933 -0.3090 -0.2932 -0.3167
18856TIP3    H177983   1.543   6.162   3.871  0.5201 -1.0907  0.6130
18856TIP3    H277984   1.452   6.241   3.963 -0.5831 -0.3015 -1.1274
18857TIP3   OH277985   0.256   4.480  15.117 -0.6276  0.3196  0.3611
18857TIP3    H177986   0.302   4.564  15.122  2.1705 -1.0369 -1.3908
18857TIP3    H277987   0.307   4.422  15.172 -1.3693 -0.7327 -0.0535
18858TIP3   OH277988   5.887   5.575   2.645  0.2722 -0.0904  0.2424
18858TIP3    H177989   5.831   5.614   2.712  0.8892 -0.8055  1.1995
18858TIP3    H277990   5.893   5.482   2.669  0.7865 -0.2856 -0.6050
18859TIP3   OH277991   6.744   0.347   3.375 -0.4564 -0.0885 -0.0843
18859TIP3    H177992   6.691   0.375   3.300  0.6980 -1.2222 -1.3747
18859TIP3    H277993   6.748   0.252   3.366  1.2659 -0.0715  0.3320
18860TIP3   OH277994   4.210   3.007   4.674  0.8860 -0.1162  0.3966
18860TIP3    H177995   4.171   2.920   4.660  2.0183 -0.6437  0.5084
18860TIP3    H277996   4.159   3.044   4.746  0.1531 -0.5341  0.1084
18861TIP3   OH277997   2.291   1.202   4.047 -0.5045 -0.2300  0.1312
18861TIP3    H177998   2.357   1.136   4.028  0.2057  0.9326 -1.5857
18861TIP3    H277999   2.310   1.230   4.136  0.1042 -1.2878  0.3407
18862TIP3   OH278000   2.199   2.264  14.870 -0.0890 -0.5939  0.4278
18862TIP3    H178001   2.236   2.183  14.835  0.0884 -1.3860  2.3936
18862TIP3    H278002   2.106   2.243  14.883 -0.6666  0.4722 -1.8048
18863TIP3   OH278003   4.363   6.041   0.908 -0.4602  0.3843 -0.2558
18863TIP3    H178004   4.406   5.990   0.839  0.9457 -0.1154  0.9858
18863TIP3    H278005   4.435   6.077   0.960 -1.5407 -0.4774  1.8684
18864TIP3   OH278006   4.195   5.037   3.122 -0.2183  0.0650 -0.5230
18864TIP3    H178007   4.183   4.998   3.035 -1.1619  0.2674 -0.4881
18864TIP3    H278008   4.107   5.038   3.160  0.1277  0.3591  0.2737
18865TIP3   OH278009   1.094   0.479   4.132  0.2233 -0.2859 -0.1671
18865TIP3    H178010   1.181   0.439   4.131  0.6495  0.6373 -0.2637
18865TIP3    H278011   1.099   0.546   4.200 -0.2103  0.2198 -0.6314
18866TIP3   OH278012   3.098   3.910   4.864  0.3921  0.2076  0.6034
18866TIP3    H178013   3.044   3.832   4.875 -0.7426  0.6652 -1.4704
18866TIP3    H278014   3.185   3.876   4.841  0.2460 -0.4567  1.0093
18867TIP3   OH278015   2.197   0.337   2.634  0.4597 -0.0767 -0.5169
18867TIP3    H178016   2.145   0.291   2.700  0.1709 -0.4722 -1.0250
18867TIP3    H278017   2.134   0.361   2.566  0.5658  1.2481 -0.1670
18868TIP3   OH278018   0.726   5.699  10.673 -0.1701 -0.1334 -0.1897
18868TIP3    H178019   0.708   5.792  10.656  1.0180  0.0209 -0.6201
18868TIP3    H278020   0.820   5.689  10.656 -0.3612 -1.4953 -0.4821
18869TIP3   OH278021   0.761   3.557  14.754 -0.2722 -0.3461  0.1789
18869TIP3    H178022   0.758   3.610  14.833 -1.1751 -1.1885  0.7239
18869TIP3    H278023   0.762   3.620  14.682  0.1509  0.4137  0.8552
18870TIP3   OH278024   5.677   4.941  17.203  0.2554 -0.8248 -0.2200
18870TIP3    H178025   5.676   4.850  17.173 -0.2045 -1.4463  1.6128
18870TIP3    H278026   5.766   4.971  17.187  0.5401 -1.7481 -0.4012
18871TIP3   OH278027   6.176   6.028   6.301 -0.0122  0.0627 -0.4246
18871TIP3    H178028   6.257   5.981   6.277  0.0144  0.6962 -1.6257
18871TIP3    H278029   6.156   5.997   6.390  0.6026 -1.3988 -0.7690
18872TIP3   OH278030   5.622   5.777   1.116 -0.5021  0.4318 -0.3016
18872TIP3    H178031   5.702   5.736   1.084  0.3559  0.9231  1.1514
18872TIP3    H278032   5.602   5.731   1.197 -0.6790  1.4891  0.2689
18873TIP3   OH278033   5.362   0.442  14.941  0.0103  0.3710  0.1691
18873TIP3    H178034   5.313   0.398  14.871 -0.4672  2.2789 -0.7234
18873TIP3    H278035   5.450   0.403  14.937 -0.4929 -0.7159 -0.3954
18874TIP3   OH278036   6.587   0.185  12.949 -0.5374 -0.4992  0.1769
18874TIP3    H178037   6.552   0.210  13.034  2.6396  1.4341  1.0176
18874TIP3    H278038   6.648   0.113  12.968  0.9411  0.6011 -0.2638
18875TIP3   OH278039   3.914   0.395  11.320  0.2257 -0.3220 -0.0432
18875TIP3    H178040   3.996   0.350  11.303  0.3772  0.0778 -0.3646
18875TIP3    H278041   3.852   0.325  11.340  1.1793 -0.4971  2.4434
18876TIP3   OH278042   5.739   0.312  17.229 -0.5491  0.1018 -0.5353
18876TIP3    H178043   5.727   0.328  17.322  1.2154  0.5838 -0.3671
18876TIP3    H278044   5.697   0.227  17.213 -0.6735 -0.0777  0.7421
18877TIP3   OH278045   3.505   4.214  10.730 -0.1146 -0.2381 -0.0241
18877TIP3    H178046   3.482   4.124  10.752  0.7794 -0.9072 -1.6876
18877TIP3    H278047   3.588   4.206  10.682 -1.0079  1.2682 -1.8897
18878TIP3   OH278048   4.900   5.773   6.016 -0.1734  0.4388  0.0514
18878TIP3    H178049   4.959   5.715   5.969  0.0175  1.0792 -0.5007
18878TIP3    H278050   4.821   5.776   5.962 -0.8081 -0.5824  0.8864
18879TIP3   OH278051   0.807   3.819   2.410  0.1157 -0.2428  0.5103
18879TIP3    H178052   0.873   3.855   2.469  0.7435 -0.7229  0.1129
18879TIP3    H278053   0.820   3.725   2.414  0.9966 -0.2242 -1.3229
18880TIP3   OH278054   0.257   0.801  12.031  0.4169 -0.4086 -0.1855
18880TIP3    H178055   0.313   0.873  12.001 -0.9819  0.0603 -1.7313
18880TIP3    H278056   0.187   0.796  11.966  0.0942 -2.7116  0.3050
18881TIP3   OH278057   1.374   1.973  12.558  0.1789  0.3407 -0.5231
18881TIP3    H178058   1.453   2.018  12.586  0.3540  0.0308 -0.5115
18881TIP3    H278059   1.312   2.043  12.536  0.2175  0.5849  0.1404
18882TIP3   OH278060   0.220   3.799  11.213  0.3278 -0.5820  0.4466
18882TIP3    H178061   0.223   3.704  11.224 -2.7046 -1.0616 -2.3268
18882TIP3    H278062   0.311   3.823  11.193  0.6470 -3.2717 -1.6342
18883TIP3   OH278063   6.180   3.629   4.333  0.3349  0.0295  0.1596
18883TIP3    H178064   6.094   3.600   4.363 -1.1920  4.6414  0.5959
18883TIP3    H278065   6.170   3.639   4.238 -1.1044  4.8062  0.7012
18884TIP3   OH278066   4.119   4.128  17.020 -0.1788  0.3143  0.0814
18884TIP3    H178067   4.066   4.154  17.096 -3.6306  1.2604 -2.5394
18884TIP3    H278068   4.123   4.206  16.965 -1.5361 -1.5546 -2.7993
18885TIP3   OH278069   2.514   3.568   0.080 -0.6602 -0.6169 -0.4353
18885TIP3    H178070   2.464   3.610   0.150  0.2760 -0.8893  0.4141
18885TIP3    H278071   2.596   3.617   0.077 -0.3921 -1.0885 -0.8231
18886TIP3   OH278072   3.860   6.669  11.348  0.0385  0.6398 -0.0513
18886TIP3    H178073   3.832   6.761  11.345  1.4492  1.0571 -0.7638
18886TIP3    H278074   3.804   6.625  11.284  0.4438  1.3231 -0.8934
18887TIP3   OH278075   6.329   2.803  15.832  0.2078 -0.1479 -0.3094
18887TIP3    H178076   6.311   2.878  15.776 -2.4939 -0.0241  0.6100
18887TIP3    H278077   6.404   2.829  15.885 -0.7265  1.9773  0.0340
18888TIP3   OH278078   6.554   1.198   3.587 -0.0939 -0.0199 -0.1802
18888TIP3    H178079   6.602   1.116   3.592 -0.3540 -0.1680 -0.1077
18888TIP3    H278080   6.471   1.180   3.631 -1.1708 -0.4533 -2.3333
18889TIP3   OH278081   5.913   6.422  14.456  0.4022  0.5261  0.0218
18889TIP3    H178082   5.995   6.461  14.487  0.1493  1.3220 -0.3134
18889TIP3    H278083   5.844   6.469  14.503  0.2306 -2.2690  2.6913
18890TIP3   OH278084   2.297   4.947   3.738 -0.6310 -0.2773  0.0799
18890TIP3    H178085   2.289   5.042   3.727  1.7754  0.0802  1.0831
18890TIP3    H278086   2.324   4.936   3.829 -0.1569 -1.9060 -0.2477
18891TIP3   OH278087   2.751   1.275  15.228 -0.6445 -0.0268  0.5096
18891TIP3    H178088   2.696   1.341  15.185 -0.7956 -1.0096 -0.8497
18891TIP3    H278089   2.689   1.220  15.276 -0.7553 -0.5186 -0.1875
18892TIP3   OH278090   1.221   4.389  14.476 -0.1021  0.2004 -0.1339
18892TIP3    H178091   1.269   4.337  14.411 -3.1835 -0.4139 -2.0005
18892TIP3    H278092   1.267   4.373  14.558  1.7897 -1.7854 -1.5368
18893TIP3   OH278093   3.129   3.373   5.695 -0.5023  0.5185 -0.0688
18893TIP3    H178094   3.039   3.405   5.685 -0.4413  0.2646 -1.4781
18893TIP3    H278095   3.183   3.446   5.665 -0.1841  1.0632  1.7556
18894TIP3   OH278096   0.723   4.265   6.425  0.4662 -0.2407 -0.5784
18894TIP3    H178097   0.787   4.219   6.479  1.3833  1.4605 -0.1917
18894TIP3    H278098   0.760   4.353   6.413 -3.3084  1.9038  2.4526
18895TIP3   OH278099   0.287   6.747   2.415  0.2256 -0.3958 -0.3628
18895TIP3    H178100   0.282   6.659   2.378 -1.6774 -0.6743  0.4683
18895TIP3    H278101   0.265   6.735   2.508  0.9639  0.8233 -0.0168
18896TIP3   OH278102   3.974   1.099  13.271 -0.7632  0.9331 -0.5853
18896TIP3    H178103   3.890   1.078  13.311  0.0803  0.1973  0.8412
18896TIP3    H278104   3.957   1.177  13.218 -2.3540  0.7286 -0.3899
18897TIP3   OH278105   1.114   1.193   0.219 -0.6925  0.1582 -0.3092
18897TIP3    H178106   1.137   1.200   0.126 -1.3364 -0.7444 -0.5472
18897TIP3    H278107   1.025   1.229   0.224 -0.7061  0.0868 -0.0678
18898TIP3   OH278108   3.544   2.423  15.904 -0.4836 -0.6419  0.3602
18898TIP3    H178109   3.566   2.515  15.916 -0.6733 -0.3977 -1.0872
18898TIP3    H278110   3.469   2.424  15.845 -1.3252 -1.6699  1.3916
18899TIP3   OH278111   0.645   0.480   3.788  0.4578 -0.0668 -0.1667
18899TIP3    H178112   0.676   0.419   3.854  2.4270  0.4884 -0.5294
18899TIP3    H278113   0.682   0.446   3.706 -0.6311  0.1344 -0.7414
18900TIP3   OH278114   4.714   2.228   1.655 -0.4404  0.5619 -0.2003
18900TIP3    H178115   4.758   2.302   1.613  0.4455  0.0230 -0.2417
18900TIP3    H278116   4.782   2.189   1.711 -0.5619 -0.8900 -1.0478
18901TIP3   OH278117   3.030   2.457   5.985  0.2909  0.6157  0.2058
18901TIP3    H178118   2.947   2.408   5.992  1.0565 -1.1310 -2.0379
18901TIP3    H278119   3.062   2.463   6.074 -1.0344 -0.9032  0.8121
18902TIP3   OH278120   6.583   3.345  14.583  0.6575  0.4022 -0.2888
18902TIP3    H178121   6.519   3.377  14.646  1.3049 -3.2969  2.4630
18902TIP3    H278122   6.666   3.383  14.612  0.6477  0.2493 -0.0548
18903TIP3   OH278123   3.975   2.394   1.587  0.8228  0.3230 -0.5503
18903TIP3    H178124   3.945   2.316   1.541 -0.9204  0.3201  0.5391
18903TIP3    H278125   4.045   2.363   1.645 -1.7785 -1.0448  2.0173
18904TIP3   OH278126   0.970   1.609  13.579  0.0237  0.5152 -0.1198
18904TIP3    H178127   1.051   1.564  13.601 -0.1595 -0.0219 -0.5293
18904TIP3    H278128   0.919   1.606  13.660  0.1290  0.2287 -0.0598
18905TIP3   OH278129   3.880   3.092  14.278 -0.3031  0.0322 -0.0220
18905TIP3    H178130   3.956   3.044  14.245 -1.5310 -2.6661  0.9523
18905TIP3    H278131   3.890   3.091  14.373 -3.6071 -4.0424  0.4087
18906TIP3   OH278132   5.434   1.904   4.999  0.0911  0.8198 -0.4331
18906TIP3    H178133   5.384   1.829   4.965  0.7797 -0.1282  0.6142
18906TIP3    H278134   5.381   1.937   5.071  0.8428 -0.0796  0.5664
18907TIP3   OH278135   2.606   2.315  10.659  0.2471  0.7396 -0.0493
18907TIP3    H178136   2.583   2.293  10.749  0.1322  0.9868 -0.0190
18907TIP3    H278137   2.531   2.365  10.627  1.5484  3.1924  0.6435
18908TIP3   OH278138   1.153   0.032   0.157 -0.2123 -0.2314  0.4763
18908TIP3    H178139   1.159   0.018   0.252  0.2420 -0.3742  0.4280
18908TIP3    H278140   1.187   0.120   0.144 -0.9667  0.0733  0.5256
18909TIP3   OH278141   2.445   2.282  13.434  0.0617  0.2253  0.6033
18909TIP3    H178142   2.482   2.195  13.448 -0.5354 -0.3542 -1.3362
18909TIP3    H278143   2.355   2.275  13.466  0.3692  0.5044  1.5766
18910TIP3   OH278144   6.222   4.278   0.057 -0.4888 -0.0646  0.6103
18910TIP3    H178145   6.272   4.327  -0.008 -2.1613 -1.7596 -2.0610
18910TIP3    H278146   6.288   4.247   0.120  1.3875  0.3582 -1.0957
18911TIP3   OH278147   3.727   3.113   3.209 -0.5151  0.1437 -0.0119
18911TIP3    H178148   3.641   3.100   3.248  0.5676 -0.5352  2.2759
18911TIP3    H278149   3.762   3.190   3.254  0.4592 -0.1857 -0.1930
18912TIP3   OH278150   3.454   3.619   6.877 -0.3886 -0.0195  0.6280
18912TIP3    H178151   3.448   3.572   6.794  0.0833  1.2871 -0.1522
18912TIP3    H278152   3.512   3.564   6.930 -0.1245 -0.5054 -0.1473
18913TIP3   OH278153   6.630   0.272   0.417 -0.6374  0.6980  0.2926
18913TIP3    H178154   6.600   0.308   0.334 -1.2581  1.0480  0.6653
18913TIP3    H278155   6.709   0.222   0.395  0.1241  2.1245 -0.2621
18914TIP3   OH278156   1.422   3.181  11.159  0.3729  0.0193  0.1431
18914TIP3    H178157   1.402   3.091  11.131  0.9497 -0.4256  1.1530
18914TIP3    H278158   1.343   3.230  11.138  0.3469 -0.5449 -1.1761
18915TIP3   OH278159   5.029   4.842   3.802 -0.1088 -0.4650 -0.2254
18915TIP3    H178160   5.067   4.755   3.806  0.8532 -0.0681 -0.5676
18915TIP3    H278161   4.959   4.834   3.737  0.3382 -0.8445 -0.6648
18916TIP3   OH278162   2.475   5.835   5.552  0.0808  0.5520 -0.2043
18916TIP3    H178163   2.545   5.895   5.530  1.5154 -0.5338  1.2879
18916TIP3    H278164   2.463   5.845   5.647  0.0200 -1.1497 -0.0168
18917TIP3   OH278165   2.258   3.473   2.181 -0.3883 -0.1018  0.3662
18917TIP3    H178166   2.327   3.409   2.163  0.3596  0.7344  0.2155
18917TIP3    H278167   2.185   3.421   2.213  0.0858 -1.0708 -0.0976
18918TIP3   OH278168   1.551   2.462   5.857 -0.8205 -0.6709 -0.4284
18918TIP3    H178169   1.574   2.469   5.950  0.7214 -1.6267 -0.7119
18918TIP3    H278170   1.588   2.378   5.830 -0.8996 -0.2103 -2.0037
18919TIP3   OH278171   1.970   1.144   4.833 -0.7402 -0.0529  0.3069
18919TIP3    H178172   1.914   1.215   4.863 -0.9980  0.0892 -0.5233
18919TIP3    H278173   1.950   1.134   4.740  2.3909  1.6676 -0.6178
18920TIP3   OH278174   3.255   5.508  14.334 -0.0000  0.1221 -0.1078
18920TIP3    H178175   3.258   5.472  14.423  2.4216  0.9051  0.1670
18920TIP3    H278176   3.227   5.434  14.279 -0.6572 -0.6005  1.1724
18921TIP3   OH278177   4.667   3.792  11.106 -0.5378  0.1957 -0.0652
18921TIP3    H178178   4.608   3.746  11.165 -1.6677  0.7072 -0.7916
18921TIP3    H278179   4.628   3.782  11.019  1.3056 -0.8853 -0.8201
18922TIP3   OH278180   1.468   0.703  14.149 -0.0256 -0.5239 -0.3525
18922TIP3    H178181   1.410   0.778  14.142  0.1284 -0.2728  1.0490
18922TIP3    H278182   1.516   0.702  14.065  0.6710  1.5183 -0.0070
18923TIP3   OH278183   0.149   4.756   1.689 -0.2455 -0.1296 -0.1996
18923TIP3    H178184   0.092   4.769   1.764 -0.0851 -1.2350  0.1220
18923TIP3    H278185   0.144   4.838   1.640 -1.5333  0.0429  0.2131
18924TIP3   OH278186   3.470   3.067   2.014  0.4918  0.1338 -0.4004
18924TIP3    H178187   3.394   3.084   2.069 -0.1988 -2.2567 -0.5347
18924TIP3    H278188   3.458   3.124   1.938 -0.1084  1.2395  0.5081
18925TIP3   OH278189   3.309   1.111  15.748 -0.1591 -1.1296 -0.0532
18925TIP3    H178190   3.347   1.169  15.813 -0.1284 -0.5259 -0.5989
18925TIP3    H278191   3.291   1.030  15.795 -0.7362 -0.4861  0.8517
18926TIP3   OH278192   3.012   0.378   2.904 -0.1407 -0.2289  0.1070
18926TIP3    H178193   2.941   0.355   2.965 -1.0556  2.0874  0.0060
18926TIP3    H278194   3.069   0.436   2.955 -0.6580  1.3538 -1.0519
18927TIP3   OH278195   0.167   5.802   1.795  0.2863  0.4474  0.3129
18927TIP3    H178196   0.252   5.787   1.754 -0.6326  1.3391 -2.0214
18927TIP3    H278197   0.163   5.896   1.809  0.0705  0.2934  1.2722
18928TIP3   OH278198   1.683   1.761   0.856 -0.3263  0.4321 -0.2026
18928TIP3    H178199   1.669   1.796   0.768 -1.6963 -0.8296 -0.5063
18928TIP3    H278200   1.686   1.666   0.844 -1.2097  0.2087  1.1867
18929TIP3   OH278201   0.421   5.467  16.252  0.2874 -0.4661 -0.2336
18929TIP3    H178202   0.381   5.546  16.289  1.1828 -0.3446  0.5184
18929TIP3    H278203   0.375   5.395  16.296  0.5445 -0.3359  0.2601
18930TIP3   OH278204   3.451   2.642   6.330  0.2291  0.3713  0.1443
18930TIP3    H178205   3.357   2.624   6.337  0.4228  0.3102  3.9046
18930TIP3    H278206   3.492   2.557   6.342  0.8110  0.7736  1.0316
18931TIP3   OH278207   2.106   1.548   1.381  0.1601  0.4508 -0.5704
18931TIP3    H178208   2.107   1.636   1.420  0.7466  0.4446 -0.5705
18931TIP3    H278209   2.128   1.490   1.454  1.3467  0.4455 -0.9337
18932TIP3   OH278210   2.927   0.303  13.687  0.5122  0.0732  0.2096
18932TIP3    H178211   2.964   0.306  13.599 -1.3674 -1.4785 -0.6749
18932TIP3    H278212   2.951   0.216  13.720 -0.8912 -0.3254  0.2401
18933TIP3   OH278213   5.437   1.505  12.816  0.1443 -0.3356 -0.1602
18933TIP3    H178214   5.423   1.410  12.812  0.9604 -0.5115  1.1168
18933TIP3    H278215   5.526   1.518  12.783  0.6450 -0.1795  1.2362
18934TIP3   OH278216   1.246   4.925   3.106  0.2864 -0.5055 -0.0674
18934TIP3    H178217   1.218   4.871   3.179  0.1088 -0.8454 -0.3845
18934TIP3    H278218   1.314   4.982   3.143 -2.1458  1.6657  1.1564
18935TIP3   OH278219   1.345   3.223  16.266  0.0981  0.3712  0.4832
18935TIP3    H178220   1.432   3.216  16.225 -0.0602  0.5000  0.1280
18935TIP3    H278221   1.303   3.139  16.247 -0.6326  1.0723 -1.1244
18936TIP3   OH278222   0.152   2.649   3.035 -0.5006  0.3565  0.1006
18936TIP3    H178223   0.068   2.604   3.026  0.0452 -0.5067 -0.9798
18936TIP3    H278224   0.132   2.741   3.018 -1.1803  0.1107 -0.4808
18937TIP3   OH278225   4.603   4.100   1.651 -0.0415  0.3636  0.2027
18937TIP3    H178226   4.611   4.043   1.574  2.3627  0.1125  0.6026
18937TIP3    H278227   4.544   4.052   1.710  0.9542 -1.1293  0.0082
18938TIP3   OH278228   4.731   4.934  10.970 -0.0434 -0.0816  0.5337
18938TIP3    H178229   4.813   4.979  10.989 -0.8197  1.1553  1.0289
18938TIP3    H278230   4.722   4.941  10.875  0.4738 -0.3190  0.4620
18939TIP3   OH278231   0.567   1.047   1.454 -0.3997  0.0033  0.4035
18939TIP3    H178232   0.550   1.089   1.539 -1.6972 -2.1809  1.2682
18939TIP3    H278233   0.647   1.089   1.422 -0.0296  1.0368  2.5856
18940TIP3   OH278234   6.509   6.706   0.873  0.4226  0.3250  0.6080
18940TIP3    H178235   6.446   6.693   0.802 -0.5824  0.1847  1.5084
18940TIP3    H278236   6.515   6.620   0.916  1.8280  0.1331  0.0466
18941TIP3   OH278237   3.579   0.295  14.890  0.4464 -0.4500 -0.0619
18941TIP3    H178238   3.507   0.250  14.846  1.7241 -0.6999 -1.9597
18941TIP3    H278239   3.653   0.234  14.885  0.8724 -0.1146  1.6759
18942TIP3   OH278240   2.463   0.258   0.049 -0.6310  0.0506  0.3743
18942TIP3    H178241   2.529   0.222   0.107 -0.5879  0.3029  0.4809
18942TIP3    H278242   2.450   0.348   0.079 -1.3320 -0.1279  0.6291
18943TIP3   OH278243   3.673   5.695  11.699 -0.4280 -0.0567 -0.0155
18943TIP3    H178244   3.578   5.705  11.704 -0.1617  2.9823 -0.0536
18943TIP3    H278245   3.700   5.756  11.630  1.5505 -1.0841 -0.1969
18944TIP3   OH278246   0.467   5.357   5.022 -0.3165  0.1436  0.3806
18944TIP3    H178247   0.454   5.286   4.959 -1.2460  1.3945 -0.8674
18944TIP3    H278248   0.415   5.330   5.098 -1.9087  0.1981 -0.6659
18945TIP3   OH278249   4.302   1.480  12.883 -0.2772 -0.6933 -0.2617
18945TIP3    H178250   4.380   1.426  12.881 -0.9002 -1.5660 -0.9838
18945TIP3    H278251   4.301   1.525  12.799  0.5211  0.8582  0.5377
18946TIP3   OH278252   6.628   6.598  16.343 -0.0336  0.2065 -0.1865
18946TIP3    H178253   6.571   6.674  16.340  0.0286  0.2662  0.1430
18946TIP3    H278254   6.572   6.527  16.376  0.1685  0.3461  0.4758
18947TIP3   OH278255   5.222   1.948   0.961 -0.2430  0.7459  0.0386
18947TIP3    H178256   5.158   1.922   0.895  1.7892 -0.9009 -1.3803
18947TIP3    H278257   5.239   2.041   0.943  0.9646  0.1152 -2.4487
18948TIP3   OH278258   4.414   3.156  17.120  0.5589  0.1811 -0.2281
18948TIP3    H178259   4.324   3.152  17.090  0.9591  1.2662 -1.6366
18948TIP3    H278260   4.408   3.149  17.216 -1.1235  1.8842 -0.1946
18949TIP3   OH278261   6.402   6.763   5.731  0.6983  0.2028  0.7258
18949TIP3    H178262   6.370   6.852   5.715  0.4183 -0.0018  0.1005
18949TIP3    H278263   6.434   6.734   5.645 -1.4321 -1.1754  0.3734
18950TIP3   OH278264   0.703   0.197   2.161  0.2088 -0.6297 -0.5776
18950TIP3    H178265   0.633   0.136   2.184 -0.3635  0.6138  1.0780
18950TIP3    H278266   0.782   0.156   2.194 -0.1032 -0.7346  0.0512
18951TIP3   OH278267   1.069   1.430  15.948  0.1890 -0.3970 -0.6557
18951TIP3    H178268   1.158   1.452  15.977  1.2438 -2.8847 -1.8602
18951TIP3    H278269   1.023   1.405  16.027  1.2161 -1.1975 -0.3025
18952TIP3   OH278270   4.031   3.577  16.542 -0.0427  0.4736 -0.2996
18952TIP3    H178271   3.935   3.581  16.544 -0.0419  0.3521  0.0006
18952TIP3    H278272   4.056   3.550  16.630  0.3044  1.2413 -0.1648
18953TIP3   OH278273   2.608   2.721  15.416 -0.2498 -0.1684  0.6493
18953TIP3    H178274   2.625   2.684  15.503 -0.3755  1.8943  1.5940
18953TIP3    H278275   2.693   2.718  15.372  0.6002  1.8384  2.0866
18954TIP3   OH278276   4.005   1.930   0.955  0.4026  0.0128 -1.0330
18954TIP3    H178277   4.016   2.021   0.983 -0.2242  0.0845 -1.0094
18954TIP3    H278278   3.976   1.883   1.033 -0.6617  0.0754 -1.3726
18955TIP3   OH278279   1.911   6.294  14.671 -0.4662 -0.3215  0.1414
18955TIP3    H178280   1.877   6.383  14.662 -0.1260 -0.3124 -1.2024
18955TIP3    H278281   1.921   6.263  14.581  0.3218 -1.3753  0.5771
18956TIP3   OH278282   5.560   0.077  13.660  0.1644  0.4945  0.4172
18956TIP3    H178283   5.467   0.063  13.679  0.3222 -0.1166  0.7586
18956TIP3    H278284   5.564   0.167  13.627 -0.5181  0.5996  0.6001
18957TIP3   OH278285   0.113   2.192  12.416 -0.9789  0.0356  0.1789
18957TIP3    H178286   0.059   2.216  12.341 -0.7060  0.5910  0.1551
18957TIP3    H278287   0.172   2.125  12.382 -1.6204 -0.5415  0.1965
18958TIP3   OH278288   1.718   4.427  14.033  0.1993 -0.1394  0.0506
18958TIP3    H178289   1.633   4.456  13.999 -0.1193 -1.1306 -0.0011
18958TIP3    H278290   1.740   4.492  14.101  0.4610  1.3923 -1.4519
18959TIP3   OH278291   4.513   0.501   1.094  0.2930 -0.0962 -0.1236
18959TIP3    H178292   4.581   0.568   1.096 -0.2693  0.4356  1.2687
18959TIP3    H278293   4.463   0.521   1.015  1.4910 -0.2472 -0.9401
18960TIP3   OH278294   4.775   3.921  12.741  0.2703 -0.2077  0.0617
18960TIP3    H178295   4.801   3.947  12.829 -0.3113  0.5592  0.0125
18960TIP3    H278296   4.705   3.857  12.753  1.0951 -1.1024  0.1699
18961TIP3   OH278297   6.099   1.585  13.676  0.3039 -0.1902 -0.8205
18961TIP3    H178298   6.008   1.555  13.672  0.6973 -1.6830  0.9486
18961TIP3    H278299   6.145   1.527  13.615  0.1768  0.2317 -1.3262
18962TIP3   OH278300   0.953   1.978  14.009  0.2129 -0.1462 -0.4560
18962TIP3    H178301   0.984   2.006  14.095  0.3605 -1.9466  0.0976
18962TIP3    H278302   0.911   2.055  13.972 -1.0257  0.2967  1.7839
18963TIP3   OH278303   5.719   0.747   2.934  0.2708  0.5788 -0.0372
18963TIP3    H178304   5.798   0.707   2.900  0.0782  0.3683 -0.2415
18963TIP3    H278305   5.691   0.690   3.006 -0.6929 -0.3611 -1.1267
18964TIP3   OH278306   2.799   2.469  12.441  0.3771 -0.2699  0.0002
18964TIP3    H178307   2.865   2.487  12.508  0.3390 -0.4153  0.0764
18964TIP3    H278308   2.728   2.531  12.459  1.1208  0.8849 -0.9788
18965TIP3   OH278309   3.147   3.451   1.712 -0.2568 -0.1682 -0.2039
18965TIP3    H178310   3.098   3.370   1.722 -0.4318  0.1149  1.3341
18965TIP3    H278311   3.083   3.514   1.680 -0.7229 -0.0173  0.9841
18966TIP3   OH278312   2.732   3.945  11.963  0.1530 -0.2953 -0.1340
18966TIP3    H178313   2.700   3.975  12.048 -0.1991  0.9230 -0.6862
18966TIP3    H278314   2.665   3.883  11.933 -0.3609  0.2440 -0.1036
18967TIP3   OH278315   3.031   2.536   3.875 -0.0890  0.1604  0.2333
18967TIP3    H178316   2.955   2.515   3.929  0.1235  0.1681  0.5348
18967TIP3    H278317   3.061   2.621   3.909  0.9631 -0.5610  1.1108
18968TIP3   OH278318   4.596   2.936   6.629  0.0929 -0.5460 -0.2714
18968TIP3    H178319   4.555   2.866   6.680  0.0205 -2.2850 -2.6612
18968TIP3    H278320   4.673   2.960   6.681 -0.3838 -1.7392  1.0340
18969TIP3   OH278321   2.589   3.331   2.383 -0.2545 -0.1098 -0.6286
18969TIP3    H178322   2.546   3.330   2.298 -2.1890  0.7218  0.3097
18969TIP3    H278323   2.636   3.414   2.385  0.0448 -0.2672 -0.9911
18970TIP3   OH278324   6.326   1.537  14.459  0.0933 -0.3127 -0.1246
18970TIP3    H178325   6.368   1.509  14.540  0.6220  0.1367 -0.2345
18970TIP3    H278326   6.248   1.584  14.488 -0.7419 -1.8058  0.0585
18971TIP3   OH278327   0.977   4.984   3.302  0.1820 -0.6189  0.9743
18971TIP3    H178328   1.013   5.045   3.367 -2.7125  0.9851  1.1371
18971TIP3    H278329   1.003   5.021   3.218  2.2149 -1.6187  1.1208
18972TIP3   OH278330   1.532   0.740   0.788 -0.1091 -0.3346  0.1345
18972TIP3    H178331   1.561   0.808   0.727  1.5727  0.2252  1.5227
18972TIP3    H278332   1.485   0.787   0.857 -2.3371 -1.0006 -0.8571
18973TIP3   OH278333   0.922   3.174   2.121 -0.3189 -0.3861 -0.3220
18973TIP3    H178334   0.939   3.254   2.171  0.4452 -0.1654 -0.9207
18973TIP3    H278335   0.976   3.108   2.164 -0.9014 -0.5689  0.1334
18974TIP3   OH278336   2.261   0.035  13.031  0.1536  0.4710  0.0867
18974TIP3    H178337   2.251   0.064  12.941 -0.2617 -0.3841 -0.1455
18974TIP3    H278338   2.188  -0.025  13.046  0.1865  0.6534  1.0075
18975TIP3   OH278339   0.341   6.235   4.236 -0.0068  0.6889  0.2275
18975TIP3    H178340   0.260   6.241   4.185  1.1960 -0.9257 -1.9400
18975TIP3    H278341   0.343   6.144   4.266  0.3764  1.0661  1.3592
18976TIP3   OH278342   0.201   2.777   2.213 -0.5065  0.1050 -0.1234
18976TIP3    H178343   0.216   2.753   2.121 -0.0809  0.7553 -0.2312
18976TIP3    H278344   0.276   2.832   2.235 -0.3417 -0.4818  0.7777
18977TIP3   OH278345   4.167   4.212  11.395 -0.4792  0.6838  0.6324
18977TIP3    H178346   4.136   4.138  11.342 -0.5319  0.7813  0.5259
18977TIP3    H278347   4.124   4.200  11.480  0.7531 -0.2838  1.1267
18978TIP3   OH278348   1.722   2.813  12.663  0.1091  0.0727 -0.2033
18978TIP3    H178349   1.786   2.816  12.591  1.0906 -0.2924  0.6427
18978TIP3    H278350   1.637   2.816  12.619  0.6968  0.1394 -1.3724
18979TIP3   OH278351   4.895   5.345  13.302  0.4728  0.5409  0.3747
18979TIP3    H178352   4.851   5.426  13.274 -2.3379 -0.9831  0.1839
18979TIP3    H278353   4.874   5.337  13.395 -1.0375 -0.9940 -0.0642
18980TIP3   OH278354   1.544   2.513  11.484  0.4461 -0.0466 -0.4593
18980TIP3    H178355   1.577   2.443  11.539 -0.1032  1.9310  2.5150
18980TIP3    H278356   1.567   2.487  11.395  2.9961 -2.4642  0.8420
18981TIP3   OH278357   6.413   2.962  13.424  0.1061 -0.4832 -0.0286
18981TIP3    H178358   6.359   2.978  13.501 -1.9912 -0.1111 -1.5326
18981TIP3    H278359   6.465   3.042  13.414 -0.1197 -0.2574  0.5886
18982TIP3   OH278360   0.593   1.939  11.841 -0.0883  0.1488  0.0419
18982TIP3    H178361   0.573   2.032  11.832  1.7992  0.7847  1.8867
18982TIP3    H278362   0.601   1.907  11.751  2.0181  2.4321 -0.6270
18983TIP3   OH278363   4.038   4.821   4.340 -0.4994  0.4079 -0.1278
18983TIP3    H178364   4.031   4.726   4.347 -1.4927  0.4254 -0.9189
18983TIP3    H278365   4.092   4.836   4.263  0.4261  0.4784  0.5203
18984TIP3   OH278366   5.064   2.569   1.555 -0.0605  0.1763  0.6430
18984TIP3    H178367   5.129   2.500   1.568 -1.0903 -1.0669 -0.6993
18984TIP3    H278368   5.117   2.649   1.542  1.2135 -0.7923 -0.2787
18985TIP3   OH278369   4.296   6.559  11.936  0.1510  0.0790 -0.9516
18985TIP3    H178370   4.321   6.634  11.882  1.6406 -0.9364 -1.6980
18985TIP3    H278371   4.377   6.509  11.947 -0.0584  0.3064  2.3398
18986TIP3   OH278372   1.846   2.080   4.706  0.2578 -0.2525  0.0262
18986TIP3    H178373   1.839   2.031   4.787 -2.1832 -0.7856 -0.4671
18986TIP3    H278374   1.833   2.171   4.732 -0.9263 -0.4624  0.1947
18987TIP3   OH278375   5.527   4.293   5.652  0.4290  0.0929  0.0865
18987TIP3    H178376   5.524   4.301   5.557  2.5173  0.3178  0.0194
18987TIP3    H278377   5.569   4.209   5.668  1.9245  0.9587  0.8011
18988TIP3   OH278378   1.019   1.982  12.806  0.2415 -0.5730 -0.3531
18988TIP3    H178379   0.981   2.068  12.790 -0.6292 -1.0923 -1.1863
18988TIP3    H278380   1.063   1.990  12.890 -1.1777  0.2582  0.3390
18989TIP3   OH278381   2.257   4.740  13.559 -0.0915 -0.2663 -0.2441
18989TIP3    H178382   2.331   4.679  13.552 -0.6151 -0.6915 -2.2614
18989TIP3    H278383   2.212   4.713  13.640  0.8361 -1.2512 -0.0436
18990TIP3   OH278384   4.725   2.003   3.406  0.1157  0.1205  0.2067
18990TIP3    H178385   4.814   2.007   3.370  0.9560 -2.6317  1.8389
18990TIP3    H278386   4.694   2.094   3.405  2.5692  0.9774 -1.2678
18991TIP3   OH278387   4.830   3.785  12.378 -0.1560 -0.0457 -0.0503
18991TIP3    H178388   4.749   3.789  12.429  0.6083  0.1249  1.1713
18991TIP3    H278389   4.842   3.691  12.361 -0.1038 -0.1591  0.5952
18992TIP3   OH278390   2.609   6.134  15.317  0.1073  0.4223 -0.1221
18992TIP3    H178391   2.658   6.192  15.374 -0.5490  0.3318  0.5379
18992TIP3    H278392   2.590   6.187  15.239  1.4434  0.3784 -0.4742
18993TIP3   OH278393   4.272   2.281   1.969  0.2476 -0.7843  0.3292
18993TIP3    H178394   4.367   2.268   1.965  0.4633  0.4845  1.2688
18993TIP3    H278395   4.241   2.215   2.031  0.3489 -1.9645 -0.8363
18994TIP3   OH278396   2.828   3.521   0.847 -0.5578 -0.0200 -0.0139
18994TIP3    H178397   2.898   3.541   0.784 -1.0321  0.2473 -0.4586
18994TIP3    H278398   2.791   3.607   0.870 -0.8572 -0.1758  0.0876
18995TIP3   OH278399   1.282   5.665  15.414 -0.2708  0.0492  0.0280
18995TIP3    H178400   1.265   5.572  15.427 -2.1072 -0.1464 -3.4648
18995TIP3    H278401   1.363   5.668  15.363 -1.0033  0.2999 -1.1333
18996TIP3   OH278402   2.656   0.809   1.687 -0.0775  0.3398  0.2421
18996TIP3    H178403   2.732   0.785   1.634 -0.2367  1.4702 -0.5143
18996TIP3    H278404   2.691   0.815   1.776  1.0501  2.1786 -0.2942
18997TIP3   OH278405   5.663   3.019   3.975 -0.8915 -0.0862 -0.5529
18997TIP3    H178406   5.716   2.940   3.981 -0.5561  0.2005  0.2205
18997TIP3    H278407   5.725   3.089   3.958 -1.0254  0.2513  0.3539
18998TIP3   OH278408   5.674   1.938   3.530  0.5591 -0.0310 -0.4101
18998TIP3    H178409   5.632   2.023   3.525  1.2488  0.3242 -0.2158
18998TIP3    H278410   5.757   1.949   3.484  0.4892 -0.6959 -0.7025
18999TIP3   OH278411   0.730   4.540   2.890  0.5179 -0.2348  0.1803
18999TIP3    H178412   0.708   4.598   2.816  0.7570 -1.6745 -1.0451
18999TIP3    H278413   0.733   4.598   2.966 -0.2761  1.1926 -0.8503
19000TIP3   OH278414   0.240   6.121  13.356 -0.6657 -0.7439  0.4778
19000TIP3    H178415   0.244   6.094  13.264 -1.6530 -0.7699  0.4384
19000TIP3    H278416   0.310   6.072  13.398 -0.0229 -0.5287 -0.3093
19001TIP3   OH278417   4.733   5.173   3.478 -0.1017  0.4544 -0.7186
19001TIP3    H178418   4.800   5.210   3.421 -0.4173  2.9704  0.5041
19001TIP3    H278419   4.672   5.130   3.418  0.5375  1.4886 -2.1232
19002TIP3   OH278420   2.591   5.572  11.917  0.7130 -0.0123  0.1650
19002TIP3    H178421   2.628   5.544  12.001  3.0403 -0.2765 -0.9067
19002TIP3    H278422   2.568   5.490  11.873  3.1986 -0.0907 -1.0597
19003TIP3   OH278423   5.675   3.275   0.882  0.3332  0.0499  0.6274
19003TIP3    H178424   5.684   3.368   0.864  0.4490  0.1504  1.1847
19003TIP3    H278425   5.751   3.254   0.937  1.2283 -0.7263 -0.8627
19004TIP3   OH278426   5.279   1.933   3.412  0.1298 -0.3160 -0.0444
19004TIP3    H178427   5.357   1.974   3.450  0.4345 -0.0226 -0.9835
19004TIP3    H278428   5.211   1.999   3.421 -0.1056 -0.7046  1.1020
19005TIP3   OH278429   1.575   0.135  14.674  0.6589  0.3298 -0.4610
19005TIP3    H178430   1.547   0.049  14.706 -0.2682  0.9550  0.4403
19005TIP3    H278431   1.581   0.124  14.579  0.3469 -0.6628 -0.3771
19006TIP3   OH278432   0.028   3.008  12.441 -0.2620 -0.2321 -0.0165
19006TIP3    H178433   0.119   3.036  12.437  0.1623 -1.2235  2.2312
19006TIP3    H278434  -0.021   3.088  12.462  0.3058 -0.1011  0.8051
19007TIP3   OH278435   5.021   2.819   1.174  0.3965  0.2132 -0.2347
19007TIP3    H178436   4.945   2.829   1.232  0.1257  0.4010 -0.6174
19007TIP3    H278437   5.048   2.909   1.155  2.0616  0.1551  1.6420
19008TIP3   OH278438   5.929   4.365   4.979  0.0674 -0.3921 -0.1184
19008TIP3    H178439   5.913   4.340   4.888  1.9544  0.5682 -0.7203
19008TIP3    H278440   5.852   4.418   5.002 -1.2483 -2.0354 -0.5814
19009TIP3   OH278441   4.897   5.353   0.059 -0.6393  0.5044 -0.7130
19009TIP3    H178442   4.932   5.442   0.054 -0.8606  0.6507  0.2626
19009TIP3    H278443   4.904   5.319  -0.031  3.9107 -0.2306 -0.2275
19010TIP3   OH278444   1.569   0.053  16.665 -0.1924 -0.2333  0.3495
19010TIP3    H178445   1.554  -0.005  16.590  0.5949 -0.3203  0.2507
19010TIP3    H278446   1.522   0.133  16.643  1.3980  0.3507 -1.0087
19011TIP3   OH278447   1.323   5.223   2.974  0.2316  0.5603 -0.5731
19011TIP3    H178448   1.410   5.236   2.936  0.8796 -2.5865 -0.3057
19011TIP3    H278449   1.339   5.202   3.066 -0.7339 -0.8461 -0.7095
19012TIP3   OH278450   5.482   1.790  16.528  0.1469 -0.2900  0.1048
19012TIP3    H178451   5.414   1.854  16.506  0.7933 -0.2863 -2.0157
19012TIP3    H278452   5.454   1.754  16.612 -2.5442 -0.3714 -0.7537
19013TIP3   OH278453   5.010   3.505  14.627 -0.0738 -0.3646 -0.0257
19013TIP3    H178454   4.966   3.589  14.634 -1.6579 -1.0593 -1.2430
19013TIP3    H278455   4.938   3.441  14.621  1.0582 -2.0350  3.1438
19014TIP3   OH278456   6.189   5.691  16.836 -0.0547  0.0368 -0.5164
19014TIP3    H178457   6.279   5.719  16.852 -0.1448 -0.9721  2.1426
19014TIP3    H278458   6.183   5.606  16.880 -2.1108 -0.2210 -1.2453
19015TIP3   OH278459   4.236   3.140  14.123 -0.2843 -0.1460  0.1792
19015TIP3    H178460   4.239   3.175  14.212 -2.2008  1.0174 -0.1950
19015TIP3    H278461   4.186   3.059  14.132 -0.1665 -0.2159  0.2116
19016TIP3   OH278462   3.867   1.064   1.379  0.0131  0.1936 -0.0922
19016TIP3    H178463   3.939   1.007   1.406 -0.5944 -0.7125 -0.3648
19016TIP3    H278464   3.895   1.099   1.295 -1.0010 -2.2646 -1.5023
19017TIP3   OH278465   2.290   6.371   5.781 -0.5580 -0.1753 -0.5656
19017TIP3    H178466   2.258   6.408   5.864 -0.8038 -0.8377 -0.3604
19017TIP3    H278467   2.292   6.445   5.721 -0.8446  0.2148 -0.0972
19018TIP3   OH278468   1.190   3.161  13.996  0.3904  0.2365  0.1882
19018TIP3    H178469   1.233   3.240  14.029 -0.1175 -0.2910  2.1629
19018TIP3    H278470   1.122   3.141  14.060 -0.2680 -1.1428 -0.8948
19019TIP3   OH278471   2.455   3.576   4.746  0.1377 -0.2754 -0.3209
19019TIP3    H178472   2.501   3.659   4.733 -1.8017  0.9374  0.3065
19019TIP3    H278473   2.427   3.549   4.659  1.5819 -0.7801 -0.6459
19020TIP3   OH278474   0.519   3.283   4.186  0.4829  0.2439  0.0031
19020TIP3    H178475   0.562   3.224   4.248  1.2668 -1.1260 -1.8015
19020TIP3    H278476   0.469   3.225   4.128 -0.8093  1.5538 -0.2213
19021TIP3   OH278477   3.839   2.500   0.976 -0.0811 -0.7628  0.4476
19021TIP3    H178478   3.866   2.422   1.024  0.0747 -1.6174 -1.0070
19021TIP3    H278479   3.918   2.554   0.969  0.3756 -1.5595 -0.5870
19022TIP3   OH278480   3.561   3.279  12.781 -0.5927 -0.4237 -0.4781
19022TIP3    H178481   3.481   3.325  12.806 -2.1307 -2.5589 -1.3452
19022TIP3    H278482   3.565   3.204  12.840 -1.6211 -2.7464 -3.2215
19023TIP3   OH278483   6.397   0.070  12.153  0.2346  0.3937 -0.0980
19023TIP3    H178484   6.493   0.077  12.149  0.2749  1.6319  2.2967
19023TIP3    H278485   6.380   0.020  12.233 -1.1165 -0.4792 -0.9088
19024TIP3   OH278486   6.458   6.357  16.815  0.1962 -0.1454 -0.1345
19024TIP3    H178487   6.395   6.416  16.774  1.3561 -1.2117 -3.6485
19024TIP3    H278488   6.503   6.410  16.880 -1.3384  1.8085 -0.6554
19025TIP3   OH278489   3.284   6.503  15.514 -0.1839 -0.2893  0.2219
19025TIP3    H178490   3.314   6.543  15.432  0.5753  0.1646  0.7075
19025TIP3    H278491   3.250   6.418  15.489  0.5600 -0.3806 -0.4960
19026TIP3   OH278492   3.302   2.408   2.938  0.0422 -0.3627  0.0525
19026TIP3    H178493   3.255   2.327   2.955 -0.7480  0.0908  0.0586
19026TIP3    H278494   3.366   2.414   3.008 -0.6418 -0.4259  0.6835
19027TIP3   OH278495   3.499   2.305  15.198  0.4274  0.4618  0.6337
19027TIP3    H178496   3.564   2.235  15.202 -0.1084 -0.0694  0.2412
19027TIP3    H278497   3.522   2.363  15.271  0.9841 -0.0313  0.8589
19028TIP3   OH278498   1.264   0.984   1.964 -0.5711  0.6654 -0.4789
19028TIP3    H178499   1.297   0.899   1.935 -1.7039  0.1340 -0.2301
19028TIP3    H278500   1.304   0.997   2.050  0.2659  0.7737 -0.8824
19029TIP3   OH278501   6.755   1.682   4.486 -0.2845  0.2857 -0.1410
19029TIP3    H178502   6.705   1.761   4.467 -1.0670 -0.3698 -0.7818
19029TIP3    H278503   6.765   1.638   4.402 -0.1282 -0.4729  0.2691
19030TIP3   OH278504   3.541   1.582  15.777 -0.1540  0.1304 -0.4557
19030TIP3    H178505   3.585   1.563  15.694  0.5489 -1.9073  0.3484
19030TIP3    H278506   3.602   1.552  15.844 -1.7766 -0.5388  0.7548
19031TIP3   OH278507   2.111   2.093   0.446 -0.0937 -0.3289 -0.4029
19031TIP3    H178508   2.183   2.068   0.504 -1.4079  1.6162  2.1751
19031TIP3    H278509   2.151   2.152   0.382  1.0756 -1.2674 -0.5513
19032TIP3   OH278510   0.049   0.907   0.118  0.5020 -0.3702 -0.2125
19032TIP3    H178511  -0.017   0.844   0.149 -0.8271  1.0149 -0.1445
19032TIP3    H278512   0.120   0.853   0.085 -1.3395 -1.9606 -1.7183
19033TIP3   OH278513   5.996   1.336  15.224 -0.3237  0.1370 -0.1807
19033TIP3    H178514   5.930   1.376  15.166 -1.7161  0.6672  1.7274
19033TIP3    H278515   5.971   1.364  15.312  1.6614 -0.8137  0.7147
19034TIP3   OH278516   3.648   6.000  14.556  0.1277 -0.9754  0.5876
19034TIP3    H178517   3.595   5.983  14.633 -1.2164  2.2067  0.4622
19034TIP3    H278518   3.674   6.092  14.564 -0.6379 -0.3327 -3.0750
19035TIP3   OH278519   6.184   3.365   1.038 -0.4213 -0.4767  0.0335
19035TIP3    H178520   6.141   3.449   1.025  0.8574  0.1743 -0.0961
19035TIP3    H278521   6.154   3.335   1.124  2.4095  2.1612  2.0196
19036TIP3   OH278522   5.062   4.607  12.484 -0.1778 -0.8117 -0.0983
19036TIP3    H178523   5.033   4.526  12.443 -0.1180 -1.2497  0.7268
19036TIP3    H278524   5.091   4.661  12.411  0.4716 -1.8120 -0.5941
19037TIP3   OH278525   6.760   3.762  16.169 -0.5881  0.3284  0.2052
19037TIP3    H178526   6.750   3.674  16.132  1.2692  0.0778  0.2425
19037TIP3    H278527   6.724   3.821  16.103 -0.6107 -0.3740 -0.4068
19038TIP3   OH278528   6.660   2.030  11.613  0.2413  0.0695  0.3793
19038TIP3    H178529   6.617   2.043  11.698 -1.7429 -1.2473 -0.3936
19038TIP3    H278530   6.739   2.084  11.618 -0.3493  0.7818  2.6920
19039TIP3   OH278531   0.350   3.566   3.510  0.3841  0.2803 -0.2053
19039TIP3    H178532   0.443   3.574   3.486  0.2987  0.9461 -0.3168
19039TIP3    H278533   0.313   3.510   3.441  0.3920  1.2127 -0.9829
19040TIP3   OH278534   6.217   1.183  12.582 -0.2368  0.4822  0.2078
19040TIP3    H178535   6.243   1.142  12.499  0.0841  1.3342 -0.1115
19040TIP3    H278536   6.237   1.117  12.649  3.2654  1.2928  0.0476
19041TIP3   OH278537   4.185   6.419   2.475 -0.1104  0.4148 -0.9573
19041TIP3    H178538   4.159   6.509   2.452 -0.5793  1.2815  2.6116
19041TIP3    H278539   4.281   6.423   2.481 -0.2561  1.2925  1.3268
19042TIP3   OH278540   3.051   2.296   3.172  0.3581  0.2728 -0.5231
19042TIP3    H178541   3.089   2.320   3.256  0.3091  0.9253 -0.6866
19042TIP3    H278542   3.050   2.200   3.172 -0.0871  0.2751  0.4161
19043TIP3   OH278543   3.436   5.364   0.884 -0.2970  0.3850  0.2300
19043TIP3    H178544   3.390   5.412   0.815  0.0081 -0.6139 -0.6838
19043TIP3    H278545   3.519   5.338   0.844 -1.0874 -2.1731  0.2162
19044TIP3   OH278546   0.762   5.130  15.946  0.1781 -0.5412 -0.2921
19044TIP3    H178547   0.708   5.150  16.023 -0.3844 -2.0263 -0.2719
19044TIP3    H278548   0.743   5.200  15.884 -0.4005 -0.0633  0.4156
19045TIP3   OH278549   1.094   1.640   0.822  0.2693  0.0679 -0.5657
19045TIP3    H178550   1.033   1.588   0.769 -1.0797  0.2271  0.8320
19045TIP3    H278551   1.147   1.687   0.757 -1.0133 -0.1404 -1.7841
19046TIP3   OH278552   1.893   6.312  11.278  1.0646  0.1946  0.5590
19046TIP3    H178553   1.912   6.381  11.215 -1.0273  1.2206  1.0140
19046TIP3    H278554   1.840   6.355  11.346 -0.8639 -1.9883  0.4929
19047TIP3   OH278555   5.491   1.169  16.338 -0.0593 -0.1685  1.0811
19047TIP3    H178556   5.507   1.230  16.267  1.6600  0.8797  2.3323
19047TIP3    H278557   5.550   1.095  16.322  1.4048  0.7357  2.1814
19048TIP3   OH278558   0.858   5.275   3.019  0.0735 -0.2403 -0.6847
19048TIP3    H178559   0.942   5.230   3.005  0.5591  0.6568 -0.7008
19048TIP3    H278560   0.793   5.205   3.016  0.8196 -0.9469 -0.6966
19049TIP3   OH278561   4.076   0.784  11.786  0.0010  0.1331 -0.0403
19049TIP3    H178562   4.141   0.763  11.853  0.0150 -0.9971 -0.3941
19049TIP3    H278563   4.084   0.713  11.722 -0.4373  0.8701 -0.9275
19050TIP3   OH278564   4.505   0.081   1.611 -0.0745  0.1288  0.1961
19050TIP3    H178565   4.495  -0.013   1.619 -0.3623  0.0930 -0.5708
19050TIP3    H278566   4.428   0.110   1.562  0.0687  0.7403  0.3252
19051TIP3   OH278567   2.489   3.676  14.400 -0.1767  0.0390 -0.0298
19051TIP3    H178568   2.504   3.615  14.328  0.4668 -0.2311  0.3236
19051TIP3    H278569   2.561   3.659  14.461 -1.7588 -1.0534  1.5847
19052TIP3   OH278570   1.299   3.221  15.891  0.4317  0.2337  0.4835
19052TIP3    H178571   1.365   3.159  15.923  1.6023  0.8422 -0.7504
19052TIP3    H278572   1.255   3.175  15.820  2.2545  1.3100 -1.3840
19053TIP3   OH278573   5.656   4.364   0.985 -0.0740 -0.1786 -0.0822
19053TIP3    H178574   5.655   4.445   1.036 -1.1205 -0.3427  0.1532
19053TIP3    H278575   5.684   4.297   1.048 -1.0033 -0.3159  0.1955
19054TIP3   OH278576   1.507   4.433  16.673  0.0910 -0.4267  0.1609
19054TIP3    H178577   1.442   4.461  16.609 -0.8150 -1.0269  0.7933
19054TIP3    H278578   1.458   4.429  16.756  1.1374 -0.0710  0.8034
19055TIP3   OH278579   4.819   3.466  16.316 -0.2947  0.1039 -0.1212
19055TIP3    H178580   4.906   3.444  16.350 -1.1575 -0.8351  1.5429
19055TIP3    H278581   4.830   3.553  16.277  1.1069  0.5538  1.2072
19056TIP3   OH278582   1.779   4.584  12.546  0.7887 -0.1794  0.0414
19056TIP3    H178583   1.815   4.525  12.480  1.7327  0.9226 -0.4307
19056TIP3    H278584   1.827   4.562  12.626  2.8937  1.6161 -0.6941
19057TIP3   OH278585   1.679   5.532  12.275  0.8308 -0.4942 -0.4863
19057TIP3    H178586   1.639   5.446  12.268  0.0146 -0.0828 -0.9190
19057TIP3    H278587   1.608   5.594  12.256  1.4089  0.2724 -0.1993
19058TIP3   OH278588   2.953   2.317   5.017 -0.6944  0.8556  0.2696
19058TIP3    H178589   2.879   2.377   5.013  0.6525  2.6098  0.8062
19058TIP3    H278590   3.027   2.372   5.043  0.7205 -0.9219  0.1253
19059TIP3   OH278591   2.744   6.394   2.701  0.2790 -0.1016  0.0216
19059TIP3    H178592   2.655   6.400   2.734  0.3246  0.1518  0.0996
19059TIP3    H278593   2.799   6.398   2.779  0.4634  2.5069 -0.2125
19060TIP3   OH278594   5.385   0.381   0.196 -0.2080  0.0981  0.7120
19060TIP3    H178595   5.336   0.358   0.118 -1.0851  0.1498  1.2349
19060TIP3    H278596   5.451   0.444   0.166  0.9405 -1.5997 -0.3710
19061TIP3   OH278597   0.136   3.355   1.493  0.0188  0.2472  1.2826
19061TIP3    H178598   0.146   3.444   1.460 -0.2250 -0.0353  0.4227
19061TIP3    H278599   0.121   3.302   1.415  1.0306 -0.6783  1.7010
19062TIP3   OH278600   0.785   4.537  13.357  1.0999 -0.0052 -0.5570
19062TIP3    H178601   0.806   4.608  13.296 -1.0703  1.3132  0.1643
19062TIP3    H278602   0.718   4.485  13.312  0.0351  0.5406  0.3672
19063TIP3   OH278603   2.869   1.867   5.036  0.4564  0.7459 -0.5175
19063TIP3    H178604   2.872   1.918   5.117 -0.1893  0.8650 -0.5660
19063TIP3    H278605   2.795   1.808   5.047  0.4645  0.6519 -0.9582
19064TIP3   OH278606   1.572   5.618   3.169  0.9530  0.6655  0.2356
19064TIP3    H178607   1.561   5.566   3.089 -0.9272 -0.6490  1.2920
19064TIP3    H278608   1.639   5.571   3.219  0.2463 -0.0125  0.5709
19065TIP3   OH278609   3.484   5.161   2.382  0.3342  0.3987 -0.0983
19065TIP3    H178610   3.505   5.095   2.316 -3.1238 -0.6895 -0.2066
19065TIP3    H278611   3.517   5.243   2.345  0.9647 -0.6239 -1.8751
19066TIP3   OH278612   5.219   2.859  13.739  1.0335 -0.5808 -0.4360
19066TIP3    H178613   5.133   2.901  13.731  1.0279 -0.6158 -0.5679
19066TIP3    H278614   5.205   2.769  13.711  1.3059 -0.3464 -1.3413
19067TIP3   OH278615   6.323   6.698  14.708  0.2352 -0.0259 -0.1670
19067TIP3    H178616   6.256   6.687  14.774 -0.4652 -0.1126 -0.8874
19067TIP3    H278617   6.402   6.720  14.757  0.2231 -2.1837  0.8573
19068TIP3   OH278618   5.164   4.824  13.948  0.3249  0.1122  0.2681
19068TIP3    H178619   5.210   4.881  14.009 -0.1197  0.9264 -0.1456
19068TIP3    H278620   5.076   4.815  13.985  0.4606 -0.5006  0.4526
19069TIP3   OH278621   5.906   4.651   0.842  0.1736 -0.1630  0.4183
19069TIP3    H178622   5.960   4.691   0.775 -0.6420  2.2004  1.1368
19069TIP3    H278623   5.952   4.668   0.924 -0.1880 -0.6880  0.7343
19070TIP3   OH278624   2.412   5.722  16.627 -0.6410 -0.1783 -0.0499
19070TIP3    H178625   2.349   5.764  16.687  0.0668 -0.9720  1.2738
19070TIP3    H278626   2.451   5.795  16.579 -2.7303  0.3158 -1.0535
19071TIP3   OH278627   3.005   0.352   6.677 -0.3245  0.3284 -0.6401
19071TIP3    H178628   3.092   0.358   6.637 -1.4202 -0.2893 -3.2326
19071TIP3    H278629   2.955   0.297   6.617 -2.2215 -0.1919  1.3618
19072TIP3   OH278630   3.439   3.469   3.678 -0.4031 -0.3353 -0.0195
19072TIP3    H178631   3.435   3.502   3.768 -1.3443  1.8704 -0.8149
19072TIP3    H278632   3.348   3.458   3.652 -0.1280 -1.3363 -0.5781
19073TIP3   OH278633   6.243   6.332  16.406  0.1200  0.3915  0.0897
19073TIP3    H178634   6.198   6.304  16.485 -0.3570 -3.1581 -1.3437
19073TIP3    H278635   6.327   6.287  16.408  1.1815  2.3042 -0.1837
19074TIP3   OH278636   6.715   4.311  13.887  0.8144 -0.4319  0.2809
19074TIP3    H178637   6.785   4.337  13.946  0.4878  2.1167 -0.4315
19074TIP3    H278638   6.635   4.318  13.940  0.8612 -1.3397  0.4839
19075TIP3   OH278639   0.592   0.727  12.991  0.2946 -0.0318 -0.1419
19075TIP3    H178640   0.652   0.786  12.945  0.9924 -0.5053  0.1420
19075TIP3    H278641   0.631   0.718  13.078 -0.2568 -0.2592  0.0815
19076TIP3   OH278642   2.473   0.665  14.638 -0.2002  0.3555  0.1453
19076TIP3    H178643   2.421   0.698  14.711  0.9179  1.1987  0.5742
19076TIP3    H278644   2.459   0.570  14.639 -0.1349  0.3525  1.4956
19077TIP3   OH278645   4.947   6.460   1.059  0.0501 -0.6154  0.0637
19077TIP3    H178646   5.014   6.396   1.082  0.3123 -1.1543 -2.1472
19077TIP3    H278647   4.932   6.509   1.140  1.3783 -2.0622  1.2091
19078TIP3   OH278648   0.346   6.188   3.106  0.6289  0.4352 -0.3300
19078TIP3    H178649   0.288   6.172   3.181 -1.4057  1.9739 -1.5432
19078TIP3    H278650   0.335   6.281   3.086  2.5382  0.4582 -1.4235
19079TIP3   OH278651   5.771   5.146  16.241  0.2515 -0.3490  0.0674
19079TIP3    H178652   5.833   5.175  16.175 -0.9280  0.3287 -0.7704
19079TIP3    H278653   5.699   5.209  16.236  0.8449  0.6372  3.0975
19080TIP3   OH278654   0.530   3.210  11.090  0.0354  0.4936 -0.3396
19080TIP3    H178655   0.549   3.240  11.001  1.6351  0.3493 -0.0625
19080TIP3    H278656   0.561   3.120  11.092  0.2645  0.5854  0.4472
19081TIP3   OH278657   6.469   1.588  10.704 -0.2928 -0.5114  0.7335
19081TIP3    H178658   6.496   1.566  10.793  2.3289  1.8287  0.6013
19081TIP3    H278659   6.462   1.684  10.704 -0.0861 -0.4716 -1.5890
19082TIP3   OH278660   2.530   2.981  14.334 -0.0708 -0.2163 -0.1849
19082TIP3    H178661   2.485   2.924  14.272  0.3471 -1.6073  0.7549
19082TIP3    H278662   2.552   3.059  14.284 -0.8395 -0.8003 -1.4450
19083TIP3   OH278663   3.617   5.728   4.007 -0.1622  0.2248 -0.1624
19083TIP3    H178664   3.696   5.762   4.049  0.7674 -0.2095 -1.5428
19083TIP3    H278665   3.548   5.744   4.071  1.0883  0.3260  1.2013
19084TIP3   OH278666   6.566   0.725   2.408  0.0342 -0.2907  0.1366
19084TIP3    H178667   6.645   0.746   2.357  0.6405 -0.6272  0.9318
19084TIP3    H278668   6.495   0.767   2.359  0.8704  1.2224  0.1745
19085TIP3   OH278669   0.213   1.680  16.509  0.3751 -0.6168 -0.2961
19085TIP3    H178670   0.195   1.749  16.446 -0.8563 -2.0972 -1.6256
19085TIP3    H278671   0.274   1.719  16.572  0.8691  1.1871 -1.8539
19086TIP3   OH278672   5.756   2.520  12.900  0.1913 -0.0675 -0.2603
19086TIP3    H178673   5.846   2.516  12.931  0.4333 -2.7665 -1.2108
19086TIP3    H278674   5.704   2.480  12.970 -0.1181  0.3248 -0.2639
19087TIP3   OH278675   0.673   3.648   5.870  0.0114  0.2779 -0.4157
19087TIP3    H178676   0.738   3.580   5.888 -0.3921 -0.4028 -1.4905
19087TIP3    H278677   0.708   3.695   5.794  0.3306  1.3388  0.3712
19088TIP3   OH278678   2.185   2.138   6.452  0.8595 -0.0022  0.0799
19088TIP3    H178679   2.254   2.088   6.410  0.0454 -0.5147 -0.6845
19088TIP3    H278680   2.147   2.190   6.381 -0.0238 -0.2875  0.3382
19089TIP3   OH278681   2.087   2.972  12.062  0.1977  0.1700 -0.2483
19089TIP3    H178682   2.027   3.028  12.013  0.5434  1.0158  0.2930
19089TIP3    H278683   2.164   2.963  12.006 -0.1442 -0.3367 -0.6378
19090TIP3   OH278684   4.210   1.816  15.551  0.4666  0.1746 -0.3315
19090TIP3    H178685   4.143   1.780  15.492  0.3019 -0.1223  0.0326
19090TIP3    H278686   4.232   1.743  15.609 -1.0257  1.0888  1.4551
19091TIP3   OH278687   1.841   4.748  16.371  0.3357 -0.0487  0.3375
19091TIP3    H178688   1.777   4.785  16.310  0.7725  0.0381 -0.0693
19091TIP3    H278689   1.846   4.655  16.348  0.3357 -0.0632  0.3933
19092TIP3   OH278690   0.263   0.334  16.989  0.2230  0.2842 -0.4970
19092TIP3    H178691   0.347   0.374  17.016 -0.1154  0.7957 -0.1883
19092TIP3    H278692   0.286   0.244  16.966  0.8538  0.4039 -0.3625
19093TIP3   OH278693   0.216   4.530   3.667  0.3719 -0.0305 -0.4863
19093TIP3    H178694   0.251   4.501   3.751 -0.6354 -0.6464 -0.2552
19093TIP3    H278695   0.177   4.615   3.685  1.5799  0.5752 -0.7057
19094TIP3   OH278696   0.382   1.018  11.926 -0.2516 -0.1240  0.6379
19094TIP3    H178697   0.386   1.063  11.842  1.5861 -2.6106 -0.6678
19094TIP3    H278698   0.407   1.084  11.990  0.7013  1.1715 -1.0345
19095TIP3   OH278699   0.980   3.765  12.201  0.6059  0.4920  0.2450
19095TIP3    H178700   1.031   3.831  12.250  1.9883  0.3829 -1.0137
19095TIP3    H278701   1.028   3.683  12.215 -0.3458 -0.0052  0.6656
19096TIP3   OH278702   4.758   1.651  14.005 -0.9568 -0.0498  0.0029
19096TIP3    H178703   4.682   1.614  14.052  1.4258 -1.7273  2.6818
19096TIP3    H278704   4.759   1.605  13.921 -3.1624  0.3277 -0.2589
19097TIP3   OH278705   0.630   0.736   5.198  0.2930  0.6358  0.3083
19097TIP3    H178706   0.632   0.832   5.199 -1.3698  0.6799 -0.0070
19097TIP3    H278707   0.670   0.711   5.281  2.0087  1.5714 -0.2167
19098TIP3   OH278708   5.559   6.316   3.545 -0.4182  0.2032 -0.2517
19098TIP3    H178709   5.480   6.286   3.498 -0.4154 -0.7727  0.3554
19098TIP3    H278710   5.599   6.379   3.485  0.0299 -1.6293 -1.9384
19099TIP3   OH278711   0.643   5.873   0.634  0.0803  0.5202 -0.2038
19099TIP3    H178712   0.595   5.799   0.669 -0.1403  0.5337 -0.4754
19099TIP3    H278713   0.706   5.834   0.573  0.8405  0.4472  0.6126
19100TIP3   OH278714   2.977   3.183   3.644  0.7268 -0.0478  0.1050
19100TIP3    H178715   2.894   3.167   3.598  0.2707 -0.9491  1.1933
19100TIP3    H278716   3.005   3.096   3.672  2.6046  0.1296 -1.1685
19101TIP3   OH278717   3.902   1.827   3.697 -0.4182 -0.3762 -0.2595
19101TIP3    H178718   3.830   1.817   3.634 -0.1094 -0.7516 -0.5556
19101TIP3    H278719   3.980   1.840   3.643 -0.3039  0.3097  0.0701
19102TIP3   OH278720   4.963   3.767   1.139  0.3385  0.1527  0.4829
19102TIP3    H178721   4.936   3.784   1.229 -0.4451  1.7372 -0.0362
19102TIP3    H278722   5.057   3.786   1.139  0.0629  1.5568  0.6354
19103TIP3   OH278723   5.590   2.727   1.615  0.1639 -0.5525  0.0583
19103TIP3    H178724   5.577   2.641   1.656 -1.9146 -0.0155  0.5548
19103TIP3    H278725   5.529   2.785   1.660  0.7855  0.9657 -1.0173
19104TIP3   OH278726   1.335   3.666  14.572  0.4971  0.4717  0.4783
19104TIP3    H178727   1.399   3.713  14.626 -0.1603  1.6930  0.2067
19104TIP3    H278728   1.316   3.726  14.500 -0.5018 -0.1376  0.2372
19105TIP3   OH278729   2.434   0.241  12.192  0.0273 -0.4414 -0.2189
19105TIP3    H178730   2.373   0.178  12.155  1.1051 -1.0099 -1.0431
19105TIP3    H278731   2.519   0.218  12.155  0.9991 -0.4980  1.9581
19106TIP3   OH278732   1.733   4.884   1.762 -0.0332 -0.4128 -0.0292
19106TIP3    H178733   1.740   4.907   1.854  1.5893  1.4663 -0.5817
19106TIP3    H278734   1.658   4.936   1.731 -0.4934 -0.9418  0.1779
19107TIP3   OH278735   2.279   5.356  14.845  0.6248 -0.7443  0.2686
19107TIP3    H178736   2.309   5.446  14.857 -0.2245 -0.5192  0.7558
19107TIP3    H278737   2.353   5.302  14.874  1.4842 -0.2230 -0.8932
19108TIP3   OH278738   2.004   1.755  15.754  0.1955 -0.3919 -0.1011
19108TIP3    H178739   1.988   1.847  15.736  1.3258 -0.3491 -0.9951
19108TIP3    H278740   1.955   1.708  15.687 -1.4153 -0.5095  1.1232
19109TIP3   OH278741   4.985   5.265  12.392 -0.2972  0.5008 -0.1689
19109TIP3    H178742   4.967   5.192  12.451 -0.7169  0.4152 -0.4025
19109TIP3    H278743   5.008   5.224  12.309 -4.5810  0.6296 -1.5191
19110TIP3   OH278744   1.171   2.394  11.758 -0.1093  0.6112  0.4405
19110TIP3    H178745   1.148   2.318  11.812 -0.0873  1.0537  1.0728
19110TIP3    H278746   1.184   2.357  11.670 -2.7762  0.2923  0.1326
19111TIP3   OH278747   0.486   6.434   3.785  0.1676  0.0797 -0.0451
19111TIP3    H178748   0.518   6.344   3.794 -0.8763 -0.5095 -1.8605
19111TIP3    H278749   0.482   6.467   3.875 -1.7101 -2.5067  0.8994
19112TIP3   OH278750   0.103   2.165   5.985 -0.7129  0.0017 -0.0797
19112TIP3    H178751   0.054   2.203   6.058 -0.5066  0.2847 -0.0888
19112TIP3    H278752   0.100   2.070   6.001  0.5616  0.1374  1.0827
19113TIP3   OH278753   1.750   3.178  12.763  0.3673  0.8233 -0.2637
19113TIP3    H178754   1.688   3.248  12.742  2.5811  2.9366 -0.0002
19113TIP3    H278755   1.796   3.162  12.681 -1.6367 -1.9753 -0.9156
19114TIP3   OH278756   4.805   1.442  11.715 -0.1999  0.5517 -0.0922
19114TIP3    H178757   4.878   1.496  11.746 -0.3711  0.7881 -0.1023
19114TIP3    H278758   4.795   1.375  11.783  0.1000  0.4532 -0.1448
19115TIP3   OH278759   6.151   1.400   4.134  0.3483  0.1083  0.0902
19115TIP3    H178760   6.173   1.466   4.069  2.3308 -0.4232  0.1887
19115TIP3    H278761   6.183   1.436   4.217  0.0569 -0.2963  0.3824
19116TIP3   OH278762   1.817   0.619  15.077  0.4810 -0.0197  0.1608
19116TIP3    H178763   1.784   0.699  15.035  2.2697  0.0218 -1.2280
19116TIP3    H278764   1.819   0.554  15.007  2.1152 -0.3449  0.4721
19117TIP3   OH278765   5.898   3.434   3.450  0.1142  0.4652 -0.1846
19117TIP3    H178766   5.842   3.370   3.494 -0.6231  0.8052 -0.6096
19117TIP3    H278767   5.838   3.484   3.395  0.7180  1.4002  0.0000
19118TIP3   OH278768   1.139   5.928   4.447  0.0874 -0.1299  0.0693
19118TIP3    H178769   1.170   5.963   4.364 -0.9811 -2.2307 -1.2448
19118TIP3    H278770   1.057   5.884   4.425  0.7007 -2.2528  1.9097
19119TIP3   OH278771   5.782   4.636  12.486 -0.3753  0.6009 -0.4985
19119TIP3    H178772   5.842   4.677  12.423  0.7039  2.3182  1.5598
19119TIP3    H278773   5.710   4.698  12.493 -0.1624  0.7416  0.4543
19120TIP3   OH278774   0.577   5.994  15.287  0.1782 -0.0526 -0.2733
19120TIP3    H178775   0.620   5.974  15.370 -0.4424 -1.0249 -0.1874
19120TIP3    H278776   0.600   6.086  15.271 -0.8659  0.5799  1.6666
19121TIP3   OH278777   4.003   5.975   3.059  0.4081 -0.0079  0.8884
19121TIP3    H178778   3.989   6.037   2.987  1.3970 -0.5038  0.2643
19121TIP3    H278779   4.013   5.890   3.016 -1.4504 -0.6928  1.7692
19122TIP3   OH278780   4.131   0.858   4.261 -0.2645  0.2497  0.4544
19122TIP3    H178781   4.075   0.930   4.290  0.9593  0.2716  2.9493
19122TIP3    H278782   4.071   0.783   4.256 -1.1771  1.0167 -0.3340
19123TIP3   OH278783   6.424   0.982   3.851 -0.2358  0.5881 -0.6517
19123TIP3    H178784   6.376   1.033   3.787 -0.8567  2.6058  1.3575
19123TIP3    H278785   6.459   1.046   3.913  1.0457 -1.2151  0.5758
19124TIP3   OH278786   4.464   1.882  12.808  0.0361  0.1130  0.2096
19124TIP3    H178787   4.387   1.902  12.861 -0.6464  2.2106 -1.5214
19124TIP3    H278788   4.437   1.808  12.754 -0.9702  1.2210 -0.8112
19125TIP3   OH278789   4.863   6.658   1.256 -0.4696 -0.8006  0.6424
19125TIP3    H178790   4.812   6.667   1.176 -1.9096 -0.4875  1.5742
19125TIP3    H278791   4.886   6.747   1.281  0.7346 -0.9489  0.1220
19126TIP3   OH278792   3.790   6.362   0.784  0.2314  0.5801 -0.2420
19126TIP3    H178793   3.870   6.374   0.834  1.0704 -1.8314 -0.9476
19126TIP3    H278794   3.786   6.439   0.727  2.3839  0.4537 -0.6202
19127TIP3   OH278795   5.831   0.931  17.023  0.2197  0.1063 -0.7044
19127TIP3    H178796   5.870   1.017  17.039 -0.2048  0.4491 -1.4719
19127TIP3    H278797   5.892   0.869  17.063 -0.9221  0.9147  2.4490
19128TIP3   OH278798   0.248   2.763  11.604 -0.2877 -0.1410  0.5126
19128TIP3    H178799   0.320   2.826  11.596  0.0609 -0.5028  0.7961
19128TIP3    H278800   0.177   2.802  11.553  0.7369 -0.6944 -1.3994
19129TIP3   OH278801   6.744   1.589   4.230  0.2754 -0.1450 -0.0246
19129TIP3    H178802   6.712   1.586   4.139  0.9508 -1.3193 -0.2408
19129TIP3    H278803   6.740   1.498   4.259  1.1981  0.0520  0.7292
19130TIP3   OH278804   3.023   6.265   2.074 -0.2947  0.4854  0.5202
19130TIP3    H178805   3.022   6.170   2.062 -0.5721  0.6031 -0.3766
19130TIP3    H278806   3.023   6.276   2.170 -4.2916 -0.4298  0.7363
19131TIP3   OH278807   3.242   3.262   0.118 -0.1041 -0.1329 -0.0769
19131TIP3    H178808   3.263   3.231   0.206 -1.1621  0.2377  0.3090
19131TIP3    H278809   3.233   3.357   0.126  1.1498  0.0703 -0.8651
19132TIP3   OH278810   2.423   0.956  15.015  0.2755 -0.0696 -0.0137
19132TIP3    H178811   2.466   1.028  14.969 -0.6121 -0.5475 -1.6404
19132TIP3    H278812   2.435   0.976  15.108  1.1218  1.5161 -0.4488
19133TIP3   OH278813   2.987   1.860   3.640 -0.1428 -0.0052  0.0097
19133TIP3    H178814   2.984   1.784   3.697 -0.1547  0.4492  0.6115
19133TIP3    H278815   2.977   1.824   3.552  0.0450 -0.7166  0.2794
19134TIP3   OH278816   5.282   6.500   0.807  0.2785  0.6841  0.2381
19134TIP3    H178817   5.360   6.477   0.857 -0.5934  0.6316  1.5992
19134TIP3    H278818   5.248   6.417   0.774  0.2447  0.6058  0.4715
19135TIP3   OH278819   0.365   3.351  13.234  0.4804  0.0450  0.2396
19135TIP3    H178820   0.458   3.338  13.212  0.4648 -0.1192  0.2708
19135TIP3    H278821   0.318   3.327  13.154  0.6335  3.0493 -0.7960
19136TIP3   OH278822   6.305   3.039  15.402  0.1152 -0.5439 -0.2517
19136TIP3    H178823   6.388   3.067  15.440 -0.1807  0.6654 -0.4875
19136TIP3    H278824   6.313   2.943  15.396  2.0150 -0.3273 -1.5601
19137TIP3   OH278825   0.006   5.166   1.286  0.6527  0.6873 -0.1471
19137TIP3    H178826  -0.052   5.091   1.289  0.9163  0.4766 -0.2644
19137TIP3    H278827   0.071   5.143   1.219  2.4554 -0.2411  1.8779
19138TIP3   OH278828   1.544   4.187  11.085 -0.1384  0.0027  0.2324
19138TIP3    H178829   1.520   4.164  10.995 -0.9218 -1.0484  0.6962
19138TIP3    H278830   1.638   4.202  11.082 -0.5112  2.2391 -1.2184
19139TIP3   OH278831   3.411   4.422   1.053 -0.1398  0.1566 -0.3687
19139TIP3    H178832   3.497   4.391   1.026  0.1954  0.8944 -0.1582
19139TIP3    H278833   3.428   4.501   1.104 -1.0420  1.3977 -1.9050
19140TIP3   OH278834   0.739   3.780  16.606 -0.7264  0.2040  0.5406
19140TIP3    H178835   0.663   3.822  16.647 -0.5426  0.7389  0.3413
19140TIP3    H278836   0.706   3.751  16.521 -1.5212 -2.2683  1.6543
19141TIP3   OH278837   1.378   3.661  12.494  0.5747 -0.6896 -0.0552
19141TIP3    H178838   1.463   3.668  12.453  1.2964 -2.5406  1.0653
19141TIP3    H278839   1.395   3.668  12.588 -0.5856 -0.3340  0.1467
19142TIP3   OH278840   5.829   5.594  11.813 -0.3472  1.0860 -0.5522
19142TIP3    H178841   5.749   5.646  11.823 -0.7588  0.7312 -1.9285
19142TIP3    H278842   5.821   5.525  11.879 -1.5723  0.5711 -1.2257
19143TIP3   OH278843   4.741   0.789   0.369 -0.2151  0.4826 -0.0279
19143TIP3    H178844   4.777   0.877   0.369  0.4477  0.2439  2.5935
19143TIP3    H278845   4.758   0.755   0.457 -0.5988 -2.2031 -0.9259
19144TIP3   OH278846   5.795   5.339  11.436  0.2878 -0.6409  0.4417
19144TIP3    H178847   5.718   5.312  11.386  1.3408 -0.2517 -1.4437
19144TIP3    H278848   5.868   5.292  11.394  1.0434 -1.2299  2.3759
19145TIP3   OH278849   5.938   3.747  16.792  0.7804 -0.0091  0.0111
19145TIP3    H178850   5.947   3.670  16.847  0.9956 -1.0044 -1.3881
19145TIP3    H278851   5.941   3.713  16.702 -1.3175  1.3647 -0.6201
19146TIP3   OH278852   3.224   1.090   4.374 -0.1787 -0.5093  1.0293
19146TIP3    H178853   3.200   1.182   4.360 -2.0746 -1.2448 -0.7144
19146TIP3    H278854   3.313   1.083   4.339 -0.6150  0.3117 -0.2683
19147TIP3   OH278855   2.768   6.328  11.796  0.2327 -0.3237  0.2923
19147TIP3    H178856   2.728   6.398  11.744  1.0977  0.2896  0.4402
19147TIP3    H278857   2.769   6.252  11.737 -0.8650 -0.2605  0.1904
19148TIP3   OH278858   2.312   2.927   5.861  0.1365  0.0094 -0.1737
19148TIP3    H178859   2.253   2.899   5.792 -0.6380  1.0057  0.0561
19148TIP3    H278860   2.257   2.932   5.939  0.8823 -0.6028  0.3982
19149TIP3   OH278861   6.613   3.329  12.990 -0.2233  0.5231  0.2207
19149TIP3    H178862   6.676   3.400  12.975 -0.4184  0.4677 -0.9320
19149TIP3    H278863   6.644   3.285  13.069  0.6749  1.0518  0.1670
19150TIP3   OH278864   5.159   0.781   4.398 -0.0947 -0.2238 -0.0066
19150TIP3    H178865   5.106   0.762   4.321 -0.3569  0.1332  0.0849
19150TIP3    H278866   5.164   0.698   4.446  1.1617 -0.7846 -1.0728
19151TIP3   OH278867   4.996   5.236   1.757  0.1273  0.5791  0.1878
19151TIP3    H178868   5.027   5.303   1.696  0.6429 -0.4507 -0.7006
19151TIP3    H278869   4.946   5.175   1.703  0.2253 -0.1217  0.8759
19152TIP3   OH278870   1.773   2.079   2.491 -0.0763 -0.4309 -0.6246
19152TIP3    H178871   1.678   2.090   2.501  0.1691  0.4070  0.9080
19152TIP3    H278872   1.796   2.134   2.416 -0.5523  0.7368  0.0677
19153TIP3   OH278873   1.593   4.397   5.663 -0.3010  0.1234  0.1251
19153TIP3    H178874   1.673   4.443   5.686  0.4397 -1.0743 -0.0058
19153TIP3    H278875   1.524   4.442   5.712  0.0832  2.6111 -1.5452
19154TIP3   OH278876   0.479   4.538  16.697 -0.5683 -0.1141 -0.0092
19154TIP3    H178877   0.522   4.554  16.613  0.6875 -1.7701  0.2849
19154TIP3    H278878   0.520   4.599  16.757  0.4275 -0.7395 -0.0368
19155TIP3   OH278879   3.714   6.492  12.383 -0.5983 -0.1335  0.2150
19155TIP3    H178880   3.695   6.434  12.456 -1.2936  0.6207  0.6405
19155TIP3    H278881   3.685   6.444  12.306 -0.0266 -0.8580  0.4397
19156TIP3   OH278882   3.255   2.801   3.957  0.0913  0.2862 -0.4516
19156TIP3    H178883   3.276   2.803   4.050 -0.7233  1.3413 -0.2825
19156TIP3    H278884   3.335   2.832   3.914  0.2859  0.3214 -0.0658
19157TIP3   OH278885   2.326   5.092   1.612 -0.5116 -0.0613  0.3701
19157TIP3    H178886   2.243   5.045   1.598 -0.0460 -1.3892  1.7916
19157TIP3    H278887   2.377   5.075   1.533 -0.7276 -1.1678  0.4556
19158TIP3   OH278888   5.924   1.604   4.540 -0.1725  0.5213  0.0249
19158TIP3    H178889   6.007   1.576   4.579  0.2220  0.0520 -1.1166
19158TIP3    H278890   5.912   1.545   4.465 -1.2509  0.9584 -0.1550
19159TIP3   OH278891   2.579   1.078   4.759  0.2225  0.0563 -0.1515
19159TIP3    H178892   2.516   1.147   4.736  0.5208  0.6562  0.8024
19159TIP3    H278893   2.656   1.097   4.706 -0.1797 -0.3418 -0.8935
19160TIP3   OH278894   2.108   5.991   1.276 -0.2777  0.2607 -0.3786
19160TIP3    H178895   2.098   6.084   1.255 -1.7942  0.1536 -0.1751
19160TIP3    H278896   2.184   5.963   1.226  0.7690  1.8419  0.2987
19161TIP3   OH278897   0.767   3.665  15.006 -0.1973 -0.0279 -0.0742
19161TIP3    H178898   0.848   3.716  15.009  1.4465 -2.5648  0.5923
19161TIP3    H278899   0.780   3.596  15.072 -2.4619 -1.1289 -0.7308
19162TIP3   OH278900   5.455   0.651   1.105 -0.2857 -0.2639 -0.0961
19162TIP3    H178901   5.479   0.729   1.154 -0.9281  0.2818 -0.6417
19162TIP3    H278902   5.362   0.639   1.122 -0.4648 -0.1992 -0.9843
19163TIP3   OH278903   3.075   6.401  11.198 -0.5073 -0.9729  0.7370
19163TIP3    H178904   3.027   6.463  11.144  0.0976 -1.3623 -0.2549
19163TIP3    H278905   3.110   6.454  11.270 -0.6841 -0.3254  0.3460
19164TIP3   OH278906   2.552   2.446   3.631 -0.1761  0.0474  0.8092
19164TIP3    H178907   2.531   2.539   3.622  0.7897  0.1166 -0.9806
19164TIP3    H278908   2.494   2.402   3.568 -0.6930 -0.5808  1.7110
19165TIP3   OH278909   2.759   1.661  12.885 -0.1604 -0.0165 -0.7615
19165TIP3    H178910   2.777   1.742  12.837 -0.0788 -0.0047 -0.7117
19165TIP3    H278911   2.669   1.672  12.916  0.3040  0.6342  0.3820
19166TIP3   OH278912   1.845   0.235  14.592  0.2194  0.2173 -0.0638
19166TIP3    H178913   1.844   0.158  14.534  2.1712  0.3651 -0.3494
19166TIP3    H278914   1.754   0.247  14.618  0.0030 -2.7318  0.7106
19167TIP3   OH278915   5.035   5.362  14.619  0.6043  0.0534  0.1003
19167TIP3    H178916   5.084   5.424  14.673  0.8145 -0.1211  0.1100
19167TIP3    H278917   5.084   5.356  14.537 -0.5864  1.5459 -0.7378
19168TIP3   OH278918   5.313   4.298  15.189  0.0053 -0.2644 -0.5248
19168TIP3    H178919   5.356   4.243  15.255 -0.0889  1.1617  0.7485
19168TIP3    H278920   5.351   4.269  15.106 -0.3177 -2.5147  0.0664
19169TIP3   OH278921   3.407   1.485   5.609  0.2964 -0.0919 -0.0406
19169TIP3    H178922   3.423   1.481   5.703  2.2283 -1.4823 -0.3809
19169TIP3    H278923   3.495   1.489   5.570 -0.4647  0.2172 -1.7927
19170TIP3   OH278924   3.444   4.539   5.769  0.1203  0.2145 -0.0889
19170TIP3    H178925   3.438   4.482   5.692  1.4642  0.2018 -0.1844
19170TIP3    H278926   3.531   4.524   5.804  0.4896  2.2037 -0.1198
19171TIP3   OH278927   1.332   6.737  10.712 -0.2537  0.1832 -0.5484
19171TIP3    H178928   1.418   6.710  10.679  0.1397 -1.7308  1.8900
19171TIP3    H278929   1.272   6.670  10.680 -0.5731  0.6332 -0.8977
19172TIP3   OH278930   5.858   6.072   2.573 -0.3257  0.4818  0.0300
19172TIP3    H178931   5.796   6.021   2.625  1.3718 -0.1015  1.5606
19172TIP3    H278932   5.868   6.021   2.492  0.2604 -0.8921  0.9468
19173TIP3   OH278933   5.729   3.408   1.205 -0.1059  0.1126 -0.2024
19173TIP3    H178934   5.646   3.455   1.202 -0.0431  0.1623 -1.4521
19173TIP3    H278935   5.705   3.318   1.225 -0.4315  0.2101 -0.1545
19174TIP3   OH278936   5.880   1.883  15.534 -0.2754 -0.0546  0.1010
19174TIP3    H178937   5.928   1.802  15.548  1.0848  0.9494  1.3152
19174TIP3    H278938   5.907   1.912  15.446  1.0171  0.2764  0.6012
19175TIP3   OH278939   5.280   5.362  16.362  0.1624 -0.2993  0.3213
19175TIP3    H178940   5.192   5.398  16.360  0.0333 -0.5543  1.1795
19175TIP3    H278941   5.269   5.275  16.401  0.9864  0.2423  1.8014
19176TIP3   OH278942   6.550   0.364   4.560 -0.3163 -0.3291  0.5517
19176TIP3    H178943   6.505   0.347   4.643 -0.8243 -1.1415  0.1173
19176TIP3    H278944   6.642   0.344   4.579 -0.0624  1.6288  1.5231
19177TIP3   OH278945   4.933   6.635  16.694 -0.3205  0.4692 -0.7808
19177TIP3    H178946   4.942   6.706  16.758 -0.9249  0.4768 -0.7054
19177TIP3    H278947   4.863   6.664  16.636  1.5154  1.3436 -2.6179
19178TIP3   OH278948   0.794   3.213   3.977 -0.2049 -0.1781  0.4706
19178TIP3    H178949   0.810   3.264   4.056 -0.0459  1.2507 -0.4802
19178TIP3    H278950   0.735   3.143   4.006 -0.4223  0.5335  1.7781
19179TIP3   OH278951   1.937   3.835  14.408  0.2053  0.1381 -0.3015
19179TIP3    H178952   2.027   3.812  14.431 -1.0712 -1.7334  3.1757
19179TIP3    H278953   1.926   3.924  14.442  0.4889  0.0383  0.0559
19180TIP3   OH278954   0.444   5.630   4.943  0.0651 -0.1190 -0.5348
19180TIP3    H178955   0.523   5.650   4.894 -0.0296  0.4482 -0.4564
19180TIP3    H278956   0.458   5.541   4.977  1.2686  0.5315  0.6900
19181TIP3   OH278957   4.140   1.021  13.638 -0.1055  0.6167  0.4356
19181TIP3    H178958   4.143   1.058  13.550  1.0412  2.3020  1.1525
19181TIP3    H278959   4.047   1.007  13.655 -0.4538  1.7010 -0.4730
19182TIP3   OH278960   2.033   4.650  17.004 -0.3908  0.0183  0.0104
19182TIP3    H178961   2.124   4.679  17.000 -0.2107 -0.6814 -1.1066
19182TIP3    H278962   1.997   4.671  16.918 -0.6183 -1.8434 -0.3866
19183TIP3   OH278963   3.026   6.059   4.783  0.1337 -0.9160 -0.5525
19183TIP3    H178964   3.036   5.976   4.829  1.9191 -0.4957 -0.1219
19183TIP3    H278965   3.049   6.126   4.847 -1.7473 -0.0317 -0.7522
19184TIP3   OH278966   6.511   1.513   2.299  0.5268 -0.2875 -0.6952
19184TIP3    H178967   6.471   1.430   2.323  0.8004 -0.1322  0.3168
19184TIP3    H278968   6.532   1.555   2.383  2.7094 -0.3337 -1.1745
19185TIP3   OH278969   3.384   3.294   6.456 -0.1538  0.1016 -0.3105
19185TIP3    H178970   3.323   3.223   6.436  0.4786 -0.4374 -0.3305
19185TIP3    H278971   3.430   3.310   6.374  1.0017 -0.7214  0.1663
19186TIP3   OH278972   0.069   5.099  12.704 -0.5495 -0.5273  0.0566
19186TIP3    H178973  -0.020   5.066  12.703 -1.1793  1.1505 -0.8574
19186TIP3    H278974   0.070   5.164  12.775 -0.1885 -0.1844 -0.2617
19187TIP3   OH278975   4.746   1.542   1.298  0.0359  0.1977  0.4459
19187TIP3    H178976   4.663   1.575   1.266  1.1640  2.3980 -0.3010
19187TIP3    H278977   4.728   1.518   1.389 -1.7033 -0.5453 -0.0685
19188TIP3   OH278978   4.678   4.694   4.603  0.4396  0.7719 -0.4199
19188TIP3    H178979   4.711   4.622   4.550  0.2546  0.4353 -0.0721
19188TIP3    H278980   4.624   4.653   4.670 -1.8726  1.3918 -1.8348
19189TIP3   OH278981   0.595   0.214  11.473 -0.8754 -0.2039  0.1851
19189TIP3    H178982   0.590   0.216  11.569 -0.8253  0.0955  0.1834
19189TIP3    H278983   0.689   0.215  11.455 -0.8651 -1.2342  0.1491
19190TIP3   OH278984   3.620   5.778   0.919  0.3139 -0.0790  0.4854
19190TIP3    H178985   3.622   5.768   0.824 -1.5271 -1.2904  0.5562
19190TIP3    H278986   3.546   5.837   0.935  0.6447  0.1565  1.1694
19191TIP3   OH278987   2.261   0.195  13.250 -0.3039  0.1494 -0.5486
19191TIP3    H178988   2.241   0.145  13.171 -0.6357 -0.3763 -0.1402
19191TIP3    H278989   2.357   0.194  13.255 -0.2712  0.4340 -1.1018
19192TIP3   OH278990   6.782   5.833  16.766 -0.0699 -0.4904 -0.0159
19192TIP3    H178991   6.740   5.851  16.849  2.8358  0.2258  1.3849
19192TIP3    H278992   6.857   5.778  16.789  0.0236 -1.3848 -2.3279
19193TIP3   OH278993   5.306   2.749   4.538 -0.0843 -0.1772 -0.3018
19193TIP3    H178994   5.289   2.678   4.477  1.4930 -0.0063 -0.9824
19193TIP3    H278995   5.234   2.810   4.526 -0.4177 -0.7360 -1.1147
19194TIP3   OH278996   5.774   0.278   2.237  0.4976  0.4759  0.2214
19194TIP3    H178997   5.705   0.334   2.272  0.2072  1.0589 -1.2554
19194TIP3    H278998   5.732   0.228   2.167  0.5854 -2.1012  1.9059
19195TIP3   OH278999   6.642   6.240  14.905  0.2522 -0.2226 -0.0568
19195TIP3    H179000   6.590   6.317  14.882  2.1985  0.2913 -3.0160
19195TIP3    H279001   6.577   6.170  14.915 -1.2795  1.1359 -0.2923
19196TIP3   OH279002   3.033   2.511  15.864  0.4577  0.4924  0.2638
19196TIP3    H179003   3.064   2.526  15.953  1.0189 -1.7517  0.4722
19196TIP3    H279004   3.072   2.428  15.838  1.1488  1.5934 -2.4765
19197TIP3   OH279005   0.294   2.207  14.749 -0.3918  0.2905  0.5097
19197TIP3    H179006   0.358   2.278  14.752 -0.1328  0.0575  0.5430
19197TIP3    H279007   0.341   2.134  14.709 -0.7515  0.2349  0.1833
19198TIP3   OH279008   4.657   1.490   5.908  0.2647  0.1358  0.1488
19198TIP3    H179009   4.669   1.401   5.875  1.8137 -0.4304  2.1486
19198TIP3    H279010   4.565   1.509   5.892 -0.5061 -2.4847  1.1991
19199TIP3   OH279011   5.334   5.430  13.453 -0.4972 -0.5491 -0.2301
19199TIP3    H179012   5.321   5.398  13.364  0.6491 -0.5624 -0.4011
19199TIP3    H279013   5.423   5.403  13.475  0.7148  2.9228 -0.5618
19200TIP3   OH279014   4.479   4.800  14.570 -0.5095 -0.5906  0.2834
19200TIP3    H179015   4.497   4.782  14.662 -1.8176  0.1677  0.6892
19200TIP3    H279016   4.400   4.750  14.550 -1.3865  0.8548  0.1176
19201TIP3   OH279017   1.516   6.021  11.122 -0.4639  0.1301  0.2979
19201TIP3    H179018   1.545   5.944  11.075 -1.6248 -1.8293  2.6619
19201TIP3    H279019   1.425   6.003  11.145 -0.0672  1.1386  2.9086
19202TIP3   OH279020   5.607   5.661  13.888  0.0876  0.4833 -1.0075
19202TIP3    H179021   5.682   5.602  13.882 -0.0227  0.1759  0.4681
19202TIP3    H279022   5.541   5.623  13.830  0.4869 -0.1427 -1.0526
19203TIP3   OH279023   0.003   2.632   0.022 -0.1502 -0.2565  0.3600
19203TIP3    H179024   0.094   2.625  -0.007 -0.4991 -0.8032 -0.6373
19203TIP3    H279025  -0.020   2.544   0.050 -0.3878 -0.1327  0.5495
19204TIP3   OH279026   1.900   0.820   5.283 -0.3138 -0.0451 -0.1468
19204TIP3    H179027   1.950   0.767   5.345 -0.3413  0.0710 -0.0261
19204TIP3    H279028   1.900   0.768   5.202  1.0141  0.4855 -0.5021
19205TIP3   OH279029   3.774   1.169   0.417  0.0313  0.3462 -0.2005
19205TIP3    H179030   3.703   1.142   0.359  0.5622 -0.4327 -0.4913
19205TIP3    H279031   3.832   1.221   0.361  1.2921 -1.6144 -0.7314
19206TIP3   OH279032   4.548   2.759   4.788  0.8282  0.5891  0.3327
19206TIP3    H179033   4.497   2.757   4.708  0.7778 -1.0643  0.3922
19206TIP3    H279034   4.637   2.779   4.760  1.0876 -1.3846 -0.2992
19207TIP3   OH279035   3.564   0.681  14.065 -0.2784  0.5143  0.8041
19207TIP3    H179036   3.599   0.768  14.087 -0.6898  0.9774 -0.3125
19207TIP3    H279037   3.552   0.684  13.970 -2.0159 -0.1203  0.9859
19208TIP3   OH279038   6.378   0.137  13.452  0.2338 -0.1340  0.0654
19208TIP3    H179039   6.326   0.216  13.462  0.8708  0.3290 -0.2454
19208TIP3    H279040   6.314   0.067  13.439 -0.2721  0.5817 -1.3581
19209TIP3   OH279041   1.468   0.548  12.495 -0.0818 -0.1989  0.4708
19209TIP3    H179042   1.554   0.515  12.467  1.0893  2.1984  1.1101
19209TIP3    H279043   1.415   0.546  12.415  0.5928 -1.6545  0.0553
19210TIP3   OH279044   5.639   4.549  12.074 -0.2374 -0.2261 -0.6597
19210TIP3    H179045   5.623   4.643  12.080 -0.1163 -0.3003  0.9691
19210TIP3    H279046   5.598   4.522  11.992 -2.7493  0.7429  0.2337
19211TIP3   OH279047   0.974   4.572   5.523 -0.0136 -0.0704 -0.1921
19211TIP3    H179048   0.925   4.529   5.593 -1.2335  1.6519  0.0430
19211TIP3    H279049   1.063   4.579   5.559 -0.7727  1.3850  1.4931
19212TIP3   OH279050   5.114   2.717  16.616 -0.2809 -0.4159 -0.4801
19212TIP3    H179051   5.115   2.784  16.548  1.2019  0.3625  0.2744
19212TIP3    H279052   5.182   2.745  16.678 -2.1328 -0.6762  1.7397
19213TIP3   OH279053   3.876   0.991  13.687 -0.3491  0.4264 -0.5410
19213TIP3    H179054   3.830   0.910  13.667 -0.2294  0.5161 -1.1698
19213TIP3    H279055   3.808   1.049  13.723 -0.1005 -0.5391  1.5544
19214TIP3   OH279056   5.135   0.801   2.036  0.1050  0.1469 -0.5393
19214TIP3    H179057   5.180   0.804   2.121 -2.7088  1.7477  0.9642
19214TIP3    H279058   5.087   0.718   2.037  1.1019 -0.4555 -1.1637
19215TIP3   OH279059   6.317   4.866   4.821  0.1721  0.4053 -0.1540
19215TIP3    H179060   6.400   4.877   4.774  0.4749 -0.0183  0.2815
19215TIP3    H279061   6.317   4.935   4.887  0.1133  0.4960 -0.2490
19216TIP3   OH279062   2.892   3.831   1.167 -0.0845 -0.0665 -0.3957
19216TIP3    H179063   2.933   3.783   1.240  1.7569  1.3723 -0.4597
19216TIP3    H279064   2.963   3.880   1.127 -1.4557  0.6895 -1.9765
19217TIP3   OH279065   5.278   4.780  13.713 -0.4689  0.2468  0.2369
19217TIP3    H179066   5.231   4.798  13.794  0.4398  0.4133  0.7412
19217TIP3    H279067   5.326   4.699  13.732  0.3227  0.6823  0.1344
19218TIP3   OH279068   4.064   3.784   2.390 -0.5766 -0.3790  0.3526
19218TIP3    H179069   4.116   3.731   2.450 -0.4656  0.2340  0.8006
19218TIP3    H279070   4.085   3.750   2.304  0.7758  0.0396  0.5060
19219TIP3   OH279071   3.518   2.817   1.266 -0.0886  0.1288  0.0553
19219TIP3    H179072   3.456   2.824   1.339 -1.1289 -0.1632 -0.7883
19219TIP3    H279073   3.594   2.867   1.295 -0.3604 -0.2338  1.4704
19220TIP3   OH279074   0.352   4.314  15.323  0.6024 -0.2521 -0.2577
19220TIP3    H179075   0.444   4.336  15.334  0.5463 -1.1710  2.3999
19220TIP3    H279076   0.321   4.295  15.412 -2.7351  2.3539 -0.7481
19221TIP3   OH279077   0.846   2.141   0.850 -0.0609  0.1601  0.3789
19221TIP3    H179078   0.911   2.097   0.905  1.1269  0.5074 -0.7342
19221TIP3    H279079   0.829   2.224   0.895 -0.8030 -0.5553  1.4224
19222TIP3   OH279080   3.945   3.775  12.897 -0.2757 -0.3584 -0.3437
19222TIP3    H179081   3.980   3.798  12.811  0.1448 -0.4123 -0.1857
19222TIP3    H279082   4.013   3.801  12.958 -0.9668  0.5788  0.0547
19223TIP3   OH279083   2.072   5.262  14.654 -0.4113 -0.8085  0.0594
19223TIP3    H179084   2.130   5.324  14.698 -1.7901  0.6793 -0.1793
19223TIP3    H279085   2.034   5.210  14.726  1.6931 -2.2698  0.1687
19224TIP3   OH279086   3.505   4.578  11.232 -0.4100 -0.0880 -0.3051
19224TIP3    H179087   3.519   4.628  11.313 -0.9051  0.6416 -0.6661
19224TIP3    H279088   3.563   4.503  11.241 -0.5570 -0.0878  0.7959
19225TIP3   OH279089   4.871   4.750   2.316  0.2832 -0.2171  0.1670
19225TIP3    H179090   4.931   4.791   2.254  1.6784 -2.5707 -0.0961
19225TIP3    H279091   4.869   4.810   2.391  1.7828  0.6213 -0.4540
19226TIP3   OH279092   3.656   1.490  15.279 -0.7808  0.0679  0.0397
19226TIP3    H179093   3.638   1.399  15.304  0.4293 -0.5504 -1.2453
19226TIP3    H279094   3.654   1.489  15.183 -0.1966  1.2889  0.0087
19227TIP3   OH279095   5.904   1.037  13.544  1.0284 -0.7543 -0.3428
19227TIP3    H179096   5.961   1.104  13.583  0.0025  0.4654 -0.9143
19227TIP3    H279097   5.863   0.993  13.619  1.0032 -0.1205  0.0149
19228TIP3   OH279098   6.177   2.131  15.594  0.1166  0.3872 -0.0938
19228TIP3    H179099   6.100   2.169  15.551  0.8708  1.8662 -0.1695
19228TIP3    H279100   6.191   2.047  15.550 -0.1001  1.1447 -1.6229
19229TIP3   OH279101   0.546   1.116  11.049  0.0713  0.7683 -0.6322
19229TIP3    H179102   0.625   1.062  11.057 -0.6800 -0.3346 -0.4535
19229TIP3    H279103   0.575   1.205  11.068  1.2856  0.3811 -0.6555
19230TIP3   OH279104   3.064   1.019  12.368  0.0251 -0.1487  0.0260
19230TIP3    H179105   2.990   0.988  12.419 -0.6901  0.8808 -0.3648
19230TIP3    H279106   3.136   0.960  12.391 -0.8175 -0.9267  0.6789
19231TIP3   OH279107   5.658   3.675   2.464 -0.2441 -0.1564 -0.2842
19231TIP3    H179108   5.603   3.746   2.430  0.5176 -0.1179 -1.4600
19231TIP3    H279109   5.605   3.634   2.532 -1.1426  0.8189 -0.3898
19232TIP3   OH279110   0.685   6.416  13.664 -0.6073  0.1941  0.4881
19232TIP3    H179111   0.679   6.511  13.653 -1.2651  0.0885 -0.1089
19232TIP3    H279112   0.779   6.399  13.672 -0.1639  0.5104 -3.1627
19233TIP3   OH279113   4.843   4.955   0.654  0.3030 -0.0278 -0.8178
19233TIP3    H179114   4.839   4.862   0.675  0.4246  0.0805 -0.3002
19233TIP3    H279115   4.767   4.970   0.598  0.6586 -0.5701 -1.4519
19234TIP3   OH279116   4.617   3.939  13.819  0.4778 -0.1060 -0.0309
19234TIP3    H179117   4.690   3.889  13.855  1.1698 -1.6651 -3.4559
19234TIP3    H279118   4.656   3.997  13.754 -1.1621  0.1345 -0.8404
19235TIP3   OH279119   2.516   2.846   1.452 -0.1041  0.1977 -0.1207
19235TIP3    H179120   2.453   2.911   1.420 -0.4377 -0.3256 -0.5425
19235TIP3    H279121   2.541   2.797   1.374  0.6921  0.2810  0.0805
19236TIP3   OH279122   0.606   3.185   2.601  0.2735  0.4963 -0.4014
19236TIP3    H179123   0.567   3.108   2.642 -0.8651 -0.0682 -2.4827
19236TIP3    H279124   0.700   3.175   2.614  0.0282 -0.4632  0.6655
19237TIP3   OH279125   5.893   6.496   0.800  0.2262 -0.1617 -0.7895
19237TIP3    H179126   5.888   6.454   0.886  3.0561 -2.3884 -1.6220
19237TIP3    H279127   5.866   6.428   0.738 -0.2521  0.9238 -1.7925
19238TIP3   OH279128   0.792   2.463   0.626  0.2075  0.3938 -0.4709
19238TIP3    H179129   0.802   2.374   0.594  0.3065 -0.2451  1.2812
19238TIP3    H279130   0.881   2.499   0.626  0.3448  0.0588  0.0228
19239TIP3   OH279131   4.689   0.734  15.167 -0.3289  0.1725  0.3952
19239TIP3    H179132   4.659   0.796  15.234 -1.3665 -0.2524  0.3407
19239TIP3    H279133   4.774   0.768  15.139 -0.9842  1.7023  0.2008
19240TIP3   OH279134   2.395   0.226   6.339  0.4600  0.3133  0.2755
19240TIP3    H179135   2.313   0.275   6.331  1.0770  1.2679 -0.2231
19240TIP3    H279136   2.445   0.273   6.406  1.1079  0.4377 -0.2936
19241TIP3   OH279137   2.512   2.348   2.837  0.1132 -0.5172 -0.0200
19241TIP3    H179138   2.457   2.271   2.848 -0.8142 -0.0749 -1.4138
19241TIP3    H279139   2.457   2.422   2.864  0.1422 -0.1038 -1.0724
19242TIP3   OH279140   1.108   2.605   1.861  0.4666 -0.6101 -0.4762
19242TIP3    H179141   1.112   2.690   1.906 -2.1266  0.2195 -1.7271
19242TIP3    H279142   1.193   2.598   1.816  0.8106  1.2008 -0.1510
19243TIP3   OH279143   2.149   0.464   6.027 -0.5984  0.3046  0.3605
19243TIP3    H179144   2.152   0.481   6.121 -0.5424  0.5821  0.3094
19243TIP3    H279145   2.239   0.479   5.996 -0.7238  0.6994  0.1820
19244TIP3   OH279146   2.867   1.294  11.691  0.2002  0.4285 -0.0854
19244TIP3    H179147   2.927   1.288  11.766  1.4675 -0.0251 -1.1150
19244TIP3    H279148   2.780   1.301  11.730  0.6766 -1.6411  1.4348
19245TIP3   OH279149   3.368   4.906  11.848 -0.5417  0.5809  0.0701
19245TIP3    H179150   3.381   4.829  11.903 -0.6398  0.8678  0.5024
19245TIP3    H279151   3.457   4.932  11.822 -0.4749  0.6028  0.3162
19246TIP3   OH279152   5.320   3.045  12.710 -0.0579  0.8532  0.0822
19246TIP3    H179153   5.238   3.091  12.723  0.1525  1.0064  0.8869
19246TIP3    H279154   5.330   2.991  12.789 -0.0059 -0.1107 -0.5675
19247TIP3   OH279155   3.046   2.942   3.617  0.0909  0.5121  0.6227
19247TIP3    H179156   3.133   2.925   3.583 -0.1852 -0.2227  0.2720
19247TIP3    H279157   2.987   2.896   3.557 -0.4916  0.4707  1.2151
19248TIP3   OH279158   1.096   4.128  12.260  0.1481  0.6284 -0.4054
19248TIP3    H179159   1.101   4.084  12.345 -0.3724 -0.5879 -1.0017
19248TIP3    H279160   1.184   4.120  12.224 -0.0566 -0.3227 -0.7049
19249TIP3   OH279161   5.686   5.187   3.382  0.5630  0.1116 -0.0571
19249TIP3    H179162   5.702   5.247   3.455 -0.7892 -0.8582  1.0660
19249TIP3    H279163   5.619   5.231   3.329 -0.9561 -0.6894  1.1534
19250TIP3   OH279164   4.101   3.837  14.895  0.7841  0.0179  0.0935
19250TIP3    H179165   4.032   3.812  14.833  0.8976  1.0872 -0.4663
19250TIP3    H279166   4.153   3.757  14.906 -2.6015 -1.9390  3.2969
19251TIP3   OH279167   0.155   2.974  15.165  0.2335 -0.1962 -0.1388
19251TIP3    H179168   0.124   3.024  15.241  1.3176  2.7702 -1.5973
19251TIP3    H279169   0.194   2.895  15.203  1.8992  1.8198  2.5192
19252TIP3   OH279170   4.843   6.288  12.939 -0.1824 -0.1451 -0.0080
19252TIP3    H179171   4.785   6.223  12.899 -0.9163  0.5141 -0.0153
19252TIP3    H279172   4.802   6.308  13.023  0.2688  0.0073  0.1782
19253TIP3   OH279173   1.451   4.816  16.945 -0.0366  0.4933  0.3244
19253TIP3    H179174   1.440   4.835  17.038 -0.8986 -0.2499  0.3770
19253TIP3    H279175   1.539   4.848  16.925 -0.6141  2.5363  0.8993
19254TIP3   OH279176   0.144   4.039  12.829  0.1886 -0.4899 -0.0076
19254TIP3    H179177   0.090   3.961  12.843 -0.3377 -0.4063 -1.4313
19254TIP3    H279178   0.232   4.013  12.856  0.4792 -2.3198 -2.4829
19255TIP3   OH279179   5.775   0.725   0.779  0.9608  0.0855  0.4119
19255TIP3    H179180   5.824   0.716   0.861  1.6987  3.3135  0.4023
19255TIP3    H279181   5.831   0.780   0.725  0.7491 -2.4752 -2.5322
19256TIP3   OH279182   2.006   1.448   6.254  0.0702 -0.3588  0.2227
19256TIP3    H179183   1.987   1.355   6.244  0.2590 -0.7304  2.9580
19256TIP3    H279184   2.096   1.451   6.284  0.4432  0.8025 -0.9545
19257TIP3   OH279185   4.349   5.706   0.610  0.0321  0.5927  0.4857
19257TIP3    H179186   4.333   5.650   0.686  2.4238  1.1804  1.4821
19257TIP3    H279187   4.399   5.651   0.549 -1.1625  0.3830 -0.3243
19258TIP3   OH279188   5.344   4.468   4.260  0.4711  0.0336 -0.0109
19258TIP3    H179189   5.334   4.417   4.341  0.3020 -0.0443 -0.0826
19258TIP3    H279190   5.415   4.424   4.213 -0.2328 -0.6356 -0.4633
19259TIP3   OH279191   1.533   5.499   2.479  0.6070 -0.4270 -0.4414
19259TIP3    H179192   1.512   5.489   2.572 -1.5553 -0.2079 -0.8886
19259TIP3    H279193   1.598   5.570   2.478 -1.2395  1.3562  0.7126
19260TIP3   OH279194   2.784   1.969  11.239  0.4984 -0.5060 -0.0233
19260TIP3    H179195   2.778   1.874  11.232  0.0765 -0.5489  0.8810
19260TIP3    H279196   2.707   2.002  11.193 -0.1978 -0.6605  1.0082
19261TIP3   OH279197   5.902   4.070   2.261 -0.2572 -0.2047 -0.6663
19261TIP3    H179198   5.878   4.145   2.207 -1.1222  0.7257  0.9758
19261TIP3    H279199   5.978   4.031   2.216 -1.1352  0.3584 -2.6822
19262TIP3   OH279200   0.439   5.507  12.772 -0.4078  0.4532  0.5892
19262TIP3    H179201   0.456   5.599  12.750 -0.4468  0.3515  0.1125
19262TIP3    H279202   0.359   5.486  12.724  1.3001 -0.7291 -1.9075
19263TIP3   OH279203   2.513   4.626   1.318  0.2355 -0.6086  1.1827
19263TIP3    H179204   2.430   4.657   1.283 -0.1504 -0.9169  1.8181
19263TIP3    H279205   2.517   4.534   1.291  1.3051 -0.0657 -0.5681
19264TIP3   OH279206   3.600   4.209  12.439 -0.2882  0.0933 -0.0003
19264TIP3    H179207   3.554   4.281  12.482  1.8041  1.7823 -0.5358
19264TIP3    H279208   3.688   4.210  12.477  0.5101 -0.6039 -1.7808
19265TIP3   OH279209   2.902   2.537  13.363 -0.1496 -0.0807 -0.8673
19265TIP3    H179210   2.914   2.456  13.312  0.8130  0.3681 -1.3701
19265TIP3    H279211   2.886   2.507  13.452  1.6426 -0.7994 -0.7760
19266TIP3   OH279212   6.322   2.429   0.406 -0.3480 -0.7710 -0.0834
19266TIP3    H179213   6.356   2.349   0.366 -0.3869 -1.0729  0.4973
19266TIP3    H279214   6.363   2.499   0.355 -1.2518 -1.1655 -1.3600
19267TIP3   OH279215   1.176   2.578  16.634  0.0294 -0.0592  0.1820
19267TIP3    H179216   1.173   2.542  16.545 -2.6017  2.0128 -0.6427
19267TIP3    H279217   1.246   2.644  16.631  0.9423 -1.0276  0.0725
19268TIP3   OH279218   0.600   5.198  16.879 -0.0623 -0.5519  0.1247
19268TIP3    H179219   0.544   5.275  16.888  0.1453 -0.2495 -1.0326
19268TIP3    H279220   0.623   5.174  16.969 -0.9079  0.1607  0.5374
19269TIP3   OH279221   1.559   3.384   4.517 -0.1660 -0.1654 -0.3320
19269TIP3    H179222   1.558   3.395   4.612 -0.7986 -0.5033 -0.2947
19269TIP3    H279223   1.637   3.431   4.488  0.4612 -0.7227  0.4315
19270TIP3   OH279224   0.438   2.358  12.486 -0.5646  0.2626  0.1850
19270TIP3    H179225   0.360   2.411  12.503 -0.3817 -0.2724  2.7791
19270TIP3    H279226   0.404   2.278  12.446 -1.0533  1.2578 -1.4745
19271TIP3   OH279227   2.969   3.316  13.262 -0.2424  0.0846 -0.1015
19271TIP3    H179228   2.970   3.229  13.302  1.3693 -0.1702 -0.6369
19271TIP3    H279229   2.876   3.338  13.253 -0.6801 -1.8923 -0.6320
19272TIP3   OH279230   0.957   6.270   4.813 -0.4930 -0.3830  0.2277
19272TIP3    H179231   0.983   6.193   4.763 -1.7547 -1.2545  0.9106
19272TIP3    H279232   0.971   6.245   4.904 -0.6456  0.3022  0.4386
19273TIP3   OH279233   5.991   1.639   3.284 -0.3452  0.1083  0.3477
19273TIP3    H179234   6.034   1.724   3.279 -0.9172  0.3079 -1.1763
19273TIP3    H279235   5.927   1.648   3.355 -0.8190  1.1238 -0.2104
19274TIP3   OH279236   2.213   2.740  14.423 -0.0001  0.0823  0.6040
19274TIP3    H179237   2.237   2.792  14.346  0.8133  1.2918  1.6465
19274TIP3    H279238   2.254   2.654  14.408  1.6139  0.8582  0.4680
19275TIP3   OH279239   6.369   4.186  13.471  0.0019 -0.3082  0.1191
19275TIP3    H179240   6.337   4.224  13.553  0.0819 -0.6339  0.3037
19275TIP3    H279241   6.295   4.193  13.411 -0.4426 -1.1007  0.5554
19276TIP3   OH279242   2.406   0.660  15.297  0.0931  0.2833  0.2521
19276TIP3    H179243   2.440   0.628  15.380 -0.9802 -1.1298  0.1647
19276TIP3    H279244   2.441   0.600  15.232  1.2930  1.6488 -0.3930
19277TIP3   OH279245   4.015   1.088   0.933  0.0507 -0.1865  0.0041
19277TIP3    H179246   4.065   1.009   0.915 -0.3220 -0.6524  0.9828
19277TIP3    H279247   3.997   1.126   0.847 -1.1596 -2.0330 -0.5902
19278TIP3   OH279248   3.125   1.909  16.588  0.4079 -0.1738 -0.3457
19278TIP3    H179249   3.144   1.977  16.652  2.5382  0.6788 -1.8330
19278TIP3    H279250   3.078   1.954  16.518  0.0448 -0.6583 -0.4185
19279TIP3   OH279251   2.464   4.533  11.875  0.6837 -0.1175 -0.1430
19279TIP3    H179252   2.538   4.472  11.876  1.7098  1.1154  0.0103
19279TIP3    H279253   2.444   4.543  11.782  2.6731  1.8692 -0.3868
19280TIP3   OH279254   4.691   3.131   0.833  0.2044  0.6280 -0.5878
19280TIP3    H179255   4.761   3.092   0.885 -1.2849 -1.7892 -0.3295
19280TIP3    H279256   4.691   3.082   0.751 -0.9470  0.8367 -0.7243
19281TIP3   OH279257   0.730   6.617   5.151 -0.0997 -0.2756  0.0662
19281TIP3    H179258   0.705   6.581   5.066 -0.2604  0.0559 -0.0281
19281TIP3    H279259   0.703   6.550   5.214  3.9848 -2.5318 -0.4177
19282TIP3   OH279260   3.945   3.586  14.118  0.8573 -0.1971 -0.4627
19282TIP3    H179261   3.911   3.507  14.076  1.3914 -0.5128 -0.3000
19282TIP3    H279262   3.928   3.573  14.211  0.7996 -0.0498 -0.4527
19283TIP3   OH279263   1.774   4.506  16.645 -0.2574  0.9698  0.2732
19283TIP3    H179264   1.782   4.501  16.550  1.3876  2.1250  0.3235
19283TIP3    H279265   1.680   4.500  16.662 -0.3914 -1.9732 -1.2385
19284TIP3   OH279266   6.176   1.410  17.196  0.1493 -0.0241 -0.3400
19284TIP3    H179267   6.164   1.319  17.167  0.3123 -0.2277  0.2129
19284TIP3    H279268   6.204   1.457  17.118 -1.2361 -0.1737 -0.9361
19285TIP3   OH279269   4.898   3.155   5.179  0.0691  0.2816  0.0547
19285TIP3    H179270   4.831   3.093   5.206  1.1922 -1.8410 -1.8416
19285TIP3    H279271   4.869   3.185   5.093  0.6101  0.7603  0.0351
19286TIP3   OH279272   2.988   2.925   4.225 -0.1523  0.0598  0.3212
19286TIP3    H179273   2.937   2.918   4.306 -0.1899 -0.3271  0.2629
19286TIP3    H279274   2.968   2.845   4.177  1.8137 -0.8990  1.0444
19287TIP3   OH279275   4.251   4.171   3.891  0.3879  0.2120  0.2470
19287TIP3    H179276   4.210   4.087   3.870  0.5611  0.6119 -1.7708
19287TIP3    H279277   4.178   4.230   3.908  0.1312  0.5371 -1.8500
19288TIP3   OH279278   4.696   0.296  15.468  0.1692  0.1374 -0.6313
19288TIP3    H179279   4.742   0.251  15.398  0.3618  1.2657 -1.2406
19288TIP3    H279280   4.662   0.376  15.428  0.3635  0.8475  0.5742
19289TIP3   OH279281   3.512   4.702  12.891  0.7732  0.1320  0.2853
19289TIP3    H179282   3.500   4.797  12.882 -0.9400  0.2041  2.9663
19289TIP3    H279283   3.425   4.668  12.910  1.6981 -1.7443  1.3131
19290TIP3   OH279284   5.646   3.161  11.251  0.0075  0.2668 -0.0959
19290TIP3    H179285   5.674   3.200  11.169  0.6490  0.2637  0.1230
19290TIP3    H279286   5.553   3.140  11.237 -0.0178  0.7332 -0.6376
19291TIP3   OH279287   4.785   3.131  16.095  0.7902  0.2926  0.3815
19291TIP3    H179288   4.815   3.083  16.018 -2.1292 -2.0739  0.5673
19291TIP3    H279289   4.768   3.219  16.064  1.8730 -0.0114 -1.1209
19292TIP3   OH279290   4.116   2.097   0.457  0.3434 -0.4244 -0.3702
19292TIP3    H179291   4.138   2.103   0.364 -0.7636  0.7985 -0.5725
19292TIP3    H279292   4.177   2.032   0.493  0.3947 -1.3166 -2.0616
19293TIP3   OH279293   5.874   6.037  13.806 -0.2049  0.5922 -0.0903
19293TIP3    H179294   5.867   6.132  13.802 -0.7799  0.5917  0.6539
19293TIP3    H279295   5.898   6.019  13.897 -0.4935  0.0073 -0.1249
19294TIP3   OH279296   1.143   0.888  14.082  0.7736  0.2555 -0.1513
19294TIP3    H179297   1.142   0.966  14.138 -1.0478  0.2435 -0.1607
19294TIP3    H279298   1.096   0.822  14.131  1.1419 -0.4501 -0.7344
19295TIP3   OH279299   5.935   0.254  10.592 -0.3446 -0.2280  0.3529
19295TIP3    H179300   6.003   0.320  10.605 -0.7011  0.0329  0.8996
19295TIP3    H279301   5.969   0.176  10.636 -1.3988  0.5527  2.6467
19296TIP3   OH279302   5.668   4.331  11.186 -0.0260 -0.2651 -0.6048
19296TIP3    H179303   5.612   4.377  11.124 -0.0727 -0.4579 -0.7088
19296TIP3    H279304   5.649   4.371  11.271 -0.9841 -0.9272 -0.4958
19297TIP3   OH279305   0.692   4.153   0.856 -0.5826  0.0141 -0.0790
19297TIP3    H179306   0.597   4.163   0.855 -0.3839  2.5958  1.1442
19297TIP3    H279307   0.714   4.137   0.948  0.1183 -1.2349 -0.4553
19298TIP3   OH279308   3.811   5.942  14.334 -0.4193 -0.3619 -0.0970
19298TIP3    H179309   3.873   5.895  14.390  0.2728  2.1320  1.3112
19298TIP3    H279310   3.738   5.964  14.392 -0.7999  0.1516 -0.7586
19299TIP3   OH279311   6.089   1.624  12.500 -0.1608 -0.2871 -0.0952
19299TIP3    H179312   6.005   1.625  12.453 -0.1688  0.4039 -0.0686
19299TIP3    H279313   6.082   1.550  12.559  0.1373 -1.6352 -1.7133
19300TIP3   OH279314   5.670   2.475   2.359 -0.4961  0.3660  0.0216
19300TIP3    H179315   5.682   2.529   2.281 -0.0241  1.5119  0.8794
19300TIP3    H279316   5.736   2.506   2.421 -0.7853 -0.6139  0.8481
19301TIP3   OH279317   6.229   6.058   0.706 -0.1041 -0.2006 -0.3250
19301TIP3    H179318   6.200   6.074   0.796  2.3725 -0.7677  0.6391
19301TIP3    H279319   6.196   5.971   0.685 -1.5911  0.3603 -0.3790
19302TIP3   OH279320   4.191   5.958   3.487 -0.1815  0.0906  0.1126
19302TIP3    H179321   4.207   5.872   3.447 -1.0757  0.5244 -1.2135
19302TIP3    H279322   4.276   6.002   3.482  0.0184 -0.3161 -0.1968
19303TIP3   OH279323   4.297   2.869   0.723 -0.3509 -0.0232  0.2936
19303TIP3    H179324   4.351   2.885   0.800 -1.2284 -0.1784  0.9435
19303TIP3    H279325   4.307   2.949   0.670 -1.4900  1.0305  1.6107
19304TIP3   OH279326   5.869   4.861  13.298  0.0641 -0.3768 -0.0912
19304TIP3    H179327   5.877   4.906  13.382 -3.1174 -0.1948  0.1912
19304TIP3    H279328   5.790   4.807  13.308 -0.2463 -0.4908 -2.8809
19305TIP3   OH279329   1.909   3.718   1.381 -0.4201  0.2516  0.5061
19305TIP3    H179330   1.983   3.728   1.441  0.5645  1.2350 -0.8532
19305TIP3    H279331   1.901   3.623   1.370 -0.3596  0.0731  1.8627
19306TIP3   OH279332   0.013   3.398   4.103 -0.4609 -0.2977 -0.6375
19306TIP3    H179333   0.102   3.372   4.080 -0.2394  0.0824 -0.2133
19306TIP3    H279334  -0.042   3.356   4.037  0.1334  0.5031 -1.6424
19307TIP3   OH279335   0.838   0.423  14.839  0.0928  0.0307 -0.6325
19307TIP3    H179336   0.756   0.455  14.878 -0.1605 -2.6549  1.1536
19307TIP3    H279337   0.875   0.500  14.795 -1.6384  2.1582  1.4982
19308TIP3   OH279338   5.677   4.957  16.575 -0.0189 -0.3635  0.2007
19308TIP3    H179339   5.703   4.872  16.610 -0.3267 -0.2763  0.6512
19308TIP3    H279340   5.635   5.001  16.649 -1.3855 -0.4682 -0.5030
19309TIP3   OH279341   5.152   5.420  15.315  0.6259  0.0142  0.7525
19309TIP3    H179342   5.209   5.360  15.266  0.0476 -0.6390  0.8608
19309TIP3    H279343   5.131   5.490  15.253  0.9438 -0.1308  0.4776
19310TIP3   OH279344   1.282   1.251  15.550  0.0777 -0.0943  0.2642
19310TIP3    H179345   1.202   1.197  15.554  0.1847 -0.2298  0.5811
19310TIP3    H279346   1.255   1.330  15.503  0.2728 -1.0585 -1.5280
19311TIP3   OH279347   3.808   5.372  15.995  0.2785 -0.2589  0.0005
19311TIP3    H179348   3.868   5.299  16.014  0.0397 -0.3520  0.4108
19311TIP3    H279349   3.752   5.377  16.072 -0.9599 -0.8852 -0.8287
19312TIP3   OH279350   1.693   6.499  12.819 -0.0325 -0.6475  0.0283
19312TIP3    H179351   1.761   6.546  12.771 -1.1887 -0.9158 -1.9173
19312TIP3    H279352   1.683   6.548  12.901  0.2269  1.3014 -1.0787
19313TIP3   OH279353   3.963   5.833  16.225 -0.2435  0.6482  0.2202
19313TIP3    H179354   3.929   5.913  16.265 -0.8479  2.1239 -3.0866
19313TIP3    H279355   4.033   5.805  16.284 -1.2985  2.5062  2.4550
19314TIP3   OH279356   1.610   3.569  12.802  0.2037  0.2693 -0.3220
19314TIP3    H179357   1.688   3.527  12.837  1.0595  3.0186  1.2373
19314TIP3    H279358   1.549   3.571  12.876 -0.0909  1.0905 -0.5835
19315TIP3   OH279359   5.018   5.443  16.339  0.1557  0.3206 -0.1568
19315TIP3    H179360   4.983   5.434  16.428  1.0844  0.3197  0.2138
19315TIP3    H279361   5.006   5.536  16.318  0.7742  0.5074  0.3206
19316TIP3   OH279362   0.802   1.605   3.609  0.4779  0.3157 -0.3464
19316TIP3    H179363   0.773   1.532   3.663  1.5115  0.1454 -0.0087
19316TIP3    H279364   0.862   1.566   3.546  0.2618  0.7199 -0.8089
19317TIP3   OH279365   1.663   5.253  17.078 -0.2506  0.3163 -0.1177
19317TIP3    H179366   1.596   5.287  17.136  0.1387  0.1179  0.4510
19317TIP3    H279367   1.616   5.231  16.997 -1.1918 -1.4957  0.8831
19318TIP3   OH279368   6.378   6.221  13.542 -0.1639 -0.4274 -0.1127
19318TIP3    H179369   6.392   6.313  13.561 -1.1170 -0.2436 -0.3135
19318TIP3    H279370   6.404   6.176  13.623 -1.8148  0.1737  0.7855
19319TIP3   OH279371   0.139   0.252  14.358  0.2007 -0.2280  0.8460
19319TIP3    H179372   0.166   0.305  14.434 -1.1957 -0.3040  1.4174
19319TIP3    H279373   0.043   0.256  14.360  0.1315 -1.3762 -0.1179
19320TIP3   OH279374   0.470   1.707   0.144 -0.2026  0.0238  0.1558
19320TIP3    H179375   0.463   1.613   0.155  1.9103 -0.0420  1.1835
19320TIP3    H279376   0.379   1.738   0.138 -0.9343 -1.9212  1.0174
19321TIP3   OH279377   1.218   4.186  11.291 -0.5465 -0.3220 -0.7255
19321TIP3    H179378   1.229   4.103  11.337  1.1206 -0.3596 -1.1625
19321TIP3    H279379   1.167   4.163  11.212 -1.6051 -0.6065  0.0247
19322TIP3   OH279380   0.221   1.213   3.229 -0.5445 -0.5242 -0.0224
19322TIP3    H179381   0.311   1.244   3.218  0.0814 -2.3851 -0.4914
19322TIP3    H279382   0.200   1.232   3.320  0.6662 -0.8617  0.3434
19323TIP3   OH279383   2.913   1.127  15.018 -0.1407  0.1817 -0.2296
19323TIP3    H179384   2.884   1.208  15.060  3.6441  2.2640 -1.3619
19323TIP3    H279385   2.972   1.087  15.083 -0.1363 -0.4570 -0.6252
19324TIP3   OH279386   4.741   6.293  17.080 -0.7011 -0.2931 -0.4442
19324TIP3    H179387   4.750   6.258  16.991  0.0505 -3.4977  0.8285
19324TIP3    H279388   4.690   6.228  17.127 -0.1649  0.8334  1.7813
19325TIP3   OH279389   6.751   1.578   5.157  0.2662  0.1864  0.3692
19325TIP3    H179390   6.797   1.594   5.074  1.0347  0.4333  0.8342
19325TIP3    H279391   6.788   1.496   5.189 -0.6313 -0.3433  0.0656
19326TIP3   OH279392   2.182   4.037  11.697  0.1057 -0.3024  0.0618
19326TIP3    H179393   2.229   4.035  11.614  0.2309  1.8061  0.0550
19326TIP3    H279394   2.192   3.949  11.732  0.0746 -1.2230 -2.1332
19327TIP3   OH279395   6.458   0.609   0.321 -0.1628  0.1480 -0.2422
19327TIP3    H179396   6.369   0.625   0.351 -0.8400  0.8349 -2.5431
19327TIP3    H279397   6.460   0.515   0.301  0.1233 -0.1956  1.3606
19328TIP3   OH279398   3.395   6.261  12.184  0.1415 -0.0185 -0.0076
19328TIP3    H179399   3.338   6.262  12.107  0.5297 -1.1996 -0.3185
19328TIP3    H279400   3.482   6.279  12.149  0.1364  0.6742  0.3256
19329TIP3   OH279401   1.863   5.785   0.401  0.2638 -0.5557 -0.4258
19329TIP3    H179402   1.786   5.741   0.436  1.1607 -0.5923  1.5747
19329TIP3    H279403   1.829   5.865   0.362 -0.7067 -0.1390  1.2221
19330TIP3   OH279404   1.104   2.409  16.417 -0.1561  0.0291 -0.3491
19330TIP3    H179405   1.037   2.364  16.469 -0.0958  0.1970 -0.1257
19330TIP3    H279406   1.168   2.341  16.395  0.4446  0.2001  0.8204
19331TIP3   OH279407   6.635   1.445  12.887 -0.2324  0.2531  0.0072
19331TIP3    H179408   6.565   1.472  12.947  1.7846  0.2354  2.4209
19331TIP3    H279409   6.663   1.527  12.845 -1.5127  0.2948 -0.7828
19332TIP3   OH279410   5.305   1.229  16.792 -0.2277 -0.1534  0.3168
19332TIP3    H179411   5.372   1.258  16.730 -1.1736 -0.5732 -0.9114
19332TIP3    H279412   5.331   1.269  16.875  0.4375  1.2982 -0.5717
19333TIP3   OH279413   2.929   5.043   1.163  0.1823 -0.2902  0.5490
19333TIP3    H179414   3.023   5.048   1.146  0.2112  1.2334  1.0202
19333TIP3    H279415   2.912   5.115   1.225 -1.4903  0.2696 -0.5125
19334TIP3   OH279416   5.643   6.351   3.798  0.3102  0.7876  0.1242
19334TIP3    H179417   5.608   6.328   3.712 -1.0336  1.4953  0.4638
19334TIP3    H279418   5.577   6.409   3.836  0.6685  0.1272  1.8134
19335TIP3   OH279419   6.690   5.315  13.686  0.1796 -0.1505 -0.4301
19335TIP3    H179420   6.666   5.386  13.746 -1.4958 -0.0452 -1.1946
19335TIP3    H279421   6.782   5.298  13.704  0.0274  0.7652  1.2633
19336TIP3   OH279422   0.768   2.444  15.538 -0.5749 -0.3703 -0.2282
19336TIP3    H179423   0.711   2.395  15.596  2.8561 -2.2422  1.7443
19336TIP3    H279424   0.773   2.391  15.458 -0.5890 -0.8687  0.1011
19337TIP3   OH279425   5.515   0.576  10.594 -0.1059 -0.0925 -1.2672
19337TIP3    H179426   5.442   0.587  10.533  0.4225  0.5028 -1.8010
19337TIP3    H279427   5.587   0.545  10.539  0.2302 -0.0473 -0.8520
19338TIP3   OH279428   1.323   6.684  13.783 -0.4595 -0.2777  0.5078
19338TIP3    H179429   1.289   6.671  13.871  0.2500 -1.3866  0.6239
19338TIP3    H279430   1.342   6.596  13.751 -3.0175 -0.1050 -1.6950
19339TIP3   OH279431   3.609   1.640   3.431  0.1937  0.6133  0.4083
19339TIP3    H179432   3.697   1.677   3.433  0.2427  0.4821  0.7309
19339TIP3    H279433   3.622   1.547   3.449  0.1243  0.3374 -0.9132
19340TIP3   OH279434   3.476   5.563  11.388  0.8300  0.0488  0.4795
19340TIP3    H179435   3.442   5.631  11.330  0.5048  0.3567  1.0247
19340TIP3    H279436   3.565   5.547  11.356  0.3619 -0.3774 -0.6127
19341TIP3   OH279437   2.828   1.343  14.311  0.2028  0.0039  0.1444
19341TIP3    H179438   2.880   1.363  14.389  0.7057 -0.6286 -0.0241
19341TIP3    H279439   2.878   1.275  14.266 -2.5328 -3.2868  1.8666
19342TIP3   OH279440   2.213   0.662  15.936 -0.6321  0.2773 -0.1699
19342TIP3    H179441   2.118   0.668  15.924 -0.7335 -1.0861 -0.2251
19342TIP3    H279442   2.250   0.693  15.853 -0.9081  3.8622  0.9709
19343TIP3   OH279443   6.438   1.792  14.049 -0.2728 -0.4844  0.1455
19343TIP3    H179444   6.386   1.795  14.129 -0.4701  0.9855 -0.0124
19343TIP3    H279445   6.380   1.754  13.983  0.1237 -2.3423  0.8593
19344TIP3   OH279446   0.065   2.115  13.946 -0.0132  0.1535 -0.6210
19344TIP3    H179447   0.008   2.038  13.941  0.0700  0.0259  0.3111
19344TIP3    H279448   0.029   2.176  13.882 -1.8398  0.5094  0.7300
19345TIP3   OH279449   1.961   6.312  11.991 -0.0643 -0.4209 -0.3485
19345TIP3    H179450   1.895   6.294  11.924 -1.8980 -0.8806  1.5470
19345TIP3    H279451   1.964   6.232  12.043 -0.3669  0.7632  1.5277
19346TIP3   OH279452   4.867   4.464  16.991  0.1248 -0.1246  0.2703
19346TIP3    H179453   4.938   4.457  17.055  1.3653 -0.1455 -1.0771
19346TIP3    H279454   4.911   4.462  16.906 -1.6699 -2.2344 -0.6428
19347TIP3   OH279455   5.035   5.183   4.659 -0.4226  0.0054  0.1546
19347TIP3    H179456   5.061   5.139   4.578 -1.7211 -1.0088  0.2691
19347TIP3    H279457   5.044   5.276   4.639  1.2489 -0.2825 -0.4763
19348TIP3   OH279458   2.117   4.460   2.501 -0.4373  0.1036  0.5892
19348TIP3    H179459   2.064   4.478   2.424 -0.8640 -0.4003  0.7654
19348TIP3    H279460   2.127   4.545   2.544 -0.0447  0.4184 -0.1153
19349TIP3   OH279461   3.677   5.386   3.267 -0.1620 -0.3351  0.0039
19349TIP3    H179462   3.639   5.299   3.281  0.3560 -0.6622 -0.5982
19349TIP3    H279463   3.648   5.437   3.342  0.7977 -1.4607  1.1568
19350TIP3   OH279464   1.391   0.514   5.730  0.2768 -0.2479  0.3891
19350TIP3    H179465   1.381   0.516   5.635  0.1957 -1.2710  0.3796
19350TIP3    H279466   1.418   0.603   5.753  1.8668 -0.4165 -0.7740
19351TIP3   OH279467   2.609   2.852   0.469 -0.0581  0.3578 -0.2170
19351TIP3    H179468   2.558   2.892   0.540  1.1644  0.5931  0.5407
19351TIP3    H279469   2.589   2.907   0.392 -0.8988  0.4784  0.0775
19352TIP3   OH279470   5.070   1.994   1.583  0.4232 -0.1616  0.2082
19352TIP3    H179471   5.153   1.950   1.604  0.5904 -0.1822 -0.5050
19352TIP3    H279472   5.064   1.990   1.488  0.7640  1.9545  0.0791
19353TIP3   OH279473   1.310   1.530   4.468 -0.2531 -0.4616  0.3515
19353TIP3    H179474   1.392   1.574   4.489 -1.4809  2.8307 -1.4532
19353TIP3    H279475   1.337   1.456   4.413  1.5093  0.7256 -0.4494
19354TIP3   OH279476   0.100   2.910  16.160  0.9558  0.2604 -0.6127
19354TIP3    H179477   0.147   2.929  16.241 -0.0508 -2.4929  0.6553
19354TIP3    H279478   0.158   2.942  16.091  2.2825  1.7100  1.1192
19355TIP3   OH279479   3.472   0.773  14.745 -0.6178  0.1572 -0.0474
19355TIP3    H179480   3.420   0.707  14.791  0.5383  0.1105  1.2055
19355TIP3    H279481   3.478   0.846  14.808  0.7692  0.1940 -0.2262
19356TIP3   OH279482   5.690   6.048  12.618  0.3537 -0.7617  0.1219
19356TIP3    H179483   5.683   6.137  12.584  2.0302 -0.7369 -0.2377
19356TIP3    H279484   5.632   6.046  12.694 -0.8096  0.1878 -0.7309
19357TIP3   OH279485   5.192   1.466  11.598  0.5097  0.1487  0.3443
19357TIP3    H179486   5.267   1.469  11.539 -0.0091  1.0402 -0.2847
19357TIP3    H279487   5.144   1.387  11.574  0.6694  0.1536  0.0158
19358TIP3   OH279488   2.586   2.071   0.574  0.2456  0.5204  0.5375
19358TIP3    H179489   2.503   2.040   0.611  0.0312  0.7316  0.2366
19358TIP3    H279490   2.562   2.150   0.526  0.9921  1.8982  2.3628
19359TIP3   OH279491   5.946   0.301  12.203  0.1468 -0.1850  0.7112
19359TIP3    H179492   5.966   0.333  12.291 -0.6715 -0.9003  1.1678
19359TIP3    H279493   6.025   0.255  12.176 -0.5854 -2.4406  2.2336
19360TIP3   OH279494   3.620   1.145  15.589 -0.3386 -0.0656 -0.1553
19360TIP3    H179495   3.626   1.062  15.636 -0.9604  0.3201  0.5971
19360TIP3    H279496   3.670   1.207  15.642  0.7924 -0.1309 -1.1175
19361TIP3   OH279497   4.677   3.007   6.110  0.9691  0.2627 -0.0871
19361TIP3    H179498   4.619   3.032   6.039  0.3348 -0.2320  0.2537
19361TIP3    H279499   4.638   2.928   6.146  1.5038  0.2891  0.5554
19362TIP3   OH279500   4.400   4.304   3.423  0.4157 -0.2350  0.2031
19362TIP3    H179501   4.326   4.348   3.381 -0.0466 -2.2659 -1.1700
19362TIP3    H279502   4.362   4.228   3.467  1.7605 -1.8367 -1.3200
19363TIP3   OH279503   1.249   1.661   0.038 -0.4637 -0.0083  0.2163
19363TIP3    H179504   1.161   1.661   0.076 -1.0103 -0.3926 -1.0175
19363TIP3    H279505   1.263   1.751   0.010  0.0176  0.3166  1.5071
19364TIP3   OH279506   0.574   6.303   1.913  0.1869  0.6433 -0.2407
19364TIP3    H179507   0.593   6.230   1.854  0.0414 -1.6518  2.4862
19364TIP3    H279508   0.659   6.329   1.949  0.0221  0.6124  0.1754
19365TIP3   OH279509   2.439   0.969  12.428  0.2942  0.2170 -0.2110
19365TIP3    H179510   2.411   0.953  12.518 -0.3874  1.3225 -0.2163
19365TIP3    H279511   2.521   0.920  12.419 -0.9485 -1.9669  0.2049
19366TIP3   OH279512   1.373   2.406   4.511  0.0856  0.0134  0.6904
19366TIP3    H179513   1.372   2.461   4.589 -2.6112  0.6383  0.2879
19366TIP3    H279514   1.336   2.323   4.539  0.0116 -0.0893  0.2923
19367TIP3   OH279515   4.153   2.335  14.560  0.5946 -0.8472 -0.0221
19367TIP3    H179516   4.188   2.251  14.528 -0.3200 -1.7004  1.1919
19367TIP3    H279517   4.125   2.317  14.649 -2.2226  0.0182 -0.6771
19368TIP3   OH279518   4.832   1.700  17.029 -0.0171 -0.3867 -0.1402
19368TIP3    H179519   4.779   1.630  17.068 -1.6937  1.1363  0.3708
19368TIP3    H279520   4.775   1.740  16.963  1.8985 -1.2552 -2.4190
19369TIP3   OH279521   4.221   5.154  12.914  0.0278 -0.0214  0.0067
19369TIP3    H179522   4.275   5.156  12.993  0.9370 -0.5942 -0.5992
19369TIP3    H279523   4.256   5.224  12.859 -0.2023 -0.0357 -0.1590
19370TIP3   OH279524   6.544   4.782  10.455 -0.1438  0.1206 -0.6676
19370TIP3    H179525   6.629   4.786  10.498 -1.5793  1.7911  2.1445
19370TIP3    H279526   6.559   4.819  10.368  1.7066  1.6831  0.2805
19371TIP3   OH279527   4.229   2.388  16.359  0.2997  0.3026 -0.3234
19371TIP3    H179528   4.274   2.376  16.275  2.1342 -0.2725  0.6989
19371TIP3    H279529   4.278   2.460  16.402 -0.2409  0.1904  0.4896
19372TIP3   OH279530   4.952   5.780   5.425  0.2892  0.1675 -0.1926
19372TIP3    H179531   5.036   5.790   5.380  1.2335  1.4062  1.7416
19372TIP3    H279532   4.954   5.691   5.459  0.6839  0.0831 -0.4365
19373TIP3   OH279533   3.955   1.049   0.107 -0.2469  0.5149  0.1721
19373TIP3    H179534   3.885   1.069   0.169 -0.9800 -1.3023 -0.0353
19373TIP3    H279535   3.910   1.019   0.028  0.7153  1.5475 -0.7866
19374TIP3   OH279536   0.302   3.768  11.910 -1.0493 -0.0016 -0.0562
19374TIP3    H179537   0.280   3.683  11.947  2.0271 -1.2088 -0.7953
19374TIP3    H279538   0.376   3.799  11.962 -0.4628  0.9990 -1.4312
19375TIP3   OH279539   1.825   4.743   3.293 -0.2334  0.0517 -0.1440
19375TIP3    H179540   1.783   4.829   3.288 -0.1798  0.1369  0.7964
19375TIP3    H279541   1.769   4.693   3.352  2.2905  0.9207  3.0606
19376TIP3   OH279542   5.142   3.450   2.619 -0.0498 -0.5806 -0.6757
19376TIP3    H179543   5.180   3.486   2.700 -1.8902 -0.4250  0.1598
19376TIP3    H279544   5.207   3.469   2.551  2.1190 -1.8596  0.9734
19377TIP3   OH279545   5.549   5.961   3.506 -0.1774 -0.5401  0.2398
19377TIP3    H179546   5.524   6.032   3.447 -0.0653 -2.2319 -1.8927
19377TIP3    H279547   5.533   5.996   3.594 -1.0205  1.7645 -0.8017
19378TIP3   OH279548   5.024   6.626   0.005  0.5367 -0.5181 -0.8115
19378TIP3    H179549   5.049   6.717  -0.005  0.2076 -0.2190  0.9646
19378TIP3    H279550   5.095   6.577  -0.037  2.0118  0.4659  0.4833
19379TIP3   OH279551   4.678   4.451  16.441  0.2659 -0.1863  0.1912
19379TIP3    H179552   4.695   4.464  16.347  1.3107  0.4933  0.4590
19379TIP3    H279553   4.666   4.357  16.450  0.6774 -0.3218 -0.5536
19380TIP3   OH279554   2.459   2.358  12.107  1.1559 -0.5579  0.0248
19380TIP3    H179555   2.530   2.334  12.048  0.8211  1.0696 -1.0636
19380TIP3    H279556   2.380   2.354  12.052  0.8562  1.0531  0.3249
19381TIP3   OH279557   1.445   3.436   3.131 -0.4908 -0.3050  0.8956
19381TIP3    H179558   1.487   3.462   3.049 -1.2964 -1.5229  0.0732
19381TIP3    H279559   1.379   3.371   3.105  0.7518 -2.3758  2.7540
19382TIP3   OH279560   2.643   5.207   4.598 -0.0514  0.4515 -0.4111
19382TIP3    H179561   2.602   5.121   4.605  0.1319  0.5484  2.3856
19382TIP3    H279562   2.613   5.241   4.513 -0.0536 -2.3648 -1.5938
19383TIP3   OH279563   3.734   3.609   2.955  0.3552 -0.0442 -0.7696
19383TIP3    H179564   3.745   3.679   2.890  0.3269 -0.2864 -1.0341
19383TIP3    H279565   3.783   3.535   2.920 -1.0704 -0.7325 -1.3588
19384TIP3   OH279566   0.944   0.695   3.431  0.1736 -0.1985  0.1573
19384TIP3    H179567   0.896   0.701   3.349  0.6438  2.8134  0.0149
19384TIP3    H279568   1.033   0.672   3.406  1.2330  4.2738 -0.6490
19385TIP3   OH279569   4.928   2.552   1.090  0.3870 -0.7474 -0.2132
19385TIP3    H179570   4.968   2.632   1.125  2.0615 -2.0424  0.9289
19385TIP3    H279571   4.845   2.581   1.051  1.4514  1.6992 -0.7642
19386TIP3   OH279572   3.394   5.565   5.756 -0.4598 -0.8312 -0.5527
19386TIP3    H179573   3.390   5.579   5.661  0.0803 -0.7219 -0.5649
19386TIP3    H279574   3.369   5.650   5.794 -0.2018 -0.7305 -0.6038
19387TIP3   OH279575   1.981   3.198   3.062 -0.3771  0.1545 -0.0678
19387TIP3    H179576   1.968   3.216   2.969  0.0132  1.4454  0.1237
19387TIP3    H279577   2.069   3.230   3.081  0.8188 -2.9376  0.0494
19388TIP3   OH279578   2.088   1.700   2.328  0.4185  0.1902  0.3386
19388TIP3    H179579   2.003   1.656   2.322  1.6780 -2.2602 -0.3848
19388TIP3    H279580   2.103   1.711   2.422 -0.6825  0.5947  0.4671
19389TIP3   OH279581   6.439   3.800   5.962  0.0167 -0.5310 -0.5196
19389TIP3    H179582   6.453   3.728   5.901  0.9094 -0.5121 -0.3519
19389TIP3    H279583   6.429   3.758   6.047 -0.7964 -0.5305 -0.6085
19390TIP3   OH279584   2.594   2.309   1.394  0.1111  0.0548 -0.3040
19390TIP3    H179585   2.534   2.339   1.461 -0.9136  0.2744 -1.3126
19390TIP3    H279586   2.540   2.260   1.332  1.3775 -1.9840  0.1390
19391TIP3   OH279587   1.243   5.399   3.388  0.6438 -0.6021  0.8018
19391TIP3    H179588   1.268   5.486   3.356  3.3131 -2.4462 -2.4364
19391TIP3    H279589   1.177   5.369   3.326  1.7160 -1.9300  0.2784
19392TIP3   OH279590   1.723   0.126   4.315 -0.0969 -0.1670 -0.4249
19392TIP3    H179591   1.775   0.182   4.257  0.3109 -0.4508 -0.3308
19392TIP3    H279592   1.646   0.179   4.335  0.2666  0.3500 -0.3685
19393TIP3   OH279593   5.564   2.177   0.404 -0.4433  0.0959 -0.5632
19393TIP3    H179594   5.630   2.157   0.470 -0.3763 -2.3456 -1.3528
19393TIP3    H279595   5.516   2.252   0.441  1.0588  0.2370  1.1894
19394TIP3   OH279596   1.696   2.622  10.845  0.2003 -0.4293 -0.1579
19394TIP3    H179597   1.662   2.708  10.820  0.9919 -0.3280 -0.8834
19394TIP3    H279598   1.790   2.627  10.828  0.4394 -1.0341  0.9466
19395TIP3   OH279599   0.646   1.635  15.893  0.0450 -0.1998  0.1322
19395TIP3    H179600   0.699   1.592  15.825 -2.2740 -2.6553 -0.2308
19395TIP3    H279601   0.572   1.672  15.845 -0.1836  0.4717  1.0002
19396TIP3   OH279602   1.071   0.707  11.373 -0.6076 -0.5491  0.1960
19396TIP3    H179603   1.129   0.631  11.380  1.0448  0.6723  0.2065
19396TIP3    H279604   1.083   0.754  11.456 -1.4572 -0.1898  0.1163
19397TIP3   OH279605   5.755   2.804  12.979  0.7208 -0.3094 -0.4120
19397TIP3    H179606   5.845   2.774  12.991  0.2764 -1.1078  1.1172
19397TIP3    H279607   5.758   2.860  12.902  2.7302  0.4977  0.2139
19398TIP3   OH279608   1.016   3.587   5.701 -0.4249  0.1554  0.7594
19398TIP3    H179609   1.100   3.615   5.665 -0.4034 -0.8231  0.0091
19398TIP3    H279610   0.960   3.665   5.696 -0.1750  0.2678 -0.6696
19399TIP3   OH279611   3.381   4.728  14.301  0.1205 -0.4301  0.2672
19399TIP3    H179612   3.329   4.770  14.369  0.5214  1.8912 -0.8138
19399TIP3    H279613   3.325   4.727  14.224 -0.7470 -4.0615  0.8394
19400TIP3   OH279614   0.429   4.508   2.518 -0.5376 -0.2893 -0.4665
19400TIP3    H179615   0.415   4.597   2.487  1.3799  0.6469  1.1835
19400TIP3    H279616   0.498   4.474   2.461  0.9342  0.4120  0.8529
19401TIP3   OH279617   0.491   4.357  12.148  0.6343  0.0262  0.5916
19401TIP3    H179618   0.474   4.350  12.054  0.4339 -0.5947  0.6752
19401TIP3    H279619   0.553   4.286  12.167 -1.1787 -1.3974  1.3735
19402TIP3   OH279620   1.336   1.226   3.385  0.3004 -0.0278 -0.1699
19402TIP3    H179621   1.349   1.249   3.292 -1.1732 -1.0293 -0.6457
19402TIP3    H279622   1.252   1.181   3.386  0.6292 -0.6093  1.5795
19403TIP3   OH279623   2.520   1.653   5.414  0.5733 -0.6376 -0.4785
19403TIP3    H179624   2.505   1.583   5.350 -1.7011  0.5371 -1.2617
19403TIP3    H279625   2.443   1.653   5.469  0.9572  0.6632  0.0833
19404TIP3   OH279626   2.450   0.821  11.460  0.6702  0.0528 -0.3174
19404TIP3    H179627   2.538   0.841  11.428  0.3518  2.2409  0.0575
19404TIP3    H279628   2.404   0.787  11.383  1.8777 -1.2915 -0.4731
19405TIP3   OH279629   3.457   4.447   3.265 -0.0715  0.1871 -0.2106
19405TIP3    H179630   3.437   4.541   3.257 -0.2537  0.2398  0.7358
19405TIP3    H279631   3.401   4.404   3.200 -0.6832  0.6511  0.0015
19406TIP3   OH279632   6.678   6.271  10.463 -0.4789 -0.0279  0.2440
19406TIP3    H179633   6.656   6.235  10.549 -1.2044  0.8753  0.4517
19406TIP3    H279634   6.695   6.194  10.408  0.3901 -0.5994  1.2950
19407TIP3   OH279635   0.369   4.124  15.603  0.1920  1.1595 -0.6716
19407TIP3    H179636   0.335   4.035  15.610  1.4719  0.8402  1.7874
19407TIP3    H279637   0.457   4.114  15.567  2.0886  0.9791  3.7178
19408TIP3   OH279638   1.512   5.993  14.703  0.2357 -0.5312 -0.0985
19408TIP3    H179639   1.578   5.946  14.652 -0.5859 -1.4759 -0.3124
19408TIP3    H279640   1.562   6.060  14.750  1.0055  0.3678 -2.1282
19409TIP3   OH279641   2.144   2.120  13.953  0.0790 -0.7344  0.1742
19409TIP3    H179642   2.177   2.151  13.869  0.8296 -2.1684 -0.0783
19409TIP3    H279643   2.220   2.079  13.994  0.4060  2.1845  2.6944
19410TIP3   OH279644   5.766   3.148   5.491  0.4459  0.9196 -0.6318
19410TIP3    H179645   5.858   3.122   5.493 -0.0077 -0.6532  0.5766
19410TIP3    H279646   5.753   3.196   5.573 -0.0725  0.1999 -0.2853
19411TIP3   OH279647   3.702   5.159   1.415  0.3252 -0.1870 -0.1552
19411TIP3    H179648   3.778   5.174   1.471  0.2920 -0.8256  0.0646
19411TIP3    H279649   3.723   5.080   1.366  0.2159  0.1896 -0.8095
19412TIP3   OH279650   4.546   0.453   4.583 -0.5639 -0.3948  0.2159
19412TIP3    H179651   4.471   0.414   4.539 -0.0914 -2.0816  0.8636
19412TIP3    H279652   4.606   0.380   4.597  1.4568  1.0196 -0.7995
19413TIP3   OH279653   3.989   0.690   3.695 -0.3858  0.1625 -0.7804
19413TIP3    H179654   4.050   0.655   3.759 -1.7380 -0.2620  0.3183
19413TIP3    H279655   3.963   0.614   3.643 -0.4949  0.2018 -0.7851
19414TIP3   OH279656   1.654   5.158   1.210 -0.2105  0.1117 -0.6248
19414TIP3    H179657   1.703   5.208   1.276 -1.8505  0.4223  0.3735
19414TIP3    H279658   1.631   5.076   1.255  1.3447 -1.0222 -1.8357
19415TIP3   OH279659   1.275   2.193   1.799 -0.3256  0.0172  0.0881
19415TIP3    H179660   1.227   2.115   1.772  0.1534  0.2793 -1.5724
19415TIP3    H279661   1.358   2.159   1.834 -0.7857 -0.3062  0.8642
19416TIP3   OH279662   5.530   2.664  14.421 -0.3505  0.6491 -0.4375
19416TIP3    H179663   5.458   2.607  14.392 -0.0976  1.6529 -3.0732
19416TIP3    H279664   5.537   2.731  14.353  1.5381  1.9453  0.9965
19417TIP3   OH279665   2.591   2.332  14.392  0.4511 -0.0269 -0.0397
19417TIP3    H179666   2.640   2.269  14.339  1.9493  0.3162  0.8949
19417TIP3    H279667   2.640   2.414  14.384  0.0306  0.3224  0.8986
19418TIP3   OH279668   4.424   0.654  10.606  0.3917 -0.0087  0.0484
19418TIP3    H179669   4.435   0.638  10.700 -1.5544  0.2646  0.3483
19418TIP3    H279670   4.430   0.749  10.597  0.1102  0.0018 -0.0357
19419TIP3   OH279671   3.974   3.603  11.678  0.0489 -0.6539  0.3650
19419TIP3    H179672   4.038   3.600  11.749 -0.2041 -1.7417  0.5503
19419TIP3    H279673   3.959   3.511  11.655 -0.6148 -0.3539 -0.4308
19420TIP3   OH279674   4.069   0.634  10.537 -0.0182  0.1046 -0.1675
19420TIP3    H179675   4.020   0.566  10.582  0.7767 -0.7990 -0.6436
19420TIP3    H279676   4.005   0.676  10.479 -0.3656 -0.6919 -0.3726
19421TIP3   OH279677   3.795   4.884   4.156  0.1475 -0.0126 -0.2647
19421TIP3    H179678   3.729   4.952   4.173  0.0987  0.1597 -1.1344
19421TIP3    H279679   3.866   4.905   4.217 -0.5251 -0.1099  0.5665
19422TIP3   OH279680   2.155   2.894   5.093  0.0161  1.1771  0.3971
19422TIP3    H179681   2.123   2.954   5.026 -0.6526  0.3298 -0.0488
19422TIP3    H279682   2.084   2.832   5.107 -0.2804  1.9493  2.6491
19423TIP3   OH279683   0.941   5.282   3.471 -0.3717  0.3141 -0.2172
19423TIP3    H179684   0.954   5.248   3.560  0.8874 -0.3306 -0.6476
19423TIP3    H279685   0.846   5.277   3.458 -0.4038 -1.0890  0.4875
19424TIP3   OH279686   5.765   0.199  13.268 -0.2352 -0.0334  0.5376
19424TIP3    H179687   5.790   0.266  13.204 -4.6952  0.9646 -0.3396
19424TIP3    H279688   5.794   0.233  13.352  0.3017  1.5266 -0.2583
19425TIP3   OH279689   4.640   2.196  14.685 -0.0120 -0.2501  0.5280
19425TIP3    H179690   4.661   2.121  14.741  2.6288  0.3936  0.4768
19425TIP3    H279691   4.587   2.253  14.740 -1.1386 -1.6495  0.9200
19426TIP3   OH279692   0.186   4.338   0.102 -0.0355  0.2277 -0.1733
19426TIP3    H179693   0.244   4.407   0.135  1.0604 -0.8895  0.2439
19426TIP3    H279694   0.237   4.258   0.108 -1.0788 -0.5404 -1.2671
19427TIP3   OH279695   3.078   1.450  14.488  1.2897  0.2091  0.3917
19427TIP3    H179696   3.092   1.454  14.393  3.3284 -0.9386  0.6250
19427TIP3    H279697   3.043   1.537  14.511 -1.2069 -0.1876 -1.6919
19428TIP3   OH279698   3.082   0.045   3.008 -0.5073  0.1464 -0.0933
19428TIP3    H179699   2.994   0.082   3.004 -0.4471  0.1916 -1.0525
19428TIP3    H279700   3.134   0.110   3.055 -0.8305  0.4097 -0.1002
19429TIP3   OH279701   2.668   0.185   4.040 -0.2040 -0.2704 -0.3988
19429TIP3    H179702   2.695   0.103   3.998  0.1320 -1.0354  1.2630
19429TIP3    H279703   2.750   0.228   4.063 -0.3738 -0.5894  0.8378
19430TIP3   OH279704   0.424   4.672  15.333 -0.2712  0.3142 -0.2623
19430TIP3    H179705   0.491   4.604  15.345 -0.0626  0.7489  1.0954
19430TIP3    H279706   0.344   4.634  15.369 -0.1467  0.7934  0.5286
19431TIP3   OH279707   4.964   3.171  16.608  0.2536  0.2292 -0.0790
19431TIP3    H179708   4.910   3.196  16.684  0.4168 -0.1341  0.1562
19431TIP3    H279709   4.916   3.098  16.568  0.1417  0.4541 -0.3571
19432TIP3   OH279710   6.692   4.109  17.178 -0.1018  0.0653 -0.6165
19432TIP3    H179711   6.719   4.147  17.094  0.1277 -0.5384 -0.8134
19432TIP3    H279712   6.708   4.179  17.241  0.6633  0.1829 -0.9313
19433TIP3   OH279713   1.578   0.328  13.258 -0.4340  0.0668 -0.5116
19433TIP3    H179714   1.504   0.349  13.315  2.5800  1.7394  3.0027
19433TIP3    H279715   1.565   0.383  13.181 -1.9718  1.5580  0.7715
19434TIP3   OH279716   0.153   1.753   0.113 -0.1139 -0.0350  0.0006
19434TIP3    H179717   0.133   1.693   0.185  0.8704 -0.8561 -0.3907
19434TIP3    H279718   0.070   1.764   0.067 -1.1392  1.7742  2.1874
19435TIP3   OH279719   0.829   4.056  17.164 -0.1674  0.2023 -0.3053
19435TIP3    H179720   0.787   4.137  17.193  0.2521  0.3900 -0.2159
19435TIP3    H279721   0.766   3.987  17.186  0.7909  0.1501  2.5296
19436TIP3   OH279722   2.584   0.658   3.831 -0.3200  0.4824  0.2210
19436TIP3    H179723   2.616   0.746   3.813 -2.5192  1.3610  0.4125
19436TIP3    H279724   2.554   0.661   3.921 -1.6622 -0.0621 -0.1891
19437TIP3   OH279725   1.826   4.404  16.031  0.1347 -0.3012  0.0359
19437TIP3    H179726   1.788   4.442  15.951  1.3114 -1.1950 -0.9825
19437TIP3    H279727   1.871   4.325  16.000 -0.1331 -1.1373  1.7324
19438TIP3   OH279728   3.941   4.125   3.634  0.1012  0.5868  0.0022
19438TIP3    H179729   3.869   4.101   3.692 -0.2876 -0.9372 -1.0910
19438TIP3    H279730   4.012   4.066   3.658  0.7386  1.5670  0.5480
19439TIP3   OH279731   6.102   4.080   1.532 -0.1287 -0.4546 -0.7974
19439TIP3    H179732   6.177   4.021   1.521  0.9544  0.7302  0.1497
19439TIP3    H279733   6.095   4.125   1.448  0.0629 -0.7436 -0.9716
19440TIP3   OH279734   5.659   2.052  13.348 -0.7432 -0.4924  0.0374
19440TIP3    H179735   5.619   2.026  13.265 -1.2857  0.0602  0.1197
19440TIP3    H279736   5.586   2.083  13.402  0.0949  3.3856 -0.8797
19441TIP3   OH279737   6.297   5.000  16.264 -0.0526  0.1749  0.3592
19441TIP3    H179738   6.317   4.934  16.198  1.7475  0.2346  0.8202
19441TIP3    H279739   6.281   5.080  16.213  0.0079 -0.0891 -0.0778
19442TIP3   OH279740   5.539   1.165   3.935 -0.4950 -0.1891  0.7126
19442TIP3    H179741   5.506   1.255   3.934 -1.4660 -0.5275  1.5110
19442TIP3    H279742   5.526   1.136   4.025  3.7432  0.2914  1.5914
19443TIP3   OH279743   0.089   2.141  17.018 -0.3984 -0.1427  0.2577
19443TIP3    H179744   0.027   2.136  17.091 -0.3024 -0.7510  0.2998
19443TIP3    H279745   0.117   2.051  17.004  0.5840  0.1467  0.3293
19444TIP3   OH279746   1.051   0.091   2.010  0.1469 -0.8495 -0.0297
19444TIP3    H179747   1.075   0.018   2.067  2.9328  0.4653  0.5854
19444TIP3    H279748   1.126   0.102   1.953 -0.7263  0.7992 -0.8944
19445TIP3   OH279749   6.403   5.684   0.128 -0.3743 -0.2898  0.3969
19445TIP3    H179750   6.379   5.610   0.184  0.5385 -0.3510  0.7191
19445TIP3    H279751   6.334   5.748   0.141  0.0430 -0.1338  1.9082
19446TIP3   OH279752   4.121   2.126   5.046 -0.3919 -0.2767  0.0570
19446TIP3    H179753   4.215   2.134   5.030 -0.1470  0.3518  1.7546
19446TIP3    H279754   4.087   2.215   5.034 -1.0908 -0.8416 -2.4181
19447TIP3   OH279755   3.062   2.305  14.706  0.3663 -0.4971 -0.2562
19447TIP3    H179756   3.066   2.397  14.732 -1.7406 -0.3190 -0.4021
19447TIP3    H279757   3.149   2.285  14.673  1.5165  0.7875  1.9119
19448TIP3   OH279758   2.347   1.563   4.165 -0.4469  0.1878  0.4469
19448TIP3    H179759   2.438   1.576   4.191 -0.7911  0.6263  1.4855
19448TIP3    H279760   2.328   1.472   4.188  0.1078 -0.2962 -0.9786
19449TIP3   OH279761   0.409   6.003  13.562  0.2303  0.2587  0.2143
19449TIP3    H179762   0.493   6.039  13.592  0.4185 -0.8044  1.0051
19449TIP3    H279763   0.428   5.912  13.540 -0.5302  0.2548 -0.4764
19450TIP3   OH279764   1.218   2.707  15.609  0.2758  0.0955  0.2979
19450TIP3    H179765   1.142   2.649  15.610 -0.1858  0.7040  2.6669
19450TIP3    H279766   1.277   2.671  15.675  1.5865  0.2688 -0.7567
19451TIP3   OH279767   5.008   2.086   5.395 -0.1392 -0.1539 -0.9203
19451TIP3    H179768   4.956   2.151   5.441 -0.6995  0.5932 -2.5691
19451TIP3    H279769   5.003   2.008   5.450 -0.6312  0.7636  0.3611
19452TIP3   OH279770   1.344   5.383  16.950  0.2911  0.6173  0.1915
19452TIP3    H179771   1.412   5.380  16.883  0.0121  0.4650 -0.0862
19452TIP3    H279772   1.279   5.444  16.915  0.7608  1.5407  0.9049
19453TIP3   OH279773   1.957   1.043  12.527 -0.3041  0.5976 -0.7495
19453TIP3    H179774   1.908   0.961  12.531  2.3730 -1.0298  0.3556
19453TIP3    H279775   1.899   1.108  12.566 -1.9972 -1.0019 -0.5338
19454TIP3   OH279776   2.368   4.107   3.167  0.1916  0.0372  0.2781
19454TIP3    H179777   2.395   4.180   3.112  0.2813  0.5046  0.9398
19454TIP3    H279778   2.274   4.119   3.180  0.1348 -0.1763  0.0814
19455TIP3   OH279779   5.944   5.238   5.871 -0.2810  0.1963  0.0836
19455TIP3    H179780   5.859   5.195   5.872  0.1204 -0.6111  0.2729
19455TIP3    H279781   5.937   5.308   5.935 -1.4630  1.4419 -1.3643
19456TIP3   OH279782   4.218   4.642  17.150 -0.2287  0.0856  0.1863
19456TIP3    H179783   4.176   4.654  17.236 -1.7893  0.7368 -0.6352
19456TIP3    H279784   4.157   4.682  17.088  1.8848  1.5214 -1.0234
19457TIP3   OH279785   4.856   0.823  15.477 -0.4154 -0.1381  0.0891
19457TIP3    H179786   4.863   0.729  15.461  0.5386 -0.1958  0.8281
19457TIP3    H279787   4.883   0.863  15.394 -0.4441 -0.5106 -0.1010
19458TIP3   OH279788   4.506   4.751  17.110 -0.7100  0.2195 -0.1131
19458TIP3    H179789   4.537   4.752  17.200  0.7857 -1.6680 -0.5705
19458TIP3    H279790   4.432   4.691  17.111 -0.0161 -0.6454 -0.3412
19459TIP3   OH279791   1.040   1.689   2.973 -1.3129  0.7708  0.1018
19459TIP3    H179792   1.032   1.615   2.914 -3.9881  0.9365  0.1788
19459TIP3    H279793   1.116   1.738   2.941 -1.2594 -0.4532 -1.7000
19460TIP3   OH279794   3.976   6.126  15.264 -0.0380  0.1343  0.1032
19460TIP3    H179795   4.003   6.207  15.220 -1.3310  0.7447  0.4178
19460TIP3    H279796   4.058   6.081  15.284  0.6101  0.2753 -2.1306
19461TIP3   OH279797   5.647   4.720  15.208 -0.0095  0.3064 -0.0105
19461TIP3    H179798   5.715   4.762  15.262  1.7269 -2.1160 -0.2233
19461TIP3    H279799   5.566   4.763  15.234  1.2037  1.2199  2.4266
19462TIP3   OH279800   2.446   5.548   3.579  0.0519 -0.1230 -0.3174
19462TIP3    H179801   2.489   5.469   3.613  0.5154 -1.0966 -2.9962
19462TIP3    H279802   2.517   5.601   3.544 -0.3782  0.9691  0.4411
19463TIP3   OH279803   5.389   4.932   0.039  0.5912 -0.0414 -0.1995
19463TIP3    H179804   5.466   4.894  -0.002  0.0088 -0.3639 -0.9887
19463TIP3    H279805   5.419   5.017   0.071  1.5548 -0.6107  0.4444
19464TIP3   OH279806   3.584   0.323  12.611 -0.0115  0.0218  0.3235
19464TIP3    H179807   3.621   0.243  12.574  0.5837 -0.4888  1.9711
19464TIP3    H279808   3.512   0.345  12.552  0.1447 -1.4409 -0.4475
19465TIP3   OH279809   5.848   3.288   3.128  0.2983  0.1830 -0.4810
19465TIP3    H179810   5.846   3.192   3.135  2.0405 -0.0370 -2.5796
19465TIP3    H279811   5.789   3.307   3.054  1.3669  0.5813 -1.2327
19466TIP3   OH279812   4.233   3.668   0.084 -0.8452  0.4246 -0.4619
19466TIP3    H179813   4.166   3.625   0.030 -1.6219 -0.2243  1.0148
19466TIP3    H279814   4.200   3.757   0.096 -1.0442  0.3424 -0.4013
19467TIP3   OH279815   3.499   4.087   4.134 -0.1478  0.8170  0.3322
19467TIP3    H179816   3.593   4.104   4.144  0.4665 -0.6129 -2.4161
19467TIP3    H279817   3.488   3.996   4.161 -0.5354  0.6436 -0.3877
19468TIP3   OH279818   4.166   0.161   4.292 -0.0654  0.3154 -0.8347
19468TIP3    H179819   4.115   0.143   4.213 -1.9262 -0.0445  0.3986
19468TIP3    H279820   4.113   0.226   4.340  1.0945  0.6297  0.0554
19469TIP3   OH279821   0.712   5.935   2.511  0.5470  0.3826  0.1101
19469TIP3    H179822   0.781   5.872   2.534 -0.1028 -0.4675 -0.2100
19469TIP3    H279823   0.733   6.013   2.563  1.2302 -0.1824  0.7139
19470TIP3   OH279824   2.410   1.385  14.514  0.0634  0.4745  0.0302
19470TIP3    H179825   2.462   1.313  14.551  0.8102  1.8359  1.7061
19470TIP3    H279826   2.431   1.460  14.570 -0.6747  2.0047 -1.7136
19471TIP3   OH279827   4.487   0.770  17.095 -0.6311 -0.0977  0.1077
19471TIP3    H179828   4.544   0.771  17.018 -0.2137  2.6921  0.4169
19471TIP3    H279829   4.546   0.747  17.167 -0.9697 -2.4464 -0.3191
19472TIP3   OH279830   4.760   5.628   0.334 -0.1240 -0.3521  0.0731
19472TIP3    H179831   4.842   5.630   0.383  0.5361 -0.0840 -0.9985
19472TIP3    H279832   4.788   5.637   0.242 -1.3341 -0.5441 -0.3181
19473TIP3   OH279833   5.407   3.330   2.874 -0.5952 -0.4147 -0.0749
19473TIP3    H179834   5.366   3.415   2.884  1.4589  0.7095 -0.9353
19473TIP3    H279835   5.501   3.347   2.881 -0.1938 -2.8233  1.3292
19474TIP3   OH279836   2.755   6.415  15.868  0.1124 -0.2406 -0.0193
19474TIP3    H179837   2.697   6.488  15.845  0.7595  0.0501 -0.7168
19474TIP3    H279838   2.755   6.414  15.964  0.5923  1.0668  0.0052
19475TIP3   OH279839   3.661   2.953  15.821 -0.1424 -0.1970 -1.1815
19475TIP3    H179840   3.737   2.896  15.838  2.5400  2.9491 -2.1137
19475TIP3    H279841   3.639   2.935  15.729  0.0262 -0.5209 -1.1618
19476TIP3   OH279842   3.159   0.976   5.877 -0.7515 -0.1652 -0.1448
19476TIP3    H179843   3.127   0.989   5.966  0.6970 -0.5403  0.4578
19476TIP3    H279844   3.241   1.025   5.874 -0.6443 -0.3997 -1.1779
19477TIP3   OH279845   1.609   0.134  14.384 -0.6165 -0.4439  0.4680
19477TIP3    H179846   1.703   0.147  14.374 -0.4352 -1.7557  0.4571
19477TIP3    H279847   1.571   0.178  14.307 -0.0558  0.5382  0.7478
19478TIP3   OH279848   5.326   0.139   0.038  0.1057  1.0017 -0.2773
19478TIP3    H179849   5.387   0.153  -0.035  0.2618 -4.6907 -1.4863
19478TIP3    H279850   5.239   0.148  -0.001  0.1947 -0.9436 -0.9658
19479TIP3   OH279851   3.098   6.185  15.880  0.1230 -0.0991  0.3729
19479TIP3    H179852   3.079   6.231  15.799 -3.2361  0.1011  1.1917
19479TIP3    H279853   3.104   6.254  15.946  0.7405 -0.4196  0.6571
19480TIP3   OH279854   4.123   4.690   2.261  0.3868 -0.7046  0.4788
19480TIP3    H179855   4.214   4.680   2.290  0.5730  0.4620  0.3077
19480TIP3    H279856   4.074   4.630   2.317  1.0654 -0.2702  1.5636
19481TIP3   OH279857   2.959   1.099   4.365 -0.5601  0.3729  0.0643
19481TIP3    H179858   3.048   1.067   4.383 -0.5030 -0.1929 -1.1576
19481TIP3    H279859   2.972   1.186   4.328 -0.5068  0.2699 -0.1616
19482TIP3   OH279860   0.361   1.119  13.899  0.1562  0.6717  0.0446
19482TIP3    H179861   0.379   1.112  13.805 -0.4007 -0.1684  0.0034
19482TIP3    H279862   0.352   1.214  13.914  1.3032  0.8786 -0.5445
19483TIP3   OH279863   1.420   1.098  14.676 -0.4666  0.6207  0.0517
19483TIP3    H179864   1.419   1.036  14.603  0.5829  0.7130 -0.0535
19483TIP3    H279865   1.347   1.157  14.659 -0.4260  0.4452 -0.7548
19484TIP3   OH279866   0.790   6.080  15.965  0.6794 -0.9873 -0.1065
19484TIP3    H179867   0.806   6.010  16.029  1.7667 -0.3075  0.3845
19484TIP3    H279868   0.853   6.063  15.895  0.3284 -1.0184 -0.4139
19485TIP3   OH279869   0.774   4.256   4.985 -0.4308  0.4234  0.1047
19485TIP3    H179870   0.685   4.232   5.011 -0.0695  0.3279  1.2664
19485TIP3    H279871   0.761   4.322   4.917 -1.4043 -1.2977 -1.4404
19486TIP3   OH279872   6.400   3.312   2.159  0.3625  0.4531 -0.1251
19486TIP3    H179873   6.387   3.346   2.248 -3.7446 -0.3936 -0.3021
19486TIP3    H279874   6.384   3.387   2.103 -1.1288  0.0855 -0.2321
19487TIP3   OH279875   1.485   2.436  13.713 -0.1560 -0.1504 -0.1422
19487TIP3    H179876   1.537   2.502  13.758 -1.1523  1.4778 -1.2963
19487TIP3    H279877   1.548   2.387  13.661  0.4219  0.8324 -0.3889
19488TIP3   OH279878   4.317   3.515  12.333  0.4590 -0.0904  0.0825
19488TIP3    H179879   4.309   3.496  12.239 -0.1323  1.7190 -0.2619
19488TIP3    H279880   4.411   3.515  12.349  0.5634 -0.4440 -0.5070
19489TIP3   OH279881   2.739   6.586   2.997 -0.1890  0.1742 -0.0140
19489TIP3    H179882   2.791   6.506   2.999  1.4251  1.2234  1.9035
19489TIP3    H279883   2.674   6.574   3.066 -1.3537 -0.3939 -1.2081
19490TIP3   OH279884   5.230   6.354  13.669 -0.1490 -0.3491  0.4413
19490TIP3    H179885   5.262   6.384  13.754  0.3721 -0.3886  0.2575
19490TIP3    H279886   5.300   6.299  13.635 -0.3146 -0.2498 -0.0640
19491TIP3   OH279887   3.770   5.856   0.552 -0.1398  0.1239  0.2863
19491TIP3    H179888   3.704   5.791   0.575 -0.8851  0.1966 -1.5636
19491TIP3    H279889   3.750   5.931   0.608 -1.0871 -0.1683  0.3571
19492TIP3   OH279890   6.531   0.212   5.450 -0.5259 -0.6618  0.7038
19492TIP3    H179891   6.577   0.255   5.378 -2.4336 -0.4200 -0.4080
19492TIP3    H279892   6.442   0.247   5.445 -1.2806 -2.3960  1.7301
19493TIP3   OH279893   3.756   4.155  16.643 -0.0863  0.1345 -0.3449
19493TIP3    H179894   3.838   4.194  16.674 -2.1644  1.5789  3.7064
19493TIP3    H279895   3.696   4.229  16.636 -1.2427 -0.9778 -2.7650
19494TIP3   OH279896   0.619   5.838  14.609  0.4218  0.0402  0.3626
19494TIP3    H179897   0.604   5.747  14.582 -1.0230  0.9852 -2.2464
19494TIP3    H279898   0.713   5.851  14.596  0.7098 -1.1825  1.1358
19495TIP3   OH279899   5.513   1.250  16.600  0.3186 -0.3966 -0.1896
19495TIP3    H179900   5.511   1.214  16.512  1.8800 -0.7463 -0.1017
19495TIP3    H279901   5.605   1.267  16.617 -0.1110  1.0110  0.8502
19496TIP3   OH279902   0.834   0.387   0.489 -0.5948  0.3750  0.2676
19496TIP3    H179903   0.830   0.319   0.422  0.1185  0.2359  0.3561
19496TIP3    H279904   0.830   0.469   0.441  1.6689  0.3047 -0.1159
19497TIP3   OH279905   5.223   1.775   2.676 -0.4679 -0.5870 -0.1924
19497TIP3    H179906   5.195   1.701   2.620 -0.7719 -0.9802  0.4729
19497TIP3    H279907   5.312   1.752   2.703  0.2566  0.3088 -1.7002
19498TIP3   OH279908   5.590   6.140  15.182 -0.2696 -0.1428  0.4820
19498TIP3    H179909   5.618   6.202  15.250 -1.8562  1.3177 -0.1658
19498TIP3    H279910   5.495   6.136  15.191 -0.7379  1.6957 -3.0215
19499TIP3   OH279911   0.052   3.665   5.713 -0.3621 -0.1124 -0.2023
19499TIP3    H179912   0.081   3.721   5.785  0.7505  0.7798 -1.3207
19499TIP3    H279913   0.004   3.723   5.655 -1.3967 -0.8637 -0.1160
19500TIP3   OH279914   1.547   1.548  15.921 -0.6176 -0.1185 -0.5974
19500TIP3    H179915   1.452   1.563  15.927 -0.4772 -0.0734  1.7961
19500TIP3    H279916   1.572   1.519  16.008  1.7104  0.5537 -1.0212
19501TIP3   OH279917   3.564   6.481   1.367 -0.0024  0.3003 -0.0456
19501TIP3    H179918   3.607   6.526   1.295  1.8199 -0.0883  0.7651
19501TIP3    H279919   3.537   6.551   1.427 -1.5832  0.6260 -1.1104
19502TIP3   OH279920   0.232   0.733   3.486  0.1929  0.1948  0.2767
19502TIP3    H179921   0.169   0.699   3.550 -0.5091 -1.8023 -1.4148
19502TIP3    H279922   0.178   0.785   3.425  0.5803  0.6390  0.3150
19503TIP3   OH279923   3.854   2.741   3.820  0.1266  0.0987 -0.4189
19503TIP3    H179924   3.843   2.833   3.845 -0.4378  0.8727 -3.4118
19503TIP3    H279925   3.771   2.700   3.843 -0.4433  0.8345 -1.1070
19504TIP3   OH279926   1.390   5.459  11.598  0.1119 -0.3522  0.0690
19504TIP3    H179927   1.418   5.374  11.565  1.8238 -0.1390  0.9360
19504TIP3    H279928   1.470   5.510  11.605 -0.8013  1.0893  0.2929
19505TIP3   OH279929   5.219   2.836  11.567  0.0137 -0.1707  0.0486
19505TIP3    H179930   5.225   2.930  11.580  0.8805 -0.4152  1.5635
19505TIP3    H279931   5.142   2.809  11.618  0.7689 -0.5087  1.0282
19506TIP3   OH279932   6.508   6.041   0.976  0.2646  1.0313 -0.0390
19506TIP3    H179933   6.554   6.056   0.893  0.0088  1.2391 -0.1429
19506TIP3    H279934   6.561   6.088   1.040  1.6812 -0.9216  0.2796
19507TIP3   OH279935   1.597   5.443   3.604 -0.4653  0.7404 -0.4861
19507TIP3    H179936   1.673   5.500   3.613 -0.0412 -0.0421  1.1166
19507TIP3    H279937   1.588   5.402   3.690 -0.7091 -1.6557 -1.6057
19508TIP3   OH279938   2.071   4.067   4.231 -0.1669 -0.0477  0.0208
19508TIP3    H179939   2.158   4.105   4.222 -1.2008  2.3114 -0.3768
19508TIP3    H279940   2.079   4.005   4.304  2.0992 -0.7405 -0.7579
19509TIP3   OH279941   5.284   4.555  13.921  0.4382 -0.3490  0.5850
19509TIP3    H179942   5.255   4.645  13.908 -0.8332 -0.7158  0.8267
19509TIP3    H279943   5.350   4.560  13.991 -0.3106  0.2663  1.2459
19510TIP3   OH279944   4.962   3.673  16.223 -0.4116  0.4384  0.3171
19510TIP3    H179945   5.034   3.691  16.284  1.5385  1.1344 -2.1372
19510TIP3    H279946   4.914   3.756  16.217  0.2963  0.8132 -0.2436
19511TIP3   OH279947   3.359   6.413  10.339 -0.3739  0.4449 -0.0299
19511TIP3    H179948   3.315   6.329  10.333 -0.7471  0.7304 -1.3496
19511TIP3    H279949   3.436   6.396  10.394 -0.2405 -0.8348 -0.6050
19512TIP3   OH279950   0.885   3.628  12.577 -0.3375  0.1634  0.6607
19512TIP3    H179951   0.970   3.629  12.623  0.4409 -1.1060 -0.7073
19512TIP3    H279952   0.876   3.538  12.546 -1.1774  0.8283 -1.0754
19513TIP3   OH279953   1.634   3.851  13.982 -0.2540  0.1230  0.3000
19513TIP3    H179954   1.569   3.878  13.917 -0.5047  0.2148  0.5931
19513TIP3    H279955   1.620   3.909  14.056 -1.1620 -1.1725  1.1614
19514TIP3   OH279956   6.757   2.607  13.851 -0.0399 -0.2139  0.0309
19514TIP3    H179957   6.785   2.590  13.761 -0.8039  0.4087 -0.3337
19514TIP3    H279958   6.740   2.701  13.854 -0.2900 -0.2775  0.7513
19515TIP3   OH279959   6.412   4.441  15.381  0.4322  0.0645  0.1978
19515TIP3    H179960   6.505   4.447  15.360  0.4078 -0.6719 -0.1579
19515TIP3    H279961   6.403   4.357  15.427 -0.0536  0.1286  0.2211
19516TIP3   OH279962   6.743   4.657  12.007  0.3364  0.4090  0.3346
19516TIP3    H179963   6.827   4.658  12.053  0.1523  2.3348  0.6474
19516TIP3    H279964   6.690   4.594  12.056  0.9167  0.6957  1.3422
19517TIP3   OH279965   2.202   3.148   3.921  0.2620 -0.8675  0.5734
19517TIP3    H179966   2.193   3.135   3.827  0.7532  1.2440  0.2072
19517TIP3    H279967   2.118   3.184   3.949  1.2482  1.7949  0.2930
19518TIP3   OH279968   0.725   0.281  14.170 -0.0120 -0.0662  0.0724
19518TIP3    H179969   0.649   0.317  14.124 -1.5943 -1.5129  1.4702
19518TIP3    H279970   0.741   0.197  14.127 -0.3318 -0.5722  0.9280
19519TIP3   OH279971   5.895   6.145  15.822 -0.2027 -0.0966  0.4760
19519TIP3    H179972   5.805   6.117  15.837 -0.6196  0.7589 -0.4109
19519TIP3    H279973   5.913   6.207  15.893  0.2981 -1.6318  1.7027
19520TIP3   OH279974   0.199   2.382   4.278  0.0494 -0.3016 -0.0427
19520TIP3    H179975   0.146   2.411   4.352 -0.5205 -2.4050  0.3924
19520TIP3    H279976   0.141   2.326   4.228  0.7726  0.2414 -1.5268
19521TIP3   OH279977   1.893   5.729  13.432  0.1571 -0.1052  0.1042
19521TIP3    H179978   1.969   5.717  13.489  1.2180 -0.0216 -1.2657
19521TIP3    H279979   1.860   5.640  13.418  2.1354 -0.5521 -2.1208
19522TIP3   OH279980   1.097   4.095   2.220  0.3741 -1.0114  0.1140
19522TIP3    H179981   1.041   4.044   2.162  0.6494 -1.4630  0.2452
19522TIP3    H279982   1.170   4.037   2.241  0.0114 -1.0360  1.3385
19523TIP3   OH279983   1.207   6.244   2.414  0.3323  0.1274  0.2166
19523TIP3    H179984   1.148   6.306   2.370 -1.4349 -1.0986  0.7745
19523TIP3    H279985   1.205   6.271   2.506 -0.0270 -0.4259  0.3727
19524TIP3   OH279986   4.454   1.430   1.078 -0.3958  0.4249 -0.1948
19524TIP3    H179987   4.542   1.463   1.058  0.8748 -1.2556  2.3648
19524TIP3    H279988   4.414   1.500   1.130 -1.2747  1.9414 -2.8105
19525TIP3   OH279989   0.532   5.142  13.412 -0.2399  0.6013  0.5320
19525TIP3    H179990   0.509   5.233  13.392  0.9444  0.8140  0.1006
19525TIP3    H279991   0.619   5.130  13.374 -0.8111 -1.0226 -0.2991
19526TIP3   OH279992   4.964   0.508   1.207 -0.3637  0.1557  0.3839
19526TIP3    H179993   4.962   0.548   1.294 -2.9278  0.4391  0.2210
19526TIP3    H279994   5.057   0.497   1.188  0.2878  2.4251  2.0895
19527TIP3   OH279995   0.864   2.627  13.821  0.0498  0.1970  0.1531
19527TIP3    H179996   0.891   2.666  13.905 -0.5672  0.1781  0.3602
19527TIP3    H279997   0.840   2.537  13.844  1.0029 -0.1744 -0.2392
19528TIP3   OH279998   5.506   6.753  14.883 -0.2356 -0.1336 -0.0705
19528TIP3    H179999   5.530   6.822  14.944  0.1870 -0.7001  0.4103
19528TIP3    H280000   5.414   6.734  14.902 -0.3818  0.3548 -0.2698
19529TIP3   OH280001   5.314   3.964  12.692 -0.0839 -0.3886 -0.1417
19529TIP3    H180002   5.277   4.008  12.769  0.8837 -0.8354  0.5756
19529TIP3    H280003   5.237   3.943  12.638 -0.8582 -1.0817  1.2187
19530TIP3   OH280004   1.115   3.336   1.302 -0.0386  0.9040  0.8308
19530TIP3    H180005   1.027   3.303   1.283 -0.4759  2.6236 -0.3156
19530TIP3    H280006   1.159   3.265   1.348 -1.6173 -0.4546  0.2717
19531TIP3   OH280007   3.114   0.980   0.616 -0.6459 -0.3393 -0.0281
19531TIP3    H180008   3.174   0.936   0.555  0.7406 -1.2811  1.9393
19531TIP3    H280009   3.059   0.909   0.651 -1.2303  0.1399  0.0267
19532TIP3   OH280010   3.677   5.138   0.283  0.7661 -0.0989  0.7321
19532TIP3    H180011   3.657   5.070   0.219 -0.3428  0.1130  0.8382
19532TIP3    H280012   3.694   5.091   0.364  1.8199 -0.3491  0.3650
19533TIP3   OH280013   4.946   3.032   6.131  0.2393  0.1144  0.6195
19533TIP3    H180014   4.963   3.067   6.219 -0.2168  3.4864 -0.5526
19533TIP3    H280015   4.852   3.047   6.118  0.3379 -0.2125 -0.4930
19534TIP3   OH280016   1.701   2.657   4.105 -0.0694 -0.0887  0.3011
19534TIP3    H180017   1.711   2.742   4.063 -2.0360  0.3599  0.6748
19534TIP3    H280018   1.684   2.677   4.197 -2.3335 -0.7612  0.0825
19535TIP3   OH280019   6.621   3.123   4.028 -0.2558  0.5181 -0.1245
19535TIP3    H180020   6.618   3.127   4.124 -2.2609 -0.2259 -0.1212
19535TIP3    H280021   6.529   3.130   4.002  0.0456 -1.5822 -1.8806
19536TIP3   OH280022   5.471   3.696  14.737 -0.5806 -0.1500 -0.4692
19536TIP3    H180023   5.520   3.698  14.655 -0.4014  1.8930 -0.3373
19536TIP3    H280024   5.405   3.629  14.723  1.7490 -2.4459 -0.9190
19537TIP3   OH280025   4.716   6.242   3.339  0.0980 -0.0443 -1.0316
19537TIP3    H180026   4.626   6.249   3.372  0.4897  1.5756 -0.2829
19537TIP3    H280027   4.706   6.205   3.252 -1.2081 -1.0201 -0.4910
19538TIP3   OH280028   3.585   3.896   4.478 -0.3176 -0.4925 -0.1702
19538TIP3    H180029   3.635   3.821   4.511 -0.1241 -0.6681 -0.8656
19538TIP3    H280030   3.500   3.860   4.453  0.4771 -0.8504 -2.4063
19539TIP3   OH280031   0.641   5.772   4.824 -0.3119 -0.2723 -0.9138
19539TIP3    H180032   0.656   5.810   4.738 -1.4485  2.0929 -0.1066
19539TIP3    H280033   0.695   5.692   4.825  0.9530  0.5127 -3.2026
19540TIP3   OH280034   4.430   4.765   2.724  0.0149 -0.0852  0.5919
19540TIP3    H180035   4.400   4.700   2.788 -0.0004 -1.5545 -0.8721
19540TIP3    H280036   4.525   4.763   2.729  0.2215 -3.6830 -2.7233
19541TIP3   OH280037   2.913   5.716  17.141 -0.0284  0.0412  0.2348
19541TIP3    H180038   2.860   5.636  17.133  1.9453 -1.1585 -1.2318
19541TIP3    H280039   2.900   5.744  17.232 -1.1114 -1.6922  0.6385
19542TIP3   OH280040   1.450   3.143   0.965  0.6318  0.2023 -0.3146
19542TIP3    H180041   1.501   3.065   0.944 -0.1350 -0.6477  0.9196
19542TIP3    H280042   1.513   3.215   0.959  1.5950 -0.6356 -0.4092
19543TIP3   OH280043   0.751   0.947   6.066 -0.6308 -0.0830 -0.0178
19543TIP3    H180044   0.823   0.885   6.049  0.9100  1.1272  1.8721
19543TIP3    H280045   0.680   0.893   6.099 -1.0878 -1.4700 -3.0703
19544TIP3   OH280046   5.460   2.820  15.415  0.2304  0.4440 -0.0809
19544TIP3    H180047   5.368   2.796  15.409  0.0715  1.4975 -2.0636
19544TIP3    H280048   5.459   2.907  15.455  0.3895  0.3993  0.0229
19545TIP3   OH280049   0.192   2.507  13.261  0.4118  0.9042 -0.0226
19545TIP3    H180050   0.230   2.564  13.194  0.6826 -0.3099 -0.9062
19545TIP3    H280051   0.252   2.515  13.336  0.8129  1.2427 -0.3800
19546TIP3   OH280052   6.202   3.747   2.453 -0.2171 -1.0060  0.2053
19546TIP3    H180053   6.253   3.827   2.461 -2.9586  0.7287  1.2107
19546TIP3    H280054   6.257   3.679   2.491  1.4572  0.7068  0.9395
19547TIP3   OH280055   0.426   4.135   4.067 -0.2029 -0.3884 -0.6176
19547TIP3    H180056   0.360   4.203   4.059 -0.8025 -0.7299  1.0291
19547TIP3    H280057   0.445   4.108   3.978 -0.3179  1.5752 -1.2566
19548TIP3   OH280058   1.347   2.586   4.273  0.7416  0.0259  0.4271
19548TIP3    H180059   1.357   2.675   4.308  3.3496 -0.0125 -0.1510
19548TIP3    H280060   1.383   2.530   4.342  0.9732 -0.4407 -0.0761
19549TIP3   OH280061   6.097   1.706  15.619 -0.4560  0.0447 -0.5254
19549TIP3    H180062   6.168   1.700  15.683  0.5047  1.4735 -1.4221
19549TIP3    H280063   6.029   1.757  15.662 -1.5816 -2.5054  0.8626
19550TIP3   OH280064   1.290   3.648  16.778  0.3500  0.2552  0.0965
19550TIP3    H180065   1.372   3.629  16.732  0.7388  0.0679  0.8630
19550TIP3    H280066   1.227   3.665  16.708  0.4456 -1.9936 -0.5933
19551TIP3   OH280067   5.714   4.647   1.083 -0.3509 -0.2831  0.0787
19551TIP3    H180068   5.674   4.724   1.125 -1.6672 -0.2772 -1.1579
19551TIP3    H280069   5.712   4.667   0.990  2.8042 -0.1828 -0.0058
19552TIP3   OH280070   5.942   2.197   6.055  0.3136 -0.1647 -0.1961
19552TIP3    H180071   5.883   2.257   6.101  0.5448 -0.4637  0.5014
19552TIP3    H280072   6.017   2.251   6.029  0.6646 -0.2093  0.7050
19553TIP3   OH280073   4.812   0.474  12.278  0.1676 -0.0337  0.0296
19553TIP3    H180074   4.765   0.554  12.254 -0.1655 -0.2169  0.0794
19553TIP3    H280075   4.774   0.406  12.223 -0.5203 -0.4340  0.9840
19554TIP3   OH280076   3.652   2.911  12.761 -0.2213  0.0380  0.3238
19554TIP3    H180077   3.711   2.948  12.695  0.9084  0.6138  1.6279
19554TIP3    H280078   3.629   2.986  12.816  1.2740 -0.9711  2.3870
19555TIP3   OH280079   4.494   3.749   1.317 -0.1503 -0.3687 -0.0645
19555TIP3    H180080   4.552   3.697   1.261  0.2204 -1.6813  1.4729
19555TIP3    H280081   4.535   3.835   1.322  0.7792 -0.7885 -0.3537
19556TIP3   OH280082   0.147   1.118   2.616  0.0879  0.2675 -0.0761
19556TIP3    H180083   0.111   1.030   2.628 -3.2443  1.7393  1.1659
19556TIP3    H280084   0.216   1.124   2.683 -0.6458 -0.8723  0.8083
19557TIP3   OH280085   1.337   2.477   0.661  0.2747  0.3103 -0.2785
19557TIP3    H180086   1.408   2.425   0.623  0.4774 -0.9402  1.7537
19557TIP3    H280087   1.263   2.463   0.602  1.6266  1.4986 -2.3386
19558TIP3   OH280088   1.884   5.200  12.396  0.7582 -0.1152 -0.0698
19558TIP3    H180089   1.820   5.145  12.351  0.5454 -0.5289  0.7378
19558TIP3    H280090   1.849   5.211  12.484  1.4652  0.2153  0.1737
19559TIP3   OH280091   2.534   4.244  14.869  0.0209 -0.6505 -0.0944
19559TIP3    H180092   2.627   4.223  14.863  0.0225 -1.0767  1.1927
19559TIP3    H280093   2.528   4.304  14.944 -0.8480 -1.3155  0.3785
19560TIP3   OH280094   1.757   1.332  15.563 -0.0486 -0.5867 -0.0504
19560TIP3    H180095   1.677   1.316  15.513  0.2365  1.3778 -1.1959
19560TIP3    H280096   1.782   1.246  15.595 -1.9138 -1.4346 -0.7552
19561TIP3   OH280097   6.209   3.652   1.223 -0.8059 -0.4355 -0.0776
19561TIP3    H180098   6.140   3.639   1.289 -2.7541 -0.1399 -2.0119
19561TIP3    H280099   6.162   3.668   1.142  1.5642  1.9626 -1.0409
19562TIP3   OH280100   6.337   0.758  17.055  0.5083 -0.1416 -0.3814
19562TIP3    H180101   6.351   0.670  17.020 -1.5195 -1.4505  1.9299
19562TIP3    H280102   6.292   0.804  16.985 -1.1258 -1.8764 -0.5094
19563TIP3   OH280103   5.809   4.985   2.262  0.2588  0.0097  0.3804
19563TIP3    H180104   5.902   4.960   2.263  0.3481  0.3385  0.3954
19563TIP3    H280105   5.762   4.903   2.250  0.6008 -0.0352 -0.6925
19564TIP3   OH280106   2.883   2.080   0.558  0.5132  0.1168  0.3391
19564TIP3    H180107   2.792   2.082   0.590  0.3933  3.4432 -0.0085
19564TIP3    H280108   2.933   2.125   0.626  1.2852  1.5474 -1.1347
19565TIP3   OH280109   0.432   0.005  14.076  0.3057 -0.1632 -0.0568
19565TIP3    H180110   0.357   0.007  14.136 -0.9938  1.1605 -1.6705
19565TIP3    H280111   0.506  -0.019  14.131 -1.1542 -0.6578  1.7464
19566TIP3   OH280112   3.686   3.381   3.613 -0.4026 -0.1339  0.6520
19566TIP3    H180113   3.596   3.413   3.611 -0.7480 -1.1408  0.0718
19566TIP3    H280114   3.737   3.456   3.647 -1.4401  0.4382  0.9754
19567TIP3   OH280115   1.765   1.512   0.810 -0.2363 -0.0067  0.2407
19567TIP3    H180116   1.710   1.476   0.740 -1.1664  0.1667  0.8705
19567TIP3    H280117   1.848   1.466   0.801 -1.3698 -2.2714  0.9693
19568TIP3   OH280118   3.024   1.889  13.111  0.6672 -0.1341 -0.5228
19568TIP3    H180119   2.958   1.942  13.064  0.6757 -0.0833 -0.4752
19568TIP3    H280120   3.096   1.950  13.128  1.2876 -0.5167 -1.7377
19569TIP3   OH280121   1.971   5.150  10.917 -0.7832 -0.1543 -0.4165
19569TIP3    H180122   2.032   5.152  10.991 -1.8310 -1.6164  0.5192
19569TIP3    H280123   2.027   5.148  10.839  0.3435  4.0645  0.2022
19570TIP3   OH280124   3.634   1.029  15.177 -0.4192  0.3792 -0.0795
19570TIP3    H180125   3.567   1.035  15.108  0.3194  2.2542 -0.6495
19570TIP3    H280126   3.600   0.962  15.237 -2.2007  0.4087 -1.0213
19571TIP3   OH280127   1.010   2.729  11.585  0.1120 -0.7113 -0.2134
19571TIP3    H180128   1.063   2.802  11.615 -1.3440  0.5860 -0.7669
19571TIP3    H280129   0.940   2.722  11.650  0.5859 -2.0045  0.1716
19572TIP3   OH280130   6.580   0.475   5.024 -0.0319  0.4365 -0.0611
19572TIP3    H180131   6.652   0.424   4.987  0.3997  2.0788 -1.5772
19572TIP3    H280132   6.508   0.466   4.960 -0.1727  1.1462 -0.0129
19573TIP3   OH280133   4.358   5.643   2.071 -0.3421  0.2823  0.1734
19573TIP3    H180134   4.396   5.721   2.112 -0.9514  0.0348  1.2138
19573TIP3    H280135   4.359   5.663   1.977  0.6913  1.0154  0.3265
19574TIP3   OH280136   0.189   1.755  12.003 -0.0935  0.3064 -0.7864
19574TIP3    H180137   0.146   1.808  12.070  1.6602 -0.0238  0.6395
19574TIP3    H280138   0.214   1.818  11.936 -0.6456  0.8529 -0.4877
19575TIP3   OH280139   4.317   3.606  14.423 -0.2741  0.1350  0.2732
19575TIP3    H180140   4.361   3.637  14.344 -2.2403  2.2222 -0.0771
19575TIP3    H280141   4.232   3.650  14.422 -0.7619 -0.6094  3.0139
19576TIP3   OH280142   0.085   6.089   4.671  0.3575  0.0295  0.3275
19576TIP3    H180143   0.048   6.015   4.719 -0.9025  0.2793 -0.2324
19576TIP3    H280144   0.180   6.076   4.676  0.1886 -0.8001  1.5144
19577TIP3   OH280145   1.408   1.696   2.106  0.7946 -0.2784 -0.3290
19577TIP3    H180146   1.364   1.753   2.169  0.7010 -0.0949 -0.5579
19577TIP3    H280147   1.501   1.711   2.121  0.7825 -0.7249  0.2102
19578TIP3   OH280148   4.191   0.521  13.260 -0.0632 -0.2099 -0.2079
19578TIP3    H180149   4.248   0.491  13.331 -0.0132 -0.7403 -0.4698
19578TIP3    H280150   4.169   0.442  13.212 -0.4532  0.0914 -0.5266
19579TIP3   OH280151   0.769   5.664  16.080  0.0147  0.0488 -0.1164
19579TIP3    H180152   0.803   5.741  16.126 -2.0375  0.5430  0.6200
19579TIP3    H280153   0.801   5.675  15.990 -1.3487  2.5014 -0.3616
19580TIP3   OH280154   6.498   4.419   5.842 -0.0726  0.1653 -0.0725
19580TIP3    H180155   6.566   4.454   5.899  0.1628  1.3753 -1.0750
19580TIP3    H280156   6.423   4.405   5.900 -0.2747  2.6418  0.3259
19581TIP3   OH280157   1.952   4.135  12.984  0.0897  0.0936  0.2973
19581TIP3    H180158   1.888   4.161  12.917 -0.3681  0.8924  1.0361
19581TIP3    H280159   1.972   4.216  13.030  1.2085 -0.2619  0.4528
19582TIP3   OH280160   6.117   3.629   5.099  0.4899  0.4614  0.4463
19582TIP3    H180161   6.070   3.567   5.155 -0.5849 -0.2605 -1.2023
19582TIP3    H280162   6.208   3.600   5.103  0.0650 -0.9664  0.0508
19583TIP3   OH280163   2.978   0.178  12.958  0.0052 -0.2329 -0.3322
19583TIP3    H180164   2.887   0.179  12.986  0.0895  0.3397 -0.0788
19583TIP3    H280165   3.015   0.100  13.000 -0.1575 -0.0091  0.2234
19584TIP3   OH280166   1.709   1.807  14.517  0.0387  0.3226  0.0620
19584TIP3    H180167   1.801   1.830  14.532  0.5458 -1.2806 -0.3829
19584TIP3    H280168   1.660   1.885  14.542  1.3475  0.3716  2.7355
19585TIP3   OH280169   3.089   4.374   3.126 -0.0522 -0.1193  0.9383
19585TIP3    H180170   3.093   4.405   3.036 -0.9848 -3.0493 -0.1796
19585TIP3    H280171   3.176   4.336   3.142 -0.0041  0.0782  1.1455
19586TIP3   OH280172   5.906   4.588  15.127 -0.6665 -1.4688 -0.2225
19586TIP3    H180173   5.816   4.618  15.115 -0.6609 -0.7599  1.4395
19586TIP3    H280174   5.956   4.635  15.059 -0.7787  1.8292  1.8454
19587TIP3   OH280175   5.466   1.901   4.052 -0.1798 -0.0567  0.5080
19587TIP3    H180176   5.506   1.947   3.978  0.5087 -0.7493  0.4497
19587TIP3    H280177   5.516   1.932   4.129 -1.1088  0.9157  0.7312
19588TIP3   OH280178   4.844   4.458  15.353  0.2959  0.6696 -0.5731
19588TIP3    H180179   4.866   4.500  15.270  1.6926  1.2258  0.0847
19588TIP3    H280180   4.905   4.494  15.417 -2.8129  2.7204  1.4373
19589TIP3   OH280181   0.823   0.708   0.190  0.7154 -0.4339  0.3853
19589TIP3    H180182   0.843   0.748   0.105  2.1646 -0.2642  0.7820
19589TIP3    H280183   0.746   0.756   0.222  0.4296 -0.2079 -0.6304
19590TIP3   OH280184   6.728   6.561   5.615 -0.1746 -0.3759 -0.1274
19590TIP3    H180185   6.666   6.499   5.576  1.4326 -2.6341  0.7947
19590TIP3    H280186   6.781   6.592   5.542 -1.0220 -0.0302 -0.6054
19591TIP3   OH280187   3.811   0.191   2.870  0.1330 -0.7331 -0.7023
19591TIP3    H180188   3.867   0.133   2.818 -0.5076 -1.6285 -0.4052
19591TIP3    H280189   3.721   0.169   2.843 -0.1313 -0.0995 -0.3636
19592TIP3   OH280190   4.568   4.561   5.629 -0.1496  0.5848 -0.5358
19592TIP3    H180191   4.570   4.510   5.548  0.2142  1.7377 -1.2754
19592TIP3    H280192   4.489   4.531   5.674  0.1672 -0.7571 -0.8592
19593TIP3   OH280193   0.623   4.299  16.735 -0.7918  0.0945 -0.0541
19593TIP3    H180194   0.554   4.365  16.727 -0.9414 -0.1140 -0.5323
19593TIP3    H280195   0.700   4.348  16.762 -1.4618  0.1197  1.8418
19594TIP3   OH280196   0.714   4.714   1.182  0.2314  0.0301  0.1321
19594TIP3    H180197   0.727   4.654   1.109  0.6313 -0.6147  0.7223
19594TIP3    H280198   0.640   4.677   1.230 -1.5282  1.7127 -1.2102
19595TIP3   OH280199   1.580   3.099   4.372 -0.2363 -0.0852  0.5791
19595TIP3    H180200   1.662   3.139   4.342 -0.6320 -0.4952 -1.0755
19595TIP3    H280201   1.511   3.151   4.330 -0.7797 -1.2459  0.0078
19596TIP3   OH280202   0.586   1.781   1.890  0.0284 -0.2592 -0.0853
19596TIP3    H180203   0.556   1.762   1.802  0.9005 -0.1969 -0.4016
19596TIP3    H280204   0.603   1.696   1.929  0.3327 -0.2669 -0.2287
19597TIP3   OH280205   3.980   3.099   2.462  0.3001 -0.2568 -0.2477
19597TIP3    H180206   4.038   3.128   2.392 -0.2628 -0.3485 -0.7551
19597TIP3    H280207   4.005   3.153   2.538 -0.5374  1.3924 -1.1000
19598TIP3   OH280208   2.987   6.134   1.298  0.5651 -0.1881 -0.4755
19598TIP3    H180209   3.066   6.102   1.341 -0.1101 -0.3676  0.6689
19598TIP3    H280210   2.941   6.054   1.271  0.6799 -0.0910 -0.9544
19599TIP3   OH280211   1.438   5.162   5.812 -0.2514 -0.5863 -0.4538
19599TIP3    H180212   1.457   5.255   5.825  0.6906 -0.8587  0.1890
19599TIP3    H280213   1.420   5.155   5.718  3.4471 -0.3494 -1.2873
19600TIP3   OH280214   0.192   1.518  12.767  0.3584  0.0654 -0.1670
19600TIP3    H180215   0.127   1.536  12.698 -0.5325 -0.5132  0.5128
19600TIP3    H280216   0.141   1.479  12.838  1.3590  0.1943  0.6259
19601TIP3   OH280217   2.753   4.193   4.793 -0.6914 -0.1687  0.0832
19601TIP3    H180218   2.660   4.184   4.814 -0.8819  2.2227  0.4546
19601TIP3    H280219   2.761   4.281   4.756  1.3440 -0.5101 -0.3694
19602TIP3   OH280220   4.549   4.874  16.341 -0.5440  0.2400  0.7830
19602TIP3    H180221   4.642   4.889  16.320 -0.3956 -2.1810 -0.4831
19602TIP3    H280222   4.520   4.956  16.381  1.7648  1.5612 -0.1240
19603TIP3   OH280223   3.747   3.995  16.892  0.0129 -0.1570 -0.0374
19603TIP3    H180224   3.678   4.057  16.869 -1.3463 -1.6632 -0.1131
19603TIP3    H280225   3.805   3.995  16.816 -0.5974  0.1919 -0.5115
19604TIP3   OH280226   4.582   1.610   2.002  0.6165 -0.0325 -0.3421
19604TIP3    H180227   4.671   1.575   1.994  0.0043 -1.8358  0.3132
19604TIP3    H280228   4.593   1.692   2.049  2.2639  1.4897 -3.2306
19605TIP3   OH280229   0.405   2.986   5.208  0.2483 -0.4533  0.2150
19605TIP3    H180230   0.464   3.002   5.282 -1.0646  1.7465  0.8253
19605TIP3    H280231   0.452   3.021   5.132  1.4368 -2.3791  0.0171
19606TIP3   OH280232   5.790   0.539  12.205 -0.6417 -0.3195 -0.4805
19606TIP3    H180233   5.804   0.457  12.159 -0.5561 -0.5910  0.0307
19606TIP3    H280234   5.696   0.540  12.224 -0.2634 -1.4679  1.6931
19607TIP3   OH280235   6.302   4.464   4.624  0.1664 -0.2493 -0.3329
19607TIP3    H180236   6.236   4.533   4.613  0.1197 -0.1058  0.8290
19607TIP3    H280237   6.253   4.382   4.614 -0.0897 -0.1359 -0.0244
19608TIP3   OH280238   3.993   6.725  14.989 -0.2109  0.2739  0.2333
19608TIP3    H180239   3.952   6.639  14.996 -0.2345  0.1429 -1.3587
19608TIP3    H280240   4.078   6.709  14.949 -0.4269  1.0381 -0.5623
19609TIP3   OH280241   2.171   5.919  15.572  0.2447  0.1456 -0.5087
19609TIP3    H180242   2.183   5.867  15.652  0.8540  2.8185  1.2310
19609TIP3    H280243   2.253   5.907  15.523 -0.0236 -1.2975 -0.6266
19610TIP3   OH280244   4.605   6.395  13.621  0.2055  0.3465 -0.1886
19610TIP3    H180245   4.682   6.438  13.584  0.3224 -0.8725 -1.3972
19610TIP3    H280246   4.531   6.448  13.592  0.2392 -0.8999 -2.7220
19611TIP3   OH280247   4.468   2.976  12.025 -0.1568  0.4608  0.0254
19611TIP3    H180248   4.555   3.015  12.012  0.6291 -1.5941 -1.0658
19611TIP3    H280249   4.473   2.891  11.981 -2.4466 -0.0643  0.7269
19612TIP3   OH280250   1.885   5.677   5.508  0.0160 -0.0940 -0.3045
19612TIP3    H180251   1.975   5.690   5.478  0.1986  2.6449  1.2286
19612TIP3    H280252   1.879   5.583   5.526  2.9742 -0.1529  0.7256
19613TIP3   OH280253   2.247   2.155  13.682  1.4913  0.3883  0.0296
19613TIP3    H180254   2.251   2.081  13.621  1.4350  0.2319  0.2135
19613TIP3    H280255   2.338   2.185  13.688  1.0501  2.3204 -2.4363
19614TIP3   OH280256   1.464   5.932   5.821  0.6320  0.0455  0.0509
19614TIP3    H180257   1.430   5.937   5.910  0.0611 -0.6479 -0.1211
19614TIP3    H280258   1.489   5.840   5.809  0.9718  0.1938 -0.4020
19615TIP3   OH280259   1.838   0.111   5.231  0.0887  0.0961 -0.3148
19615TIP3    H180260   1.919   0.153   5.201 -0.1274 -0.1015 -1.1847
19615TIP3    H280261   1.864   0.022   5.255  0.3051  0.3254  0.3160
19616TIP3   OH280262   5.850   6.436   4.154  0.3335  0.1067 -0.4981
19616TIP3    H180263   5.785   6.392   4.209 -1.0739  1.8026 -0.7770
19616TIP3    H280264   5.878   6.369   4.092  0.0592 -1.0930  0.6530
19617TIP3   OH280265   4.255   5.680  12.840 -0.1833  0.4753  0.4660
19617TIP3    H180266   4.188   5.701  12.775  2.6204  0.4145 -2.6188
19617TIP3    H280267   4.236   5.737  12.914 -2.1342  2.2336 -1.3182
19618TIP3   OH280268   5.433   3.667   0.864  0.3384  0.9220 -0.3915
19618TIP3    H180269   5.379   3.607   0.811  2.1071  0.1418 -1.3868
19618TIP3    H280270   5.434   3.749   0.814  0.7688  0.6562 -0.8324
19619TIP3   OH280271   4.338   1.114  15.737  0.2775  0.3057 -0.3630
19619TIP3    H180272   4.414   1.150  15.783  0.2097 -0.6412  0.5021
19619TIP3    H280273   4.298   1.054  15.800 -1.3428  0.9918 -0.7098
19620TIP3   OH280274   2.789   2.392   2.485  0.3073  0.2236 -0.2563
19620TIP3    H180275   2.755   2.333   2.552 -1.8353 -1.1671 -2.4687
19620TIP3    H280276   2.810   2.472   2.532 -1.6287 -0.5387  2.0124
19621TIP3   OH280277   4.162   2.129  11.126  0.1040 -1.0676  0.2466
19621TIP3    H180278   4.159   2.176  11.043  0.0804 -0.2095  0.7184
19621TIP3    H280279   4.103   2.179  11.183  0.4864 -1.3696  0.9137
19622TIP3   OH280280   1.930   0.674  13.420 -0.1946 -0.1868  0.4795
19622TIP3    H180281   1.969   0.717  13.344  3.6113  0.3636  2.6271
19622TIP3    H280282   1.867   0.738  13.455 -0.3176  0.4378 -0.8771
19623TIP3   OH280283   3.460   2.853   0.332  0.0675  0.4932 -0.3140
19623TIP3    H180284   3.491   2.881   0.246 -1.6734 -0.3284 -1.2495
19623TIP3    H280285   3.390   2.915   0.353 -1.0448 -0.6463 -0.5484
19624TIP3   OH280286   6.019   4.780   3.262  0.4377  0.1956 -0.2210
19624TIP3    H180287   5.962   4.770   3.338  0.3718  1.6272 -0.0642
19624TIP3    H280288   5.972   4.841   3.205  2.1523  2.0319  0.2790
19625TIP3   OH280289   4.338   5.115  16.165  0.3852  0.2679  0.5099
19625TIP3    H180290   4.371   5.155  16.245  2.4466 -1.0509  0.3657
19625TIP3    H280291   4.363   5.177  16.096 -2.9088  2.2617  0.9826
19626TIP3   OH280292   5.645   2.755   5.268 -0.0158 -0.0067 -0.0217
19626TIP3    H180293   5.557   2.748   5.232 -0.1030 -1.4326  0.4245
19626TIP3    H280294   5.697   2.691   5.219  0.6314  0.3996  0.1214
19627TIP3   OH280295   6.284   1.338  15.281  0.0423 -0.9501 -0.2704
19627TIP3    H180296   6.198   1.366  15.310  0.5292  0.0705  0.2193
19627TIP3    H280297   6.288   1.365  15.189  0.0455 -0.4891 -0.1390
19628TIP3   OH280298   2.075   5.429  14.147  0.3637 -0.0485  0.1319
19628TIP3    H180299   2.099   5.506  14.199 -0.3585  0.2998 -0.0316
19628TIP3    H280300   1.989   5.403  14.182  0.5541 -0.7149  0.1130
19629TIP3   OH280301   6.445   1.381  12.378  0.3342 -0.9778 -0.6725
19629TIP3    H180302   6.513   1.366  12.311  1.4552 -2.1414  0.6977
19629TIP3    H280303   6.481   1.343  12.458 -0.9582  0.4840  0.6391
19630TIP3   OH280304   2.772   4.452   4.723 -0.6125  0.1979  0.3314
19630TIP3    H180305   2.721   4.521   4.765  0.2408 -0.0974  1.8983
19630TIP3    H280306   2.853   4.496   4.696 -0.7672  0.1762 -0.1675
19631TIP3   OH280307   4.766   3.075  12.969  0.2967  0.2796 -0.0138
19631TIP3    H180308   4.842   3.036  12.926  1.5466  1.6185  0.9069
19631TIP3    H280309   4.726   3.130  12.902  1.2810  1.0720  0.0252
19632TIP3   OH280310   1.311   6.776   2.157  0.1346  0.4122 -0.6684
19632TIP3    H180311   1.281   6.845   2.216  1.1868  0.2043  0.1229
19632TIP3    H280312   1.324   6.700   2.213  3.4840  0.8731 -0.7103
19633TIP3   OH280313   1.404   0.331  10.681  0.2217  0.1672  0.2687
19633TIP3    H180314   1.358   0.412  10.661 -0.3075  0.0507  0.9780
19633TIP3    H280315   1.351   0.263  10.640  0.2859  0.1225  0.2606
19634TIP3   OH280316   0.393   1.780  16.667 -0.1554 -0.0737  0.0542
19634TIP3    H180317   0.454   1.834  16.618 -0.5386  0.2090 -0.1141
19634TIP3    H280318   0.390   1.819  16.754  0.5403 -0.5873  0.3173
19635TIP3   OH280319   3.150   0.522  13.752 -0.0147 -0.0866 -0.3595
19635TIP3    H180320   3.165   0.428  13.767 -0.8321 -0.2933 -0.8123
19635TIP3    H280321   3.166   0.533  13.658  1.9394  0.5939  0.0224
19636TIP3   OH280322   0.552   0.840  16.982 -0.2795  0.7232  0.5521
19636TIP3    H180323   0.599   0.760  16.956 -1.2852 -0.0727  1.1401
19636TIP3    H280324   0.524   0.879  16.899 -0.3878  0.0961  0.2885
19637TIP3   OH280325   4.033   5.689  11.858 -0.2952 -0.2039  0.1381
19637TIP3    H180326   4.046   5.784  11.867  0.7563 -0.3018 -0.2804
19637TIP3    H280327   4.006   5.678  11.767  0.3785 -0.3866 -0.0414
19638TIP3   OH280328   1.968   0.611  16.949  0.0775  0.2115 -0.5937
19638TIP3    H180329   1.925   0.577  17.028 -0.8997  1.2570 -0.6586
19638TIP3    H280330   2.006   0.534  16.908  1.7058 -0.1978  1.5579
19639TIP3   OH280331   0.376   3.232  15.913 -0.2519  0.1434 -0.0374
19639TIP3    H180332   0.454   3.183  15.941  0.5512  0.4587 -1.6631
19639TIP3    H280333   0.369   3.304  15.976  1.1131  0.4380 -0.2032
19640TIP3   OH280334   5.091   2.068   0.178 -0.3666 -0.0237  0.3900
19640TIP3    H180335   5.010   2.024   0.151 -1.8478  1.8341  1.7085
19640TIP3    H280336   5.124   2.016   0.251 -0.0933 -1.0299 -0.4233
19641TIP3   OH280337   3.835   0.777   5.880 -0.1164  0.1626 -0.5270
19641TIP3    H180338   3.885   0.836   5.936 -2.0074  0.7806  0.5471
19641TIP3    H280339   3.813   0.831   5.804  0.6721 -0.0633 -0.9282
19642TIP3   OH280340   5.935   3.483   4.371  0.2573 -0.1108  0.2325
19642TIP3    H180341   5.898   3.395   4.367  1.1187 -0.4901  0.5521
19642TIP3    H280342   5.902   3.520   4.453 -0.8125  0.1900 -0.3235
19643TIP3   OH280343   1.072   5.846  14.419 -0.3568 -0.3765 -0.2315
19643TIP3    H180344   0.998   5.862  14.478  0.3028  0.8306  0.2717
19643TIP3    H280345   1.043   5.881  14.335 -0.0593  0.8331  0.1582
19644TIP3   OH280346   5.682   2.652   2.680 -0.4757  0.4021  0.2697
19644TIP3    H180347   5.611   2.612   2.630 -0.6577  0.1087  0.7559
19644TIP3    H280348   5.752   2.665   2.616 -0.4189 -0.6848  0.1047
19645TIP3   OH280349   5.673   2.212  16.558  0.2668  0.3963  0.4614
19645TIP3    H180350   5.676   2.288  16.500  1.0760  0.9703  1.2317
19645TIP3    H280351   5.690   2.137  16.500 -0.8147  0.7623 -0.3472
19646TIP3   OH280352   4.675   0.224   1.981  0.4146  0.2938 -0.1310
19646TIP3    H180353   4.746   0.170   1.946  2.5962  2.4857  0.7547
19646TIP3    H280354   4.664   0.195   2.071  2.1493  1.8229  0.5989
19647TIP3   OH280355   0.516   4.581  17.088 -0.5828  0.3208 -0.8258
19647TIP3    H180356   0.546   4.492  17.067 -0.8220  0.1393 -0.4010
19647TIP3    H280357   0.433   4.589  17.041 -0.6999  0.2191 -0.6355
19648TIP3   OH280358   3.609   4.546  17.229  0.6010  0.6826  0.0489
19648TIP3    H180359   3.545   4.617  17.235  0.2010  0.2202  1.2834
19648TIP3    H280360   3.643   4.553  17.140 -2.5204 -0.2618 -1.2863
19649TIP3   OH280361   1.861   0.262   1.132 -0.4541 -0.3068 -0.5171
19649TIP3    H180362   1.855   0.178   1.178 -0.7643  0.5884  1.1218
19649TIP3    H280363   1.949   0.294   1.150  0.6811 -1.5518 -3.4838
19650TIP3   OH280364   3.724   4.503  13.175 -0.2043  0.4939 -0.6690
19650TIP3    H180365   3.753   4.568  13.111 -1.4388  0.1728 -1.5831
19650TIP3    H280366   3.632   4.487  13.153 -0.5620  0.1731  1.0288
19651TIP3   OH280367   6.215   0.629  11.685  0.7089  0.1626  0.3923
19651TIP3    H180368   6.196   0.679  11.765 -0.2216  0.5475 -0.0590
19651TIP3    H280369   6.309   0.616  11.686  0.8533  1.2419  0.9185
19652TIP3   OH280370   1.682   4.580   5.189 -0.3648 -0.1567  0.7838
19652TIP3    H180371   1.638   4.527   5.122 -0.4064  0.7116  0.1140
19652TIP3    H280372   1.624   4.576   5.265 -0.5687 -0.7311  0.5996
19653TIP3   OH280373   5.299   0.458  16.097 -0.0114  0.1559  0.0250
19653TIP3    H180374   5.225   0.460  16.037  0.0580 -2.5189 -0.2033
19653TIP3    H280375   5.275   0.517  16.168 -1.2818  1.2007 -1.2530
19654TIP3   OH280376   2.887   1.875  11.870  0.2932 -0.3153  0.2343
19654TIP3    H180377   2.913   1.786  11.847 -0.2145 -0.6442  0.9265
19654TIP3    H280378   2.795   1.868  11.894  0.0772  0.5141 -0.3406
19655TIP3   OH280379   1.774   5.749  14.248  0.1536  0.0514 -0.0335
19655TIP3    H180380   1.682   5.747  14.273  0.1289  0.4548 -0.0908
19655TIP3    H280381   1.774   5.716  14.158  0.0152  0.4429 -0.1795
19656TIP3   OH280382   5.154   3.838  16.889 -0.5518 -0.4195 -0.3937
19656TIP3    H180383   5.124   3.909  16.831  0.3367 -0.9990 -1.5813
19656TIP3    H280384   5.133   3.869  16.977  0.9190  1.8562 -0.8033
19657TIP3   OH280385   1.062   0.113  14.045 -0.2647 -0.4676  0.7086
19657TIP3    H180386   1.013   0.124  14.126 -0.4237  2.9131  0.2196
19657TIP3    H280387   1.073   0.202  14.011  1.2129 -1.6726 -2.1456
19658TIP3   OH280388   6.115   6.190   1.410  0.7399 -0.1095 -0.5721
19658TIP3    H180389   6.210   6.187   1.414  0.7200 -0.3985 -0.3247
19658TIP3    H280390   6.090   6.102   1.381  0.4575 -0.5620  0.9896
19659TIP3   OH280391   1.005   2.761   2.532  0.0922  0.0750  0.4877
19659TIP3    H180392   0.932   2.810   2.569  1.1706  0.1598  2.5772
19659TIP3    H280393   0.990   2.671   2.561 -0.2389 -0.2835 -0.7653
19660TIP3   OH280394   3.819   0.734   0.218  0.0544  0.5817 -1.0410
19660TIP3    H180395   3.912   0.712   0.213 -0.1983 -0.7735  0.2805
19660TIP3    H280396   3.789   0.727   0.127  0.8084 -0.8881 -1.1970
19661TIP3   OH280397   2.833   4.375  12.751 -0.0252  0.1539  0.0164
19661TIP3    H180398   2.838   4.298  12.693  0.7690  0.6283 -0.5466
19661TIP3    H280399   2.798   4.444  12.695  1.6842  0.8782 -0.1672
19662TIP3   OH280400   4.514   4.145  13.168  0.6666  0.2210  0.2145
19662TIP3    H180401   4.567   4.154  13.248  1.5139  1.4905 -0.4774
19662TIP3    H280402   4.575   4.164  13.097  0.3945 -2.6937 -0.8943
19663TIP3   OH280403   6.220   1.938   3.655 -0.5265 -0.1018  0.2203
19663TIP3    H180404   6.148   1.896   3.701 -1.1705  1.1245  0.3515
19663TIP3    H280405   6.215   2.030   3.680 -0.8894  0.6020 -2.2692
19664TIP3   OH280406   3.621   1.670  14.488 -0.3106  0.5796 -0.1840
19664TIP3    H180407   3.634   1.743  14.549 -2.3119 -0.0197  1.0074
19664TIP3    H280408   3.605   1.595  14.544  0.4184 -0.5353 -1.4342
19665TIP3   OH280409   1.594   0.239   1.758  0.2111  0.4518  0.2591
19665TIP3    H180410   1.619   0.326   1.790  0.9205  0.0455  0.8350
19665TIP3    H280411   1.640   0.178   1.815 -0.8966 -0.3190  0.3655
19666TIP3   OH280412   3.470   3.325  16.849 -0.2446  0.2662 -0.0919
19666TIP3    H180413   3.507   3.252  16.799 -1.2560  1.7644 -3.1478
19666TIP3    H280414   3.455   3.289  16.936  3.1032 -1.9781 -0.3554
19667TIP3   OH280415   3.469   0.444  13.677  0.3858 -0.1633 -0.0056
19667TIP3    H180416   3.424   0.387  13.740 -0.1106 -0.3611 -0.5258
19667TIP3    H280417   3.472   0.392  13.597  1.3613 -0.0631 -0.0331
19668TIP3   OH280418   4.661   3.961   4.875 -0.0557 -0.1667 -0.4164
19668TIP3    H180419   4.653   3.988   4.783  2.2399  0.4203 -0.4682
19668TIP3    H280420   4.649   4.042   4.925  1.7920  0.0723 -0.3467
19669TIP3   OH280421   2.126   1.132  12.003 -0.3885 -1.3965  0.1040
19669TIP3    H180422   2.155   1.091  12.085  1.2943 -0.4858 -0.0263
19669TIP3    H280423   2.030   1.121  12.004 -0.7326  0.9058  3.4792
19670TIP3   OH280424   6.167   6.686   0.512  0.2892  0.2250  0.1282
19670TIP3    H180425   6.151   6.691   0.606  2.2316  2.6934  0.3835
19670TIP3    H280426   6.240   6.624   0.503  1.1467  1.1751  0.4173
19671TIP3   OH280427   1.230   0.702   1.665 -0.1085 -0.1352  0.2045
19671TIP3    H180428   1.296   0.715   1.596 -1.0477  4.3690 -0.0003
19671TIP3    H280429   1.278   0.717   1.747 -0.4944  1.5327  0.1369
19672TIP3   OH280430   1.704   5.011  10.930  0.3160 -0.6359 -0.0847
19672TIP3    H180431   1.786   5.059  10.920 -1.3031  2.0542 -0.9575
19672TIP3    H280432   1.651   5.066  10.989 -0.7752 -2.4389  0.6525
19673TIP3   OH280433   6.284   0.196   6.015 -0.6420 -0.1499  0.7265
19673TIP3    H180434   6.192   0.221   6.023 -0.9309 -1.3326  1.1034
19673TIP3    H280435   6.329   0.279   5.998 -2.1657  0.0184 -3.0505
19674TIP3   OH280436   2.611   2.151   4.092  0.0118  0.2422 -0.3496
19674TIP3    H180437   2.606   2.176   3.999 -0.1014 -0.9524 -0.6733
19674TIP3    H280438   2.704   2.149   4.111  0.0012  1.5801 -0.1312
19675TIP3   OH280439   3.943   1.275   0.682  0.8288 -0.0181 -0.2351
19675TIP3    H180440   3.898   1.241   0.605 -0.0230  0.6438 -0.0307
19675TIP3    H280441   4.033   1.292   0.652  0.4331  0.4744 -1.1484
19676TIP3   OH280442   1.183   4.373  12.957 -0.7516  0.4462  0.1831
19676TIP3    H180443   1.189   4.394  12.863  0.0256 -3.2578 -0.6838
19676TIP3    H280444   1.096   4.333  12.966 -0.9401  1.0588  1.1251
19677TIP3   OH280445   5.689   2.589   3.531 -0.1710  0.1776  0.1395
19677TIP3    H180446   5.621   2.547   3.583 -0.4643  2.5592  1.7398
19677TIP3    H280447   5.719   2.520   3.471 -2.0066 -1.7026  1.3118
19678TIP3   OH280448   1.596   0.142   2.597 -0.2831 -0.5423 -0.3041
19678TIP3    H180449   1.674   0.150   2.651 -1.0801 -1.4223  1.0185
19678TIP3    H280450   1.602   0.054   2.559  0.4068  0.1738 -1.8694
19679TIP3   OH280451   4.328   6.396   4.372  0.2941  0.6520 -0.5737
19679TIP3    H180452   4.281   6.355   4.300 -1.5481  1.0762  0.3374
19679TIP3    H280453   4.279   6.370   4.450  1.6749  0.9901  0.4222
19680TIP3   OH280454   0.722   3.166   1.884  0.0911  0.5003 -0.5845
19680TIP3    H180455   0.786   3.192   1.951  0.5928  1.6377 -1.4923
19680TIP3    H280456   0.650   3.228   1.896 -0.1052  0.2934 -0.6882
19681TIP3   OH280457   3.810   4.087  15.198 -0.5158  0.3980 -0.1148
19681TIP3    H180458   3.723   4.054  15.176 -0.5948  1.1122 -0.9076
19681TIP3    H280459   3.865   4.009  15.201 -1.2785 -0.1112  0.8710
19682TIP3   OH280460   2.097   1.004   3.963 -0.4014  0.2863  0.3406
19682TIP3    H180461   2.163   1.073   3.966  1.8677 -1.8731  1.4630
19682TIP3    H280462   2.083   0.980   4.054 -1.4231 -0.5119 -0.0142
19683TIP3   OH280463   0.479   6.582  16.201  0.0526 -0.1576 -0.3177
19683TIP3    H180464   0.548   6.584  16.135 -0.1051  1.8392 -0.4572
19683TIP3    H280465   0.398   6.575  16.150  0.0110  0.0028 -0.2741
19684TIP3   OH280466   1.207   3.964   2.897  0.1202 -0.2113  0.7622
19684TIP3    H180467   1.222   4.051   2.935 -1.8404  0.5890 -0.2710
19684TIP3    H280468   1.285   3.947   2.844  0.8708  0.5520  1.6017
19685TIP3   OH280469   6.542   1.468   3.933  0.7085  0.3171  0.2026
19685TIP3    H180470   6.629   1.509   3.921 -0.1620  2.6663  1.5687
19685TIP3    H280471   6.533   1.458   4.027 -0.6693  0.4549  0.0899
19686TIP3   OH280472   4.441   2.248   2.276 -0.1230  0.0888 -0.3712
19686TIP3    H180473   4.491   2.196   2.339 -1.0709 -1.0579 -0.5404
19686TIP3    H280474   4.422   2.330   2.322  1.1563  0.2007 -0.0062
19687TIP3   OH280475   6.633   2.560  12.877 -0.1583  0.5735 -0.3810
19687TIP3    H180476   6.597   2.554  12.966 -1.2111  1.8991 -0.6961
19687TIP3    H280477   6.579   2.500  12.826  0.4071 -0.1418 -0.1590
19688TIP3   OH280478   4.022   4.895  12.153  0.3623  0.1360  0.1989
19688TIP3    H180479   3.934   4.894  12.192  1.5241 -2.1779  3.0249
19688TIP3    H280480   4.063   4.973  12.189  0.4078 -0.3629  1.2706
19689TIP3   OH280481   2.377   1.826  12.041  0.0731 -0.3016  0.2390
19689TIP3    H180482   2.310   1.811  11.974 -0.3770  2.2201  0.0702
19689TIP3    H280483   2.335   1.884  12.104  2.7345  3.2141 -1.0377
19690TIP3   OH280484   3.181   3.621  15.238  0.8142 -0.6461  0.4013
19690TIP3    H180485   3.107   3.561  15.252  0.7506 -0.8285 -0.7191
19690TIP3    H280486   3.245   3.593  15.303  0.4430 -1.3854  0.4627
19691TIP3   OH280487   4.675   2.956   5.642 -0.1957  0.2696 -0.1692
19691TIP3    H180488   4.750   2.980   5.587  0.3368 -0.8229  0.0654
19691TIP3    H280489   4.630   2.888   5.593 -0.4027  0.1461  0.1906
19692TIP3   OH280490   2.948   1.959   0.072 -0.0771  0.5893  0.1117
19692TIP3    H180491   2.946   1.990   0.163  0.1491  0.3173  0.2104
19692TIP3    H280492   3.003   1.881   0.075  1.8781  1.8892 -0.6523
19693TIP3   OH280493   0.461   6.716   0.912  0.3592  0.0406  0.2320
19693TIP3    H180494   0.405   6.676   0.979  0.8192 -0.5089  0.2889
19693TIP3    H280495   0.542   6.665   0.914  0.0010 -0.6512 -1.4486
19694TIP3   OH280496   4.703   6.516  16.533 -0.2851  0.8648 -0.4496
19694TIP3    H180497   4.729   6.602  16.499  0.7994  0.1757 -1.4015
19694TIP3    H280498   4.610   6.526  16.552 -0.1132  2.3337 -0.2923
19695TIP3   OH280499   3.032   1.200   2.503  0.1429 -0.2598  0.8845
19695TIP3    H180500   2.970   1.224   2.572 -1.0074 -0.7812  0.0401
19695TIP3    H280501   3.111   1.251   2.523 -1.6687  2.9546  0.0729
19696TIP3   OH280502   0.245   2.973  11.909  0.2769  0.1104  0.1923
19696TIP3    H180503   0.312   3.027  11.867  0.3437  0.2154  0.4355
19696TIP3    H280504   0.172   2.972  11.847 -0.5584  2.2177  1.1041
19697TIP3   OH280505   0.161   1.749   1.041  0.1313 -0.9429 -0.1824
19697TIP3    H180506   0.072   1.769   1.069 -0.2471 -2.6924 -0.0714
19697TIP3    H280507   0.163   1.773   0.948 -0.9003 -2.1882 -0.5516
19698TIP3   OH280508   4.671   4.428  12.011 -0.2198  0.2764  0.2178
19698TIP3    H180509   4.654   4.364  12.081 -0.1601 -0.7684 -0.7141
19698TIP3    H280510   4.630   4.390  11.933 -1.0397  1.8438 -0.1389
19699TIP3   OH280511   2.345   6.049   2.408 -0.1145  0.3064 -0.0135
19699TIP3    H180512   2.378   6.116   2.467 -0.2195  1.7337 -1.5446
19699TIP3    H280513   2.421   6.020   2.359 -0.5316  1.2755 -1.2634
19700TIP3   OH280514   0.767   0.946  11.250 -0.1429 -0.2076 -0.0611
19700TIP3    H180515   0.760   0.959  11.156 -0.9689 -0.1085  0.0137
19700TIP3    H280516   0.733   0.858  11.266 -1.5278  0.3906  0.3327
19701TIP3   OH280517   2.374   6.623   2.692 -0.2811 -0.1433 -0.5128
19701TIP3    H180518   2.375   6.527   2.698  1.4282 -0.2675 -2.3367
19701TIP3    H280519   2.460   6.649   2.724 -0.0555  0.6669 -1.7821
19702TIP3   OH280520   6.704   4.989  15.801  0.3587  0.3288  0.0771
19702TIP3    H180521   6.637   4.921  15.797 -0.2186  1.0247 -3.3595
19702TIP3    H280522   6.787   4.941  15.806 -0.1650 -0.5519  0.5358
19703TIP3   OH280523   6.380   3.196   5.593  0.7091  0.4049  0.4385
19703TIP3    H180524   6.471   3.169   5.603  0.1864 -1.5683 -0.0236
19703TIP3    H280525   6.331   3.140   5.654 -0.4489 -0.0274 -0.8739
19704TIP3   OH280526   4.342   0.895   0.304 -0.6069  0.1398  0.3907
19704TIP3    H180527   4.285   0.915   0.378  0.9323  0.1801  1.6021
19704TIP3    H280528   4.430   0.896   0.341  0.1341 -0.5948 -1.2964
19705TIP3   OH280529   3.600   1.810  16.109 -0.2292  0.1612  0.1975
19705TIP3    H180530   3.585   1.899  16.077  0.1766  1.2424  2.8658
19705TIP3    H280531   3.517   1.783  16.147  0.2425  0.2641  1.3354
19706TIP3   OH280532   3.667   4.651   4.186 -0.3181  0.2870 -0.2274
19706TIP3    H180533   3.702   4.739   4.175  0.9401 -0.3860 -1.8150
19706TIP3    H280534   3.574   4.660   4.167 -0.2527  1.3479 -0.0686
19707TIP3   OH280535   3.192   3.730   6.928 -0.3460  0.0434 -0.6377
19707TIP3    H180536   3.159   3.666   6.992 -0.1479  0.8262  0.2701
19707TIP3    H280537   3.277   3.696   6.902 -1.2207 -1.2418 -1.8956
19708TIP3   OH280538   3.006   4.825  16.827 -0.3997 -0.0916  0.0657
19708TIP3    H180539   3.031   4.883  16.898  0.5910  1.2031 -1.3220
19708TIP3    H280540   2.914   4.805  16.843 -0.1552  0.0966  1.7506
19709TIP3   OH280541   1.248   2.464   3.228 -0.4035 -0.8814 -0.1044
19709TIP3    H180542   1.263   2.394   3.165  1.2831  0.3137 -1.0699
19709TIP3    H280543   1.208   2.535   3.177  0.3752 -0.1453  0.2840
19710TIP3   OH280544   5.786   4.833  13.935  0.0515 -0.1892 -0.1021
19710TIP3    H180545   5.843   4.865  13.864 -1.0347 -0.0926 -0.9385
19710TIP3    H280546   5.802   4.894  14.007 -0.2365  0.8418 -0.8984
19711TIP3   OH280547   5.977   0.507  16.545  0.3123  0.2217  0.3094
19711TIP3    H180548   5.899   0.459  16.518  0.8351 -0.1132 -0.6020
19711TIP3    H280549   5.998   0.562  16.470  1.0573  0.1969  0.5014
19712TIP3   OH280550   0.286   1.538   4.121 -0.2767 -0.2500  0.3351
19712TIP3    H180551   0.374   1.507   4.142  0.2668  1.0713  0.0952
19712TIP3    H280552   0.237   1.459   4.098  1.2180 -0.8518 -0.8483
19713TIP3   OH280553   0.476   6.414  14.834  0.4380  0.2917  0.2502
19713TIP3    H180554   0.427   6.345  14.790 -1.0311  2.1796 -1.1685
19713TIP3    H280555   0.566   6.403  14.803  0.2925 -1.1979  0.3216
19714TIP3   OH280556   1.881   5.773   5.880 -0.2319 -0.4596 -0.2725
19714TIP3    H180557   1.921   5.713   5.943 -1.8612  1.0923  2.2789
19714TIP3    H280558   1.945   5.843   5.869  0.2488 -0.9617 -0.7344
19715TIP3   OH280559   5.597   0.413  14.395 -0.0567 -0.1785 -0.4301
19715TIP3    H180560   5.609   0.465  14.475 -0.9544 -0.7153  0.0788
19715TIP3    H280561   5.685   0.391  14.367  0.2665 -2.0166  1.8000
19716TIP3   OH280562   2.994   1.846   1.455  0.3674 -0.1429  0.0841
19716TIP3    H180563   3.080   1.869   1.490 -0.2972  2.3752  0.2128
19716TIP3    H280564   2.939   1.833   1.532  0.6933 -2.0528  0.0052
19717TIP3   OH280565   6.256   0.505  10.672 -0.6891 -0.3583 -0.0811
19717TIP3    H180566   6.190   0.513  10.603  0.5920 -1.1639 -1.4627
19717TIP3    H280567   6.289   0.594  10.684 -0.9087 -0.2090 -0.5531
19718TIP3   OH280568   3.739   6.473  12.724 -0.1049 -0.1894  0.5589
19718TIP3    H180569   3.754   6.403  12.661 -0.7369 -0.0426  0.2371
19718TIP3    H280570   3.771   6.552  12.680  1.2753 -0.3722  1.2072
19719TIP3   OH280571   5.698   0.104   5.382 -0.5322  0.0466 -0.2588
19719TIP3    H180572   5.721   0.153   5.462 -0.1170 -1.5784  0.6365
19719TIP3    H280573   5.616   0.059   5.405 -0.9459  0.3687 -1.1018
19720TIP3   OH280574   4.205   0.053  12.115  0.1945  0.5559 -0.3089
19720TIP3    H180575   4.222   0.067  12.208  1.9666  0.8776 -0.6759
19720TIP3    H280576   4.181  -0.040  12.109  1.8052  0.0941  0.2353
19721TIP3   OH280577   6.765   4.408  13.356 -0.3129 -0.4367  0.4573
19721TIP3    H180578   6.846   4.358  13.359 -0.2814 -0.3335  1.7342
19721TIP3    H280579   6.701   4.354  13.402 -0.5272  0.2398  0.9674
19722TIP3   OH280580   6.786   1.448  16.015  0.3663 -0.5044  0.3384
19722TIP3    H180581   6.718   1.385  16.040 -0.3332  0.1130  0.0225
19722TIP3    H280582   6.818   1.483  16.099  2.5194 -3.0583  0.6583
19723TIP3   OH280583   5.689   5.609  12.280 -0.1890  0.2063  0.1971
19723TIP3    H180584   5.698   5.690  12.330 -0.9394  0.3287  0.1359
19723TIP3    H280585   5.772   5.601  12.232  0.5285  0.1001  1.4278
19724TIP3   OH280586   1.376   4.185   5.627 -0.0549 -0.0559  0.2408
19724TIP3    H180587   1.443   4.252   5.638 -0.3044  0.3243 -0.5010
19724TIP3    H280588   1.340   4.171   5.714  0.3667  0.3889  0.4844
19725TIP3   OH280589   0.607   2.121   5.844 -0.0775 -0.5477  0.1123
19725TIP3    H180590   0.642   2.064   5.913 -1.7012 -0.7127  0.8247
19725TIP3    H280591   0.517   2.091   5.832 -0.1868  0.2882 -1.2326
19726TIP3   OH280592   0.115   5.974  15.560  0.5927  0.7940 -0.4924
19726TIP3    H180593   0.181   5.983  15.629 -0.6191 -2.6129  1.2580
19726TIP3    H280594   0.152   5.909  15.500 -0.9621 -0.9105  0.3383
19727TIP3   OH280595   5.300   3.970   5.802 -0.9112 -0.3378 -0.1057
19727TIP3    H180596   5.362   4.007   5.865  0.5377 -1.2601 -0.9597
19727TIP3    H280597   5.246   3.911   5.854 -0.2688 -0.4627  0.4323
19728TIP3   OH280598   3.537   5.463   6.022 -0.4883 -0.3264 -0.0960
19728TIP3    H180599   3.485   5.387   5.996 -1.1606  0.4340 -1.0408
19728TIP3    H280600   3.474   5.522   6.063  0.1283 -0.4949  1.1064
19729TIP3   OH280601   3.910   4.519   4.981 -0.2271  0.0389 -0.4358
19729TIP3    H180602   3.863   4.548   4.903 -1.1113 -0.2657 -0.0166
19729TIP3    H280603   3.922   4.597   5.034 -1.2433 -0.0661 -0.0312
19730TIP3   OH280604   5.188   5.462  12.366 -0.4802 -0.0716  0.3796
19730TIP3    H180605   5.253   5.415  12.417 -0.9660 -1.0109  0.1389
19730TIP3    H280606   5.118   5.399  12.352 -0.4513  0.2315 -1.2540
19731TIP3   OH280607   3.496   5.165  16.648  0.3481  0.2178 -0.2723
19731TIP3    H180608   3.418   5.206  16.612 -0.6677 -1.6143 -0.2083
19731TIP3    H280609   3.559   5.166  16.576  0.8840  3.1516  0.1436
19732TIP3   OH280610   2.159   6.136  16.327  0.0784 -0.3028  0.6484
19732TIP3    H180611   2.130   6.219  16.365 -0.2493 -0.2026  0.1904
19732TIP3    H280612   2.100   6.122  16.253  1.5377  0.1729 -0.6255
19733TIP3   OH280613   1.810   0.884  10.689 -0.3363  0.2353  0.0040
19733TIP3    H180614   1.765   0.968  10.702  0.7499  0.6727  1.0390
19733TIP3    H280615   1.903   0.908  10.684 -0.0697 -0.8522 -0.2740
19734TIP3   OH280616   1.006   5.657  15.316  0.1495 -0.3954  0.1336
19734TIP3    H180617   1.004   5.564  15.295 -0.1267 -0.2802 -0.3613
19734TIP3    H280618   1.098   5.677  15.329  0.0920 -1.0406  1.6200
19735TIP3   OH280619   5.139   1.972  13.770 -0.0809 -0.1403 -0.4179
19735TIP3    H180620   5.082   1.910  13.815 -0.7628 -0.4484 -1.6910
19735TIP3    H280621   5.097   1.986  13.685 -1.1333  3.7451  0.6407
19736TIP3   OH280622   5.581   1.456   3.201  0.3658 -0.9513  0.9625
19736TIP3    H180623   5.517   1.421   3.263 -2.6989 -0.4092 -1.7642
19736TIP3    H280624   5.579   1.396   3.127 -2.0362  2.6028 -2.0495
19737TIP3   OH280625   1.499   3.924   0.708 -0.0004  0.3226 -0.3986
19737TIP3    H180626   1.447   3.937   0.629  0.6382  0.0587 -0.8734
19737TIP3    H280627   1.461   3.983   0.772  0.9187  2.2488 -1.5736
19738TIP3   OH280628   6.382   4.928   3.393  0.4936 -0.4525  0.4138
19738TIP3    H180629   6.298   4.930   3.439  1.5858 -4.5149  2.8692
19738TIP3    H280630   6.362   4.959   3.305 -3.1435  0.7461  1.5683
19739TIP3   OH280631   6.748   2.049   3.598  0.1558 -0.0600  0.4854
19739TIP3    H180632   6.739   1.998   3.517  1.3415  0.2889  0.1371
19739TIP3    H280633   6.708   2.133   3.578  0.3589 -0.0094  0.2946
19740TIP3   OH280634   3.922   1.909   4.190  0.3905 -0.1800  0.0209
19740TIP3    H180635   4.013   1.916   4.216  0.5025 -0.4209 -0.3063
19740TIP3    H280636   3.902   1.993   4.150 -0.0338  0.5242  1.6492
19741TIP3   OH280637   1.082   2.468  16.867  0.1904  0.1709  0.4124
19741TIP3    H180638   1.112   2.479  16.777  0.3004 -0.7027  0.3322
19741TIP3    H280639   1.119   2.541  16.915 -0.7739  1.2652 -0.4792
19742TIP3   OH280640   2.547   4.644  17.127 -0.1667 -0.0934  0.4942
19742TIP3    H180641   2.600   4.582  17.077  1.5462  1.3448  0.4702
19742TIP3    H280642   2.566   4.624  17.218 -0.9909 -0.7449  0.5346
19743TIP3   OH280643   2.748   6.744   2.314 -0.4606 -0.4162 -0.3107
19743TIP3    H180644   2.746   6.662   2.363 -0.6974  0.0276  0.4265
19743TIP3    H280645   2.695   6.805   2.365 -1.0277 -0.0522 -1.3107
19744TIP3   OH280646   5.503   2.187  15.289  0.1656  0.2105  0.2678
19744TIP3    H180647   5.566   2.234  15.235 -0.4283  0.3065 -0.3423
19744TIP3    H280648   5.443   2.146  15.227 -1.3083  1.4237  0.8571
19745TIP3   OH280649   0.830   2.289  15.330  0.1219 -0.2790 -0.3863
19745TIP3    H180650   0.848   2.334  15.248 -1.1950  1.1327  0.0797
19745TIP3    H280651   0.764   2.224  15.308  1.4680 -1.4984 -0.9017
19746TIP3   OH280652   4.806   3.829   5.315  0.4408 -0.8850  0.5931
19746TIP3    H180653   4.870   3.760   5.297  1.0910  0.1240 -1.0518
19746TIP3    H280654   4.797   3.829   5.410  1.9095 -1.9266  0.7464
19747TIP3   OH280655   3.392   0.726  13.411  0.4290 -0.2700 -0.2207
19747TIP3    H180656   3.318   0.669  13.435 -0.0894  0.2135 -0.6599
19747TIP3    H280657   3.449   0.670  13.359  0.2384 -0.5684 -0.1144
19748TIP3   OH280658   0.061   1.331  12.332  0.1299 -0.1310  0.3311
19748TIP3    H180659   0.140   1.276  12.327  1.3772  1.4154  2.2422
19748TIP3    H280660   0.039   1.349  12.241  0.2243 -2.9919 -0.3276
19749TIP3   OH280661   3.706   2.955   2.002 -0.0825  0.0876 -0.1627
19749TIP3    H180662   3.612   2.967   2.018 -0.0540  2.4287 -1.5236
19749TIP3    H280663   3.748   2.989   2.081 -0.3214  1.5798 -0.6476
19750TIP3   OH280664   3.309   3.525   5.474  0.8003  0.8906 -0.2629
19750TIP3    H180665   3.237   3.571   5.432 -1.2626  0.8313  2.9800
19750TIP3    H280666   3.384   3.584   5.466 -0.3688  2.2763 -1.1323
19751TIP3   OH280667   4.868   6.293  16.501 -0.7985 -0.0623 -0.1682
19751TIP3    H180668   4.807   6.367  16.494 -0.9298 -0.2578 -1.1521
19751TIP3    H280669   4.893   6.292  16.593  1.1426  2.7765 -0.5999
19752TIP3   OH280670   6.121   6.250   6.127 -0.8332  0.3951  0.0815
19752TIP3    H180671   6.102   6.171   6.177 -1.8855 -0.7420 -2.0227
19752TIP3    H280672   6.216   6.252   6.119 -0.2769  2.6412  5.2230
19753TIP3   OH280673   3.543   0.752  11.065  0.1125  0.3462 -0.2759
19753TIP3    H180674   3.487   0.703  11.006  1.8481  1.2288 -2.7087
19753TIP3    H280675   3.482   0.797  11.124 -1.6370 -0.3311 -1.5344
19754TIP3   OH280676   2.614   4.159   5.782  0.6671  0.0448 -0.2258
19754TIP3    H180677   2.640   4.183   5.693 -1.4410  0.3340 -0.7896
19754TIP3    H280678   2.606   4.064   5.780 -0.5207  0.1397 -0.6960
19755TIP3   OH280679   5.894   1.317  14.353 -0.1553  0.6548  0.1956
19755TIP3    H180680   5.842   1.237  14.354 -0.8648  1.1106  0.3591
19755TIP3    H280681   5.885   1.352  14.265 -0.3185  0.8550  0.2895
19756TIP3   OH280682   1.695   5.929   4.000  0.2138  0.1602 -0.3417
19756TIP3    H180683   1.783   5.890   4.006  0.2737  0.3333 -0.0671
19756TIP3    H280684   1.691   5.966   3.912  0.3948  0.1005 -0.3763
19757TIP3   OH280685   6.333   1.855  16.751 -0.9475  0.0413  0.0877
19757TIP3    H180686   6.298   1.771  16.781 -1.2977 -0.0446 -0.5482
19757TIP3    H280687   6.304   1.862  16.660 -0.6768  0.7216  0.0501
19758TIP3   OH280688   0.628   4.479  15.358 -0.0671  0.0384 -0.0651
19758TIP3    H180689   0.575   4.475  15.438 -0.5769 -1.2234 -0.4416
19758TIP3    H280690   0.702   4.421  15.375  0.8795  1.3263  0.2306
19759TIP3   OH280691   5.544   5.393  16.498  0.0154 -0.5363 -0.0295
19759TIP3    H180692   5.465   5.422  16.452  0.6260  2.2632  0.6303
19759TIP3    H280693   5.608   5.377  16.428 -0.6382 -1.3305 -0.4589
19760TIP3   OH280694   6.069   1.001   3.790  0.4532 -0.0387 -0.4091
19760TIP3    H180695   6.072   1.091   3.822  1.3201 -0.2694  0.1808
19760TIP3    H280696   6.104   1.006   3.701 -0.6939  0.3961 -0.8451
19761TIP3   OH280697   2.307   5.774   4.141  0.2248 -0.1403 -0.4745
19761TIP3    H180698   2.291   5.863   4.109 -0.6526 -0.1286 -0.0185
19761TIP3    H280699   2.296   5.718   4.064 -3.8354 -0.3152  0.1161
19762TIP3   OH280700   6.547   4.980  12.227  0.4020  1.5359 -0.9256
19762TIP3    H180701   6.469   5.031  12.248 -1.1925 -1.3684  0.6216
19762TIP3    H280702   6.520   4.924  12.154  0.3502 -0.8854  0.8843
19763TIP3   OH280703   2.952   0.187  16.403  0.0875 -0.1031 -0.1642
19763TIP3    H180704   2.907   0.240  16.337 -1.1994 -0.3491  0.5083
19763TIP3    H280705   3.029   0.239  16.427  0.1719  0.3219 -1.3165
19764TIP3   OH280706   1.081   4.097   1.040 -0.2350  0.2017 -0.5876
19764TIP3    H180707   1.047   4.015   1.004  2.3014 -1.2717  0.1893
19764TIP3    H280708   1.058   4.094   1.133  1.1251 -0.3604 -0.2536
19765TIP3   OH280709   5.540   0.499  13.321 -0.1339 -0.7549  0.1814
19765TIP3    H180710   5.461   0.492  13.267 -0.2863  0.6917  0.1880
19765TIP3    H280711   5.609   0.522  13.258  0.1626 -1.4287  0.2609
19766TIP3   OH280712   5.390   6.239  13.001  0.3615  0.5046  0.8945
19766TIP3    H180713   5.368   6.332  12.992 -0.2821  0.4885  2.2435
19766TIP3    H280714   5.483   6.238  13.022  0.2381  0.8686  1.4507
19767TIP3   OH280715   3.889   5.812  13.251  0.2442 -0.2025 -0.1003
19767TIP3    H180716   3.801   5.806  13.289  0.0277 -1.4406 -0.7494
19767TIP3    H280717   3.878   5.868  13.175 -0.0332 -0.5043 -0.2880
19768TIP3   OH280718   4.765   4.936   1.902 -0.0388  0.3769 -0.2507
19768TIP3    H180719   4.795   4.973   1.819 -3.0697  2.5503 -0.4554
19768TIP3    H280720   4.760   5.011   1.961 -0.3763 -0.7387  1.1667
19769TIP3   OH280721   3.830   6.771  17.195  0.3599 -0.0113 -0.1040
19769TIP3    H180722   3.852   6.678  17.202  0.2409  0.0499  1.1504
19769TIP3    H280723   3.894   6.805  17.132  0.0988 -1.0277 -0.9485
19770TIP3   OH280724   0.418   1.405   6.077 -0.4261 -0.3925  0.1856
19770TIP3    H180725   0.498   1.442   6.039 -1.5633  2.0810  0.0888
19770TIP3    H280726   0.363   1.383   6.002 -0.7942  0.1287  0.3022
19771TIP3   OH280727   5.418   2.886  15.754 -0.0929  0.7629 -0.3748
19771TIP3    H180728   5.435   2.979  15.739 -0.2379  0.9068  0.3176
19771TIP3    H280729   5.449   2.871  15.843 -0.6272  0.2849 -0.2708
19772TIP3   OH280730   3.796   0.640  14.458 -0.1952  0.6941  0.4745
19772TIP3    H180731   3.832   0.554  14.435 -0.3132  0.9439 -0.6608
19772TIP3    H280732   3.872   0.691  14.486  0.6419  1.6871 -3.2921
19773TIP3   OH280733   2.141   1.211   1.261 -0.7049 -0.4489  0.2434
19773TIP3    H180734   2.070   1.235   1.201 -0.5392  0.7373  0.4984
19773TIP3    H280735   2.219   1.212   1.205 -0.3625  1.8935  0.6919
19774TIP3   OH280736   5.985   1.304  13.889  0.2305  0.0547 -0.7609
19774TIP3    H180737   5.921   1.233  13.879  0.3133  0.0267 -1.1164
19774TIP3    H280738   5.952   1.357  13.961  1.7103 -1.9955  1.4921
19775TIP3   OH280739   2.281   5.954   0.363  0.2157  0.0466 -0.2428
19775TIP3    H180740   2.216   6.021   0.344 -1.7418 -1.4342  1.0168
19775TIP3    H280741   2.232   5.871   0.361  2.0079 -1.0921  0.8674
19776TIP3   OH280742   3.832   0.936  11.630 -0.4969 -0.1493 -0.2656
19776TIP3    H180743   3.876   1.010  11.588 -0.0924  0.0259  0.4644
19776TIP3    H280744   3.844   0.864  11.568 -0.1078  0.1674 -0.5648
19777TIP3   OH280745   5.799   5.339  10.833  0.1455  0.0492 -0.4376
19777TIP3    H180746   5.744   5.414  10.857  0.3888  0.2701 -0.5633
19777TIP3    H280747   5.874   5.378  10.788 -0.3773 -0.3854 -1.6794
19778TIP3   OH280748   0.076   4.622  17.083 -0.1282 -0.1653  0.8439
19778TIP3    H180749   0.109   4.533  17.071  0.6423  0.2274  0.0601
19778TIP3    H280750  -0.006   4.611  17.133  0.4401 -1.2347  1.5514
19779TIP3   OH280751   4.738   0.030  11.599  0.2273  0.5647 -0.3485
19779TIP3    H180752   4.772   0.086  11.669  1.0978  0.0972 -0.3868
19779TIP3    H280753   4.722  -0.054  11.641  1.6137  0.0146 -0.9010
19780TIP3   OH280754   0.876   2.182   3.949  0.0938 -0.1100 -0.1236
19780TIP3    H180755   0.806   2.217   4.004  1.2840  0.7265  0.8958
19780TIP3    H280756   0.866   2.087   3.953 -1.4552  0.0262 -0.6318
19781TIP3   OH280757   0.238   0.309   5.581  0.0763 -0.2845  0.2436
19781TIP3    H180758   0.286   0.293   5.500 -0.1264  1.2543 -0.1823
19781TIP3    H280759   0.303   0.346   5.641 -0.2856  0.6568  0.0611
19782TIP3   OH280760   1.423   5.932   5.557  0.0375 -0.5360 -0.0059
19782TIP3    H180761   1.464   5.949   5.641 -0.6432 -0.1044  0.2472
19782TIP3    H280762   1.439   6.011   5.505  0.9404 -1.0228 -0.4871
19783TIP3   OH280763   2.623   5.528  16.092  0.0208 -0.4122  0.4654
19783TIP3    H180764   2.616   5.530  15.997 -1.0872 -0.3084  0.5414
19783TIP3    H280765   2.598   5.617  16.119 -0.9681 -0.8174  0.9218
19784TIP3   OH280766   1.542   1.168   0.117 -0.1705 -0.1958  0.4790
19784TIP3    H180767   1.508   1.088   0.158  1.2933  0.0617  2.2465
19784TIP3    H280768   1.597   1.137   0.046 -3.2910 -0.6394 -1.8807
19785TIP3   OH280769   5.024   1.163   4.942  0.2456  0.1325  0.0854
19785TIP3    H180770   5.062   1.087   4.897  0.0381  1.4231 -2.3487
19785TIP3    H280771   4.937   1.134   4.969  0.8202 -1.0400  0.7229
19786TIP3   OH280772   5.057   3.153  12.340  0.3376 -0.3584 -0.2731
19786TIP3    H180773   5.033   3.184  12.427  0.6557 -0.8491 -0.0097
19786TIP3    H280774   4.982   3.101  12.312  1.1535 -2.0672  0.6392
19787TIP3   OH280775   4.289   5.777  14.409  0.2131 -0.2194  0.0612
19787TIP3    H180776   4.220   5.789  14.345  0.8184  0.3529 -0.4973
19787TIP3    H280777   4.316   5.686  14.399  1.1028  0.1720 -1.3281
19788TIP3   OH280778   5.818   4.140  16.410  0.0173 -0.0262 -0.4130
19788TIP3    H180779   5.908   4.166  16.431 -0.5806  2.7375 -0.9823
19788TIP3    H280780   5.817   4.126  16.316 -0.1810  0.1023 -0.4295
19789TIP3   OH280781   2.369   1.589   5.633  0.3212  0.4462 -0.1751
19789TIP3    H180782   2.296   1.646   5.658 -0.1781 -0.4389  0.4289
19789TIP3    H280783   2.330   1.525   5.574  0.7414  0.3416 -0.3356
19790TIP3   OH280784   4.675   0.565  12.724  0.4644 -0.3821 -0.2879
19790TIP3    H180785   4.713   0.481  12.700  0.7942 -0.5044  0.6304
19790TIP3    H280786   4.748   0.627  12.716  0.1718 -0.1578 -1.1551
19791TIP3   OH280787   2.788   0.482   1.879  0.1299 -0.3724  0.5181
19791TIP3    H180788   2.809   0.507   1.969  0.3087  1.3415  0.0315
19791TIP3    H280789   2.778   0.387   1.882 -1.5646 -0.1858  2.7033
19792TIP3   OH280790   4.227   6.107   4.864  0.2791 -0.5462 -0.6342
19792TIP3    H180791   4.182   6.065   4.790 -0.3678  1.0862 -1.1842
19792TIP3    H280792   4.319   6.110   4.837 -0.0096  0.4033 -1.5697
19793TIP3   OH280793   4.155   1.456   0.195  0.7678  0.0170 -0.1420
19793TIP3    H180794   4.166   1.489   0.106 -0.6128 -0.6691 -0.5873
19793TIP3    H280795   4.176   1.530   0.252 -0.9879  1.2833 -1.0877
19794TIP3   OH280796   3.853   2.174   3.779  0.2013  0.2496 -0.3683
19794TIP3    H180797   3.810   2.091   3.799 -1.1478  1.2195  0.9105
19794TIP3    H280798   3.859   2.176   3.684 -1.6923 -0.3612 -0.5161
19795TIP3   OH280799   3.642   5.353  16.212  0.0394 -0.8316 -0.4852
19795TIP3    H180800   3.646   5.440  16.251  1.2497 -1.1896  0.2187
19795TIP3    H280801   3.549   5.332  16.210 -0.3097  0.7147 -1.2054
19796TIP3   OH280802   2.350   5.602  14.950  0.2115  0.0264 -0.3301
19796TIP3    H180803   2.383   5.641  14.870  0.6479  0.3308 -0.0086
19796TIP3    H280804   2.392   5.652  15.020 -0.2703 -0.1451  0.0874
19797TIP3   OH280805   4.396   1.787  12.345 -0.2771 -0.2860 -0.3587
19797TIP3    H180806   4.385   1.742  12.262 -1.1032  1.5727 -1.3052
19797TIP3    H280807   4.489   1.777  12.367 -0.0995 -0.9447 -1.4143
19798TIP3   OH280808   2.799   3.623  13.301 -0.0607 -0.0831 -0.3252
19798TIP3    H180809   2.742   3.555  13.337  1.7492 -0.5328  1.8389
19798TIP3    H280810   2.759   3.706  13.329 -0.8970 -0.3226 -0.8082
19799TIP3   OH280811   1.250   4.937  13.499 -0.3888 -0.0090  0.0015
19799TIP3    H180812   1.191   4.893  13.559  0.6101 -1.0409  0.2409
19799TIP3    H280813   1.272   5.020  13.543 -1.2802  0.1682  0.1138
19800TIP3   OH280814   0.431   5.772   1.687 -0.5784 -0.1122  0.1675
19800TIP3    H180815   0.451   5.815   1.770 -1.3729  0.8808 -0.1375
19800TIP3    H280816   0.510   5.784   1.634  1.0374 -3.2376  1.7363
19801TIP3   OH280817   5.613   4.018   5.693  0.2705  0.2070  0.7725
19801TIP3    H180818   5.619   3.963   5.615  0.7754  0.2001  0.8156
19801TIP3    H280819   5.560   3.966   5.754  0.0253  0.1357  0.4997
19802TIP3   OH280820   2.203   6.261  13.725 -0.2319 -0.4482 -0.0523
19802TIP3    H180821   2.224   6.169  13.709  2.7095  0.1990 -0.0610
19802TIP3    H280822   2.249   6.309  13.657 -0.7729  1.1494  0.6766
19803TIP3   OH280823   3.115   1.339  12.262  0.1230 -0.1389 -0.2366
19803TIP3    H180824   3.109   1.333  12.358 -0.2545 -0.2747 -0.2699
19803TIP3    H280825   3.028   1.367  12.234  0.2033 -0.2050 -0.5516
19804TIP3   OH280826   2.059   6.401  13.336 -0.4809 -0.2805  0.1503
19804TIP3    H180827   2.048   6.319  13.383 -0.9920  0.4201  1.2903
19804TIP3    H280828   1.978   6.410  13.284  0.0387 -1.0046 -0.7936
19805TIP3   OH280829   0.555   5.273   1.521  0.4721 -0.0387  0.4838
19805TIP3    H180830   0.496   5.280   1.596 -0.3288  1.4437 -0.2438
19805TIP3    H280831   0.613   5.200   1.542 -0.0379  0.0607  2.3254
19806TIP3   OH280832   4.641   0.260  12.154  0.1322 -0.2571 -0.4864
19806TIP3    H180833   4.557   0.223  12.181 -0.8502  0.5336 -2.3337
19806TIP3    H280834   4.620   0.310  12.074  1.6369  3.0979  1.1274
19807TIP3   OH280835   6.780   2.900   2.512 -0.2178 -0.1046 -0.2876
19807TIP3    H180836   6.775   2.922   2.419 -0.9571  0.8830 -0.0257
19807TIP3    H280837   6.768   2.805   2.515 -1.9428  0.0704 -1.0778
19808TIP3   OH280838   4.498   6.666  12.173  0.2596 -0.1296  0.1391
19808TIP3    H180839   4.547   6.650  12.092  1.0444  1.6205  0.2487
19808TIP3    H280840   4.416   6.706  12.144 -0.2158 -1.1130  0.1033
19809TIP3   OH280841   2.085   3.898  16.069 -0.2566 -0.3397  0.4951
19809TIP3    H180842   2.053   3.928  16.154  0.6902 -0.2334  0.8102
19809TIP3    H280843   2.170   3.859  16.087  0.7620  1.3004 -0.6813
19810TIP3   OH280844   3.518   2.973   2.320  0.7611 -0.7868 -0.1891
19810TIP3    H180845   3.606   2.992   2.351  0.1223  1.6817  0.2070
19810TIP3    H280846   3.463   2.981   2.398 -0.2068  0.6042 -0.9953
19811TIP3   OH280847   5.526   1.998   1.226  1.0026 -0.1701  0.2123
19811TIP3    H180848   5.529   2.040   1.140  0.5868 -0.2312  0.1660
19811TIP3    H280849   5.468   1.923   1.214  2.0735 -0.9950  0.1954
19812TIP3   OH280850   6.486   1.291   5.950  0.5813 -0.0185  0.3065
19812TIP3    H180851   6.576   1.262   5.934 -0.0792 -1.0063 -1.9175
19812TIP3    H280852   6.459   1.332   5.867 -0.5157  1.6141  1.4452
19813TIP3   OH280853   0.314   1.501   3.595 -0.3148 -0.5816 -0.5457
19813TIP3    H180854   0.392   1.457   3.561 -1.1683 -2.5377 -0.0415
19813TIP3    H280855   0.347   1.584   3.630  1.6871 -1.7607  0.4564
19814TIP3   OH280856   2.522   1.734  10.817  0.0722  0.0962  0.0096
19814TIP3    H180857   2.515   1.812  10.762  0.2005  2.0094  2.5882
19814TIP3    H280858   2.589   1.681  10.774  0.2351  1.5712 -1.6279
19815TIP3   OH280859   2.316   3.960  15.834  0.3358 -0.7695  0.1193
19815TIP3    H180860   2.267   3.935  15.755  1.5558  3.2971 -2.0371
19815TIP3    H280861   2.253   3.946  15.905 -1.6075 -2.2913 -1.8044
19816TIP3   OH280862   2.601   5.699  15.512  0.3494 -0.4315 -1.2561
19816TIP3    H180863   2.688   5.664  15.533  0.1782  0.7494  1.7110
19816TIP3    H280864   2.541   5.650  15.568 -0.4393  1.3228 -0.5467
19817TIP3   OH280865   0.885   4.617   1.411 -0.3544 -0.1511  0.5523
19817TIP3    H180866   0.831   4.628   1.489 -2.1017 -0.7694 -0.5183
19817TIP3    H280867   0.829   4.647   1.339  1.4833  1.0965 -0.4009
19818TIP3   OH280868   4.836   1.696  13.024  0.1489  0.0298 -0.4129
19818TIP3    H180869   4.795   1.704  12.938 -0.7442  0.2971  0.0329
19818TIP3    H280870   4.823   1.604  13.049 -0.6712  0.2369 -0.0404
19819TIP3   OH280871   2.421   4.917  15.374 -0.0025 -0.4937  0.2111
19819TIP3    H180872   2.405   4.838  15.322 -1.3736 -0.9788  1.3373
19819TIP3    H280873   2.476   4.887  15.446  1.0955 -0.0096 -0.4030
19820TIP3   OH280874   3.439   6.001  14.107  0.9053  0.3445 -0.0085
19820TIP3    H180875   3.428   5.919  14.154  3.5902 -0.0903 -0.0521
19820TIP3    H280876   3.430   5.978  14.014  2.8796 -0.1573 -0.0934
19821TIP3   OH280877   6.159   3.817   5.651 -0.0254 -0.1221 -0.1928
19821TIP3    H180878   6.252   3.801   5.638  0.1532  0.6642  0.1199
19821TIP3    H280879   6.150   3.912   5.646 -0.4250 -0.0100  2.4148
19822TIP3   OH280880   6.427   2.994  11.778 -0.5617  0.0494  0.3548
19822TIP3    H180881   6.460   3.082  11.763 -1.4932  0.5323  1.0901
19822TIP3    H280882   6.422   2.955  11.691 -0.8967  0.9876 -0.0528
19823TIP3   OH280883   3.671   2.573   3.903  0.3558  0.2676  0.1394
19823TIP3    H180884   3.728   2.500   3.925  0.9060  1.1011  1.5709
19823TIP3    H280885   3.609   2.578   3.976  1.1193  2.0071  0.6996
19824TIP3   OH280886   1.737   1.271   6.236 -0.0733  0.3802 -0.3486
19824TIP3    H180887   1.809   1.210   6.222 -2.4767 -2.3185 -1.5816
19824TIP3    H280888   1.709   1.255   6.326 -1.7213 -1.5675 -1.1692
19825TIP3   OH280889   4.570   0.440  14.572  0.2162 -0.2791  0.4030
19825TIP3    H180890   4.519   0.505  14.524  0.2596 -0.6029 -0.0878
19825TIP3    H280891   4.657   0.445  14.533  0.1815 -0.7272  0.2665
19826TIP3   OH280892   3.897   5.018  15.379  0.1265 -0.4440  0.0548
19826TIP3    H180893   3.912   5.112  15.376  2.5169 -0.7691  0.8606
19826TIP3    H280894   3.911   4.994  15.470  0.3412 -1.6954 -0.2943
19827TIP3   OH280895   0.015   4.826  16.910 -0.5142 -0.1701  0.1692
19827TIP3    H180896   0.076   4.862  16.845 -1.0210 -0.1501 -0.3107
19827TIP3    H280897   0.055   4.744  16.939  0.9873  1.1040  1.7786
19828TIP3   OH280898   0.813   0.420   3.573 -0.0186  0.4209  0.0344
19828TIP3    H180899   0.847   0.503   3.606  0.6374 -0.0948  0.6797
19828TIP3    H280900   0.883   0.357   3.591 -0.5361 -0.2802 -0.3948
19829TIP3   OH280901   4.961   5.958  15.461  0.3921  0.4367 -0.5630
19829TIP3    H180902   5.053   5.933  15.471  0.3718  0.7446  0.3590
19829TIP3    H280903   4.941   6.008  15.539 -1.5694 -2.6957  1.0594
19830TIP3   OH280904   4.850   6.028   0.931 -0.0330  0.5144 -0.1176
19830TIP3    H180905   4.803   6.106   0.962  1.0248  0.9720  0.3576
19830TIP3    H280906   4.790   5.955   0.949 -0.9308  1.1892 -0.3385
19831TIP3   OH280907   5.227   4.940  14.422 -0.0385 -0.2644  0.4066
19831TIP3    H180908   5.275   4.879  14.367 -1.2436  1.1120 -2.2788
19831TIP3    H280909   5.286   5.014  14.433 -0.2734  0.0059 -0.1256
19832TIP3   OH280910   3.472   3.635   2.348 -0.3536  0.6310  0.0291
19832TIP3    H180911   3.393   3.674   2.311 -0.8623 -1.4282 -1.1121
19832TIP3    H280912   3.544   3.690   2.316 -1.1329  1.2846 -0.6217
19833TIP3   OH280913   6.577   3.349  15.052 -0.3787  0.1106 -0.3219
19833TIP3    H180914   6.517   3.374  14.982 -0.9192 -1.1545 -0.3394
19833TIP3    H280915   6.521   3.339  15.129 -0.0381 -0.0818 -0.0976
19834TIP3   OH280916   0.317   6.213  10.486  0.0788 -0.1575  0.1054
19834TIP3    H180917   0.269   6.134  10.461 -1.6325  0.4363  1.3866
19834TIP3    H280918   0.373   6.186  10.558  1.6911 -0.8459 -1.3667
19835TIP3   OH280919   5.250   4.515  15.913 -0.1749 -0.1727  0.0238
19835TIP3    H180920   5.276   4.429  15.880  2.8314  0.4430  0.6207
19835TIP3    H280921   5.313   4.533  15.983 -1.0025  2.3555  0.1505
19836TIP3   OH280922   1.932   3.607  15.778  0.2303  0.5154 -0.0564
19836TIP3    H180923   1.947   3.567  15.863  1.4089  0.1808 -0.4197
19836TIP3    H280924   2.003   3.575  15.723  1.0170  2.8410 -0.4407
19837TIP3   OH280925   5.180   0.129  14.688 -0.2574  0.0090  0.3087
19837TIP3    H180926   5.250   0.189  14.662  1.3711 -1.0570  2.0795
19837TIP3    H280927   5.111   0.186  14.721  0.0655  1.0445 -0.7634
19838TIP3   OH280928   5.433   0.973  13.698 -0.0641 -0.9076  0.3283
19838TIP3    H180929   5.507   0.923  13.733  0.1573 -0.8520 -0.0581
19838TIP3    H280930   5.359   0.948  13.753  0.6672  0.6045  2.0448
19839TIP3   OH280931   3.484   4.574   6.132 -0.6991  0.0812  0.9542
19839TIP3    H180932   3.416   4.629   6.092  1.0687  1.1831 -0.6211
19839TIP3    H280933   3.523   4.527   6.058  0.6453 -0.0999  1.7689
19840TIP3   OH280934   1.989   4.516   2.276  0.5934  0.1880 -0.3066
19840TIP3    H180935   2.009   4.445   2.215  1.1067 -0.2541  0.3581
19840TIP3    H280936   1.894   4.526   2.272  0.5592 -0.2938 -0.6719
19841TIP3   OH280937   5.559   2.111   0.981  0.3805 -0.3727 -0.1928
19841TIP3    H180938   5.473   2.100   0.942 -0.1782  1.0443  0.6113
19841TIP3    H280939   5.602   2.177   0.927  0.0248  0.7601  0.8889
19842TIP3   OH280940   5.058   6.322  15.651 -0.0726  0.1032 -0.0999
19842TIP3    H180941   5.075   6.229  15.664  0.0781 -0.0629 -1.4684
19842TIP3    H280942   5.141   6.365  15.674 -0.2463 -0.0661  0.8550
19843TIP3   OH280943   5.267   5.766  13.675  0.1988  0.3189  0.0052
19843TIP3    H180944   5.341   5.768  13.735 -0.4977  0.7262  0.8475
19843TIP3    H280945   5.193   5.738  13.728 -0.6921  1.9312 -0.3593
19844TIP3   OH280946   0.409   1.952   4.986  0.3910 -0.4375  0.3150
19844TIP3    H180947   0.425   2.046   4.992 -1.5785 -0.0474 -0.4509
19844TIP3    H280948   0.434   1.919   5.073 -1.4329  1.1867  1.5020
19845TIP3   OH280949   1.525   4.697   3.003 -0.0557 -0.4306 -0.0488
19845TIP3    H180950   1.550   4.787   3.022 -0.3383 -0.3327 -0.1345
19845TIP3    H280951   1.552   4.683   2.912 -0.3991 -0.2924 -0.1736
19846TIP3   OH280952   2.103   5.063  14.866  0.0317 -0.1565  0.1980
19846TIP3    H180953   2.191   5.100  14.861 -0.2855  0.6819  0.7390
19846TIP3    H280954   2.084   5.056  14.959 -0.2193 -0.9715  0.0934
19847TIP3   OH280955   3.970   1.453  16.031  0.6244  0.1057 -0.7938
19847TIP3    H180956   3.946   1.378  16.086  0.8210 -0.4325 -1.4425
19847TIP3    H280957   4.065   1.444  16.019  0.8660  1.1577  0.1626
19848TIP3   OH280958   1.679   2.378   2.861 -0.3133  0.2425  0.4944
19848TIP3    H180959   1.756   2.421   2.900  1.7937 -2.5394 -0.4679
19848TIP3    H280960   1.681   2.289   2.896 -0.5675 -1.1761 -2.8954
19849TIP3   OH280961   5.388   5.005  16.179  0.2259  0.1549 -0.4000
19849TIP3    H180962   5.315   5.054  16.217 -0.9704 -2.3871  0.6708
19849TIP3    H280963   5.429   4.961  16.253  0.8342 -1.0354 -1.4197
19850TIP3   OH280964   3.706   1.500   1.922  0.4352  0.9118 -0.0989
19850TIP3    H180965   3.649   1.572   1.951 -0.8891 -0.1387 -0.0680
19850TIP3    H280966   3.697   1.500   1.827  1.5537  1.6991 -0.2102
19851TIP3   OH280967   5.560   5.714   0.579 -0.4011 -0.1349  0.4212
19851TIP3    H180968   5.631   5.713   0.514 -0.1205 -2.3010  0.7156
19851TIP3    H280969   5.480   5.711   0.526 -0.2315  0.4479  0.1271
19852TIP3   OH280970   5.257   3.571   2.856  0.3237  0.0618 -0.0264
19852TIP3    H180971   5.288   3.607   2.939  2.8612  2.1748 -1.8341
19852TIP3    H280972   5.219   3.646   2.810  1.8081 -0.4244 -2.0862
19853TIP3   OH280973   6.139   6.222  11.106 -0.3881 -0.0056  0.4086
19853TIP3    H180974   6.104   6.151  11.051 -2.2299  0.4412  0.9733
19853TIP3    H280975   6.061   6.264  11.143  0.6664  2.3448  0.0446
19854TIP3   OH280976   4.161   0.721   5.145  0.6080  0.3827 -0.6767
19854TIP3    H180977   4.191   0.717   5.054  0.1168 -0.0051 -0.8221
19854TIP3    H280978   4.086   0.661   5.149  1.4904 -0.6640  0.3234
19855TIP3   OH280979   1.625   2.198   0.327  0.3360 -0.0652  0.1345
19855TIP3    H180980   1.718   2.219   0.322  0.2419  0.2758 -0.2342
19855TIP3    H280981   1.620   2.105   0.305  0.8379 -0.6873  2.5126
19856TIP3   OH280982   6.286   0.236   5.688 -0.3509  0.5475 -0.2150
19856TIP3    H180983   6.194   0.210   5.679 -0.4445  1.2021 -1.3123
19856TIP3    H280984   6.314   0.253   5.598  1.2801 -1.0923 -0.0492
19857TIP3   OH280985   1.800   3.578   2.306  0.1567 -0.0759 -0.3631
19857TIP3    H180986   1.814   3.584   2.211  0.1792  2.2909 -0.2303
19857TIP3    H280987   1.795   3.484   2.323  0.4211 -0.5430 -2.6725
19858TIP3   OH280988   1.194   5.919   4.181 -0.1344 -0.0274 -0.5480
19858TIP3    H180989   1.189   5.851   4.114  0.5813 -0.0388 -0.6007
19858TIP3    H280990   1.285   5.949   4.177 -0.2799  0.4816 -0.0840
19859TIP3   OH280991   3.708   3.883   6.169  0.5898  0.0841 -0.4266
19859TIP3    H180992   3.746   3.961   6.210  0.8692  0.6913 -1.8085
19859TIP3    H280993   3.685   3.826   6.242  1.8092  0.8082  0.5384
19860TIP3   OH280994   1.465   0.190  14.123  0.6036  0.0963 -0.2669
19860TIP3    H180995   1.404   0.126  14.084  0.6341 -1.0810  1.5314
19860TIP3    H280996   1.416   0.272  14.123 -0.8366 -0.7406  0.7269
19861TIP3   OH280997   3.008   6.279  14.312 -0.0577 -0.1290 -0.1098
19861TIP3    H180998   3.032   6.270  14.405  0.5931  1.2073 -0.1350
19861TIP3    H280999   2.942   6.348  14.311  0.0834  0.0002 -0.6706
19862TIP3   OH281000   5.953   4.096   4.591  0.4678 -0.0958 -0.4204
19862TIP3    H181001   5.992   4.172   4.634  0.3248 -1.0873  1.5019
19862TIP3    H281002   5.864   4.092   4.624  0.0927 -0.3922 -1.4451
19863TIP3   OH281003   1.978   3.824   5.018  0.1044 -0.2704  0.1571
19863TIP3    H181004   1.947   3.792   5.103 -1.4121  0.2662 -0.1736
19863TIP3    H281005   2.029   3.902   5.039  1.3517 -1.2154  0.7200
19864TIP3   OH281006   1.530   4.562  13.561 -0.2416 -0.3628  0.4550
19864TIP3    H181007   1.539   4.469  13.539 -0.7354 -0.7481  1.8136
19864TIP3    H281008   1.578   4.608  13.492 -1.1253 -1.5554 -0.9787
19865TIP3   OH281009   2.431   4.020   2.087  0.1749 -0.8872 -0.0819
19865TIP3    H181010   2.486   4.035   2.164 -1.1178  0.9271  0.5382
19865TIP3    H281011   2.366   4.091   2.091  0.3614 -0.5112 -3.0789
19866TIP3   OH281012   1.869   3.992   2.183  0.2882  0.5374  0.7546
19866TIP3    H181013   1.778   4.020   2.187 -0.2168 -0.8639 -0.7661
19866TIP3    H281014   1.907   4.024   2.265 -1.5712  1.0793  1.4309
19867TIP3   OH281015   3.906   5.063  14.951  0.6080 -0.4046  0.2429
19867TIP3    H181016   3.968   5.034  14.884 -2.5119 -0.8101 -2.5771
19867TIP3    H281017   3.880   5.151  14.923  0.2111 -0.0654  1.6511
19868TIP3   OH281018   1.269   0.775  13.868  0.4460 -0.0559  0.2353
19868TIP3    H181019   1.222   0.812  13.942  1.5666 -2.5876  2.3085
19868TIP3    H281020   1.361   0.798  13.884  0.5379  0.5011 -1.0609
19869TIP3   OH281021   4.693   5.498  15.645  0.4839 -0.5962  0.6220
19869TIP3    H181022   4.643   5.562  15.694 -0.7289 -0.2322 -1.0252
19869TIP3    H281023   4.761   5.549  15.601 -1.9371  0.0705 -2.6317
19870TIP3   OH281024   1.719   5.020  13.539 -0.2300 -0.2917 -0.1864
19870TIP3    H181025   1.625   5.028  13.522 -0.1654 -0.5510 -0.6748
19870TIP3    H281026   1.729   5.044  13.632 -0.9069 -1.2125  0.1322
19871TIP3   OH281027   6.250   3.352  14.559  0.2827  0.1236 -0.2406
19871TIP3    H181028   6.277   3.335  14.469 -2.9211 -0.8883 -1.0854
19871TIP3    H281029   6.270   3.270  14.605  0.3358  0.0252 -0.4352
19872TIP3   OH281030   3.734   0.228  15.943  0.1585  0.0824 -0.4476
19872TIP3    H181031   3.755   0.175  15.866  0.7323  0.4393 -0.5421
19872TIP3    H281032   3.669   0.177  15.990 -1.0254  0.3664 -1.7403
19873TIP3   OH281033   5.553   5.453  15.263 -0.4235 -0.1636  0.6309
19873TIP3    H181034   5.523   5.374  15.307  0.9888  0.0730  2.0800
19873TIP3    H281035   5.562   5.517  15.334  0.6170  0.6252 -0.1998
19874TIP3   OH281036   6.433   1.030   2.834  0.3096 -0.0943  0.1582
19874TIP3    H181037   6.452   1.019   2.928  3.0339  1.1173 -0.1982
19874TIP3    H281038   6.503   0.981   2.790 -0.2709  0.3329 -1.2458
19875TIP3   OH281039   4.507   1.845  15.530  0.3418 -0.5697 -0.3935
19875TIP3    H181040   4.554   1.917  15.573 -0.7179 -1.4985  2.4929
19875TIP3    H281041   4.417   1.853  15.561 -0.0543 -2.3803 -0.9809
19876TIP3   OH281042   5.665   2.466  13.163  0.5818 -0.3012  0.9797
19876TIP3    H181043   5.570   2.479  13.170  0.5856 -1.0238  2.3771
19876TIP3    H281044   5.703   2.550  13.187  0.3238 -0.3144  1.4407
19877TIP3   OH281045   0.199   4.770   5.688  0.0203  0.1630 -0.0974
19877TIP3    H181046   0.182   4.858   5.722  0.9273  0.2418  0.1816
19877TIP3    H281047   0.223   4.718   5.765 -0.0939 -0.2166 -0.3145
19878TIP3   OH281048   1.058   3.939   0.013 -0.3253 -0.2886 -0.7221
19878TIP3    H181049   1.127   3.953  -0.051 -0.2562 -0.1972 -0.6263
19878TIP3    H281050   0.977   3.959  -0.034 -0.1667  1.4322 -0.2954
19879TIP3   OH281051   2.560   4.810   3.007  0.2010 -0.4660 -0.6129
19879TIP3    H181052   2.544   4.773   2.920  0.1615  0.5930 -1.0632
19879TIP3    H281053   2.651   4.840   3.003  0.5379 -1.3517  0.0660
19880TIP3   OH281054   5.202   3.813  16.426  0.4224  0.4687 -0.0743
19880TIP3    H181055   5.110   3.803  16.450  0.5873  1.4639  0.9753
19880TIP3    H281056   5.237   3.875  16.489  0.8576  3.2642 -2.9064
19881TIP3   OH281057   4.876   2.781   3.897 -0.4679  0.1401  0.2112
19881TIP3    H181058   4.860   2.779   3.991 -0.6523 -1.5341  0.1442
19881TIP3    H281059   4.966   2.815   3.889 -0.8719  1.4125  0.9198
19882TIP3   OH281060   2.565   4.050  12.856  0.0191 -0.2927  0.2730
19882TIP3    H181061   2.618   4.125  12.884  2.2249 -1.3648 -0.8421
19882TIP3    H281062   2.595   4.033  12.766 -2.1154 -1.0706 -0.3168
19883TIP3   OH281063   6.169   5.002   5.095  0.2700  0.2948  0.4474
19883TIP3    H181064   6.130   5.052   5.167 -0.6176  1.0641 -0.5600
19883TIP3    H281065   6.142   4.912   5.112  1.0228  0.2898  1.7041
19884TIP3   OH281066   1.886   2.783   2.346  0.2009 -0.1157 -0.6512
19884TIP3    H181067   1.873   2.732   2.266 -0.4498 -0.1582 -0.5233
19884TIP3    H281068   1.841   2.733   2.414 -1.8415  1.4321 -0.8207
19885TIP3   OH281069   0.953   6.586  13.916  0.2753 -0.7884  0.0980
19885TIP3    H181070   0.972   6.492  13.923 -0.0441 -0.9418 -1.0738
19885TIP3    H281071   0.995   6.613  13.835  2.4070  0.6123  1.6041
19886TIP3   OH281072   5.684   4.596   0.176 -0.4890  0.6045 -0.0475
19886TIP3    H181073   5.645   4.658   0.238  0.0741  0.1172  0.8058
19886TIP3    H281074   5.682   4.642   0.092  0.2689  1.9463  0.6415
19887TIP3   OH281075   0.003   1.461   6.853  0.3694  0.7120  0.0958
19887TIP3    H181076   0.032   1.545   6.819  0.9506 -0.0985 -1.4415
19887TIP3    H281077  -0.092   1.470   6.861  0.3521  1.2758 -0.7168
19888TIP3   OH281078   1.301   3.503  13.437 -0.1152 -0.1691 -0.3988
19888TIP3    H181079   1.321   3.589  13.401  1.7116 -0.1655  0.5536
19888TIP3    H281080   1.210   3.510  13.466  0.3841  1.8773  0.8349
19889TIP3   OH281081   1.232   5.396   5.496 -0.6163 -0.3442  0.0639
19889TIP3    H181082   1.281   5.477   5.507 -1.3945  0.2450 -0.7658
19889TIP3    H281083   1.174   5.392   5.571 -1.4138  0.4652 -0.5035
19890TIP3   OH281084   4.701   2.662  11.262  0.2580  0.1721 -0.0162
19890TIP3    H181085   4.772   2.619  11.215 -0.0166 -0.6926  0.3576
19890TIP3    H281086   4.655   2.713  11.195  0.0903 -0.7605 -0.6207
19891TIP3   OH281087   4.196   3.389   5.875  0.6880  0.1610 -0.0281
19891TIP3    H181088   4.107   3.392   5.840  1.4036 -2.2946 -2.1650
19891TIP3    H281089   4.243   3.459   5.829 -0.1397  1.5711  1.2260
19892TIP3   OH281090   3.018   3.272  11.058 -0.2714 -0.3753 -0.2660
19892TIP3    H181091   3.079   3.340  11.030  0.9026 -0.4559  2.0246
19892TIP3    H281092   2.950   3.320  11.106  0.7156 -0.8399  1.6053
19893TIP3   OH281093   5.272   3.173  14.113  0.1304 -0.1737  0.5452
19893TIP3    H181094   5.218   3.249  14.134  1.3682  0.4988  1.3255
19893TIP3    H281095   5.348   3.210  14.068  0.4532 -1.0170  0.3960
19894TIP3   OH281096   3.252   5.704  14.551  0.4028 -0.1399 -0.8757
19894TIP3    H181097   3.318   5.760  14.593  0.8072 -0.7981 -0.6362
19894TIP3    H281098   3.288   5.686  14.464 -0.2235  0.8463 -1.3535
19895TIP3   OH281099   5.670   3.567   4.548 -0.4890  0.3398  0.7553
19895TIP3    H181100   5.682   3.590   4.640 -1.4808 -1.0483  1.2643
19895TIP3    H281101   5.584   3.523   4.546 -0.2604 -0.0557 -0.7441
19896TIP3   OH281102   6.453   1.787   4.192 -0.2872  0.1622  0.8253
19896TIP3    H181103   6.425   1.695   4.194  0.4374 -0.0685  0.5808
19896TIP3    H281104   6.424   1.818   4.106  0.0929 -0.0448  0.6181
19897TIP3   OH281105   5.148   1.681  15.124  0.1668 -0.0544 -0.2105
19897TIP3    H181106   5.225   1.699  15.178 -0.1500  1.1203 -0.1390
19897TIP3    H281107   5.074   1.714  15.175 -0.3642 -0.9117 -0.4070
19898TIP3   OH281108   5.376   4.131  13.394  0.3032 -0.0511 -0.6098
19898TIP3    H181109   5.356   4.193  13.465  1.4097 -1.3118  0.8511
19898TIP3    H281110   5.294   4.084  13.379  0.5514 -1.1467  1.2563
19899TIP3   OH281111   0.501   2.216   4.918 -0.2360  0.4532 -0.6975
19899TIP3    H181112   0.537   2.296   4.954  0.3356 -0.4906  0.8588
19899TIP3    H281113   0.509   2.226   4.823  1.6378  1.3907 -0.4476
19900TIP3   OH281114   0.893   5.897  14.622 -0.3021  0.0051  0.1659
19900TIP3    H181115   0.942   5.978  14.638  0.1959  0.1423 -1.8138
19900TIP3    H281116   0.933   5.833  14.680  1.1878  0.5194 -0.2537
19901TIP3   OH281117   4.930   4.302  15.711  0.5232  0.5846  0.3492
19901TIP3    H181118   4.940   4.396  15.697 -0.1237  0.7076  0.6749
19901TIP3    H281119   4.948   4.263  15.626  2.2753  0.8827  0.5652
19902TIP3   OH281120   2.339   0.705  15.577 -0.4554  0.4491  0.4484
19902TIP3    H181121   2.388   0.785  15.556  1.0441  0.0327  2.2062
19902TIP3    H281122   2.250   0.735  15.592  0.2855  1.9355  2.0074
19903TIP3   OH281123   2.711   3.002  17.040  0.4248 -0.3608  0.6602
19903TIP3    H181124   2.698   2.909  17.020 -0.1329  0.1528 -1.5118
19903TIP3    H281125   2.792   3.025  16.994  0.4505  0.2927  1.0222
19904TIP3   OH281126   1.935   3.617  13.756  0.2135  0.4015 -0.6226
19904TIP3    H181127   1.952   3.636  13.848 -1.6157  0.0626 -0.2072
19904TIP3    H281128   1.964   3.526  13.744 -1.8020 -0.3732  0.2315
19905TIP3   OH281129   0.863   5.805   5.571  0.0021  0.0539 -0.5696
19905TIP3    H181130   0.949   5.837   5.544 -0.2842  0.1648 -1.3938
19905TIP3    H281131   0.863   5.712   5.547  0.8864 -0.6207  1.9600
19906TIP3   OH281132   5.569   6.495   2.232  0.0774  0.3661 -0.1564
19906TIP3    H181133   5.523   6.450   2.303 -0.1168 -0.0718 -0.5607
19906TIP3    H281134   5.499   6.522   2.172  0.2499  0.6502 -0.2301
19907TIP3   OH281135   3.057   5.972   5.259  0.4151  0.6242 -0.3032
19907TIP3    H181136   3.070   5.967   5.353  1.8155  0.3499 -0.4883
19907TIP3    H281137   2.976   6.022   5.248 -0.6550 -0.7682  1.0620
19908TIP3   OH281138   5.271   1.787  14.548 -0.2155  0.1899 -0.4490
19908TIP3    H181139   5.232   1.729  14.483 -0.2650  1.4682 -1.5805
19908TIP3    H281140   5.300   1.863  14.498  2.2517  0.0036  0.6024
19909TIP3   OH281141   6.291   0.866  12.260 -0.3034 -0.3585  0.5354
19909TIP3    H181142   6.301   0.961  12.255  2.7599 -0.6538 -0.6341
19909TIP3    H281143   6.337   0.842  12.341 -0.5412 -0.8910  0.5096
19910TIP3   OH281144   2.355   6.176  14.880  0.6395  1.2311 -0.8246
19910TIP3    H181145   2.268   6.174  14.842  0.4133  3.8722 -0.5056
19910TIP3    H281146   2.364   6.091  14.924 -2.8565  1.9571  1.4926
19911TIP3   OH281147   0.469   6.151  11.311  0.4701 -0.2396  0.6557
19911TIP3    H181148   0.528   6.113  11.247  2.5269 -0.0905  2.3997
19911TIP3    H281149   0.513   6.230  11.341 -1.3993  0.7845  0.7771
19912TIP3   OH281150   3.812   0.525  11.079 -0.3364  0.5663 -0.2019
19912TIP3    H181151   3.888   0.569  11.041 -0.5433  0.7379 -0.4242
19912TIP3    H281152   3.841   0.494  11.164  0.2193 -0.0883 -0.6293
19913TIP3   OH281153   4.305   4.028   1.116  0.6077 -0.0710  0.4493
19913TIP3    H181154   4.289   4.071   1.200 -0.4122  0.2041  0.1144
19913TIP3    H281155   4.323   3.937   1.139  1.2501  0.1917  1.0311
19914TIP3   OH281156   6.669   5.362  14.542  0.0112  0.8869  0.3367
19914TIP3    H181157   6.614   5.403  14.610  0.4230  3.0225 -0.5755
19914TIP3    H281158   6.759   5.385  14.567  0.3022 -0.0270  0.1565
19915TIP3   OH281159   0.668   3.935   6.047 -0.2907 -0.1285  0.4200
19915TIP3    H181160   0.618   3.922   5.967 -0.5175 -0.5677  0.6322
19915TIP3    H281161   0.680   3.847   6.083  0.9555 -0.0595  0.1814
19916TIP3   OH281162   2.057   3.806   2.760  0.1761  0.0610 -0.2444
19916TIP3    H181163   2.137   3.780   2.714  0.9726  2.8257 -0.5625
19916TIP3    H281164   2.087   3.869   2.825 -1.7338  1.2176 -0.4375
19917TIP3   OH281165   3.193   4.699  16.604 -0.4373 -0.0871 -0.0898
19917TIP3    H181166   3.136   4.726  16.677 -1.1352 -1.9108  0.0620
19917TIP3    H281167   3.188   4.772  16.542 -0.4767  1.1359  1.3096
19918TIP3   OH281168   4.912   5.058  12.580  0.3900 -0.2283  0.7828
19918TIP3    H181169   4.904   4.964  12.564  1.1363 -0.2015  0.2192
19918TIP3    H281170   4.825   5.085  12.608  0.1263 -1.0598  0.7791
19919TIP3   OH281171   5.227   6.368  10.327  0.0375 -0.1480 -0.0022
19919TIP3    H181172   5.197   6.294  10.379  2.1460 -0.8577  0.2731
19919TIP3    H281173   5.204   6.445  10.379  1.1253 -0.8023  1.4662
19920TIP3   OH281174   2.723   0.187  12.745 -0.1044 -0.9573  0.0753
19920TIP3    H181175   2.764   0.113  12.699  0.6899  0.5245 -1.6404
19920TIP3    H281176   2.793   0.250  12.756 -1.2228  0.3604 -0.2223
19921TIP3   OH281177   5.242   4.356  13.555 -0.1825 -0.0435 -0.5246
19921TIP3    H181178   5.229   4.357  13.650  0.4139  0.6352 -0.4450
19921TIP3    H281179   5.155   4.366  13.518 -0.2755  1.0282 -0.0324
19922TIP3   OH281180   0.680   0.456   4.168 -0.8905 -0.1643  0.7355
19922TIP3    H181181   0.671   0.361   4.169 -2.6053 -0.0743 -2.0861
19922TIP3    H281182   0.602   0.489   4.212  0.4318 -0.0262  3.1028
19923TIP3   OH281183   4.785   5.196  13.944  0.1853 -0.1919  0.9181
19923TIP3    H181184   4.802   5.148  13.863  0.5668 -0.4075  1.1272
19923TIP3    H281185   4.775   5.287  13.916  0.2517 -0.2746  0.6221
19924TIP3   OH281186   6.669   5.009  16.222  0.6343 -0.0707 -0.2152
19924TIP3    H181187   6.575   4.990  16.232  1.0596 -1.3565  1.6587
19924TIP3    H281188   6.709   4.923  16.212  1.7960  0.3691  0.6164
19925TIP3   OH281189   3.363   6.257  14.775 -0.1052 -0.0918  0.4922
19925TIP3    H181190   3.392   6.312  14.702  0.6919 -1.5715 -0.3179
19925TIP3    H281191   3.276   6.227  14.749  0.7367 -1.7497 -0.5245
19926TIP3   OH281192   2.427   6.776   4.547 -0.0246 -0.2164  0.2318
19926TIP3    H181193   2.362   6.758   4.478 -0.0965 -0.8958  0.4708
19926TIP3    H281194   2.465   6.691   4.566  1.6830  0.3422 -0.6262
19927TIP3   OH281195   0.218   5.164  16.841 -0.6138 -0.0694  0.4649
19927TIP3    H181196   0.196   5.206  16.758 -0.1154  2.0999  1.3859
19927TIP3    H281197   0.196   5.072  16.829  0.8815 -0.0874 -2.5984
19928TIP3   OH281198   1.816   6.681   3.752  0.0077 -0.2206 -0.4206
19928TIP3    H181199   1.878   6.610   3.768 -1.9371 -2.2482 -1.5839
19928TIP3    H281200   1.765   6.651   3.677 -1.6381  1.9130 -0.1915
19929TIP3   OH281201   0.604   5.284   1.853  0.1311 -0.2522  0.2300
19929TIP3    H181202   0.551   5.356   1.887  0.9706  1.1983 -1.4465
19929TIP3    H281203   0.541   5.215   1.832 -0.7882  0.3656  0.9454
19930TIP3   OH281204   3.476   4.559   1.543 -0.2114  0.2683 -0.3018
19930TIP3    H181205   3.570   4.548   1.528 -0.1832  1.2905 -0.9575
19930TIP3    H281206   3.439   4.473   1.526  0.3898  0.3021 -1.8811
19931TIP3   OH281207   3.522   3.535   5.906  0.5665 -0.6043  0.2069
19931TIP3    H181208   3.427   3.526   5.900  0.5671 -0.1028 -0.5846
19931TIP3    H281209   3.553   3.445   5.919 -0.0293 -0.7441  0.6709
19932TIP3   OH281210   0.806   0.199  13.535 -0.2055  0.0559 -0.2226
19932TIP3    H181211   0.839   0.157  13.614 -1.9631  1.1104  1.0890
19932TIP3    H281212   0.799   0.291  13.557 -1.5826  0.2309 -1.3140
19933TIP3   OH281213   2.556   6.243   5.775  0.2287 -0.0401 -0.4480
19933TIP3    H181214   2.597   6.324   5.744  2.3595 -0.5044  1.0278
19933TIP3    H281215   2.462   6.264   5.780  0.8308  2.6257  0.7152
19934TIP3   OH281216   3.375   4.301   2.038  0.2777  0.1969  0.4076
19934TIP3    H181217   3.459   4.269   2.071  0.7716  0.0678 -0.9484
19934TIP3    H281218   3.338   4.350   2.112  1.3984 -0.0004  1.1180
19935TIP3   OH281219   0.829   1.891  16.486  0.6091 -0.2644 -0.3828
19935TIP3    H181220   0.733   1.885  16.489  0.3059  1.6394 -3.8756
19935TIP3    H281221   0.858   1.800  16.497 -1.6645 -1.0905 -0.7723
19936TIP3   OH281222   0.940   2.729   1.268 -0.1729  0.4573  0.2821
19936TIP3    H181223   0.940   2.795   1.336  2.0323 -0.3107  1.0705
19936TIP3    H281224   1.025   2.740   1.224 -0.7917 -0.2690 -1.1229
19937TIP3   OH281225   3.291   2.401  15.058  0.2147  0.0499 -0.4347
19937TIP3    H181226   3.250   2.316  15.073 -0.8014  1.0343  2.5846
19937TIP3    H281227   3.373   2.397  15.108  0.4647  0.6438 -0.7901
19938TIP3   OH281228   1.222   6.772   5.532 -0.7612 -0.3371  0.1083
19938TIP3    H181229   1.156   6.720   5.487 -1.4873  0.4839  0.2171
19938TIP3    H281230   1.305   6.745   5.493 -1.4095  0.5960 -1.9405
19939TIP3   OH281231   6.575   4.933   4.588 -0.6435  0.2052 -0.2412
19939TIP3    H181232   6.567   4.964   4.678 -0.1832 -0.2591 -0.0446
19939TIP3    H281233   6.645   4.987   4.550 -0.8591  0.4232 -0.3338
19940TIP3   OH281234   0.594   0.571  14.020 -0.1774 -0.3517 -0.6445
19940TIP3    H181235   0.689   0.561  14.026 -0.0971  1.1434  1.0517
19940TIP3    H281236   0.581   0.666  14.015 -1.5884 -0.5496 -0.9304
19941TIP3   OH281237   1.358   0.865   6.255  0.1520 -0.0552 -0.0197
19941TIP3    H181238   1.402   0.855   6.340  0.0686  1.0725  0.1664
19941TIP3    H281239   1.340   0.959   6.248 -2.3252 -0.4798 -0.0285
19942TIP3   OH281240   5.079   3.010  15.022  0.5071 -0.6362  0.3377
19942TIP3    H181241   5.119   2.979  14.941 -0.2878 -1.8732  0.4209
19942TIP3    H281242   5.020   3.080  14.994  0.2291 -1.0625 -0.1588
19943TIP3   OH281243   0.856   5.216  12.336  0.1591  0.6814 -0.3350
19943TIP3    H181244   0.867   5.252  12.248 -0.1383  0.2349 -0.5530
19943TIP3    H281245   0.787   5.270  12.375  0.2801  0.8696 -0.3789
19944TIP3   OH281246   6.383   3.386  12.859  0.6005  0.3263  0.5070
19944TIP3    H181247   6.330   3.319  12.902  1.6297 -0.2054  0.9775
19944TIP3    H281248   6.467   3.384  12.906  1.3787  0.4684 -0.8485
19945TIP3   OH281249   6.785   6.523   4.891  0.2610  0.0442 -0.1556
19945TIP3    H181250   6.847   6.459   4.856  1.7708  1.1904  0.3636
19945TIP3    H281251   6.703   6.505   4.845  1.4130 -0.3912 -2.0787
19946TIP3   OH281252   3.332   0.124  11.639  0.3194 -0.1082 -0.1091
19946TIP3    H181253   3.278   0.103  11.715  0.7741  0.2324  0.3066
19946TIP3    H281254   3.269   0.134  11.567 -0.1204 -0.2821  0.2518
19947TIP3   OH281255   1.343   1.360  12.247 -0.4629 -0.3475  0.1405
19947TIP3    H181256   1.341   1.388  12.156 -1.2243 -2.4908 -0.5384
19947TIP3    H281257   1.252   1.368  12.276 -0.0850  1.0845  0.9672
19948TIP3   OH281258   0.682   4.042   2.548  0.0314  0.3771  0.0394
19948TIP3    H181259   0.774   4.019   2.558 -0.2790 -0.1143  1.9622
19948TIP3    H281260   0.640   3.961   2.519 -0.1731 -0.0804  1.5493
19949TIP3   OH281261   4.957   2.121  12.671  0.0641  0.0649  0.0279
19949TIP3    H181262   4.883   2.177  12.650  0.5195  1.0926  1.1058
19949TIP3    H281263   5.013   2.175  12.727  0.5595 -1.4167  0.9966
19950TIP3   OH281264   0.265   6.049   2.358 -0.0769  0.2245 -0.0325
19950TIP3    H181265   0.340   6.088   2.401 -1.1151  1.7428  0.4191
19950TIP3    H281266   0.189   6.094   2.395 -1.1995 -1.1226 -0.6444
19951TIP3   OH281267   6.160   5.198   1.080 -0.3113 -0.1997 -1.1036
19951TIP3    H181268   6.188   5.107   1.084  0.5743  0.0973 -0.1874
19951TIP3    H281269   6.084   5.198   1.022 -1.4858 -1.8164  0.4027
19952TIP3   OH281270   2.435   2.917   5.028 -0.3166 -0.4886  0.2701
19952TIP3    H181271   2.348   2.947   5.055 -0.0369 -0.2797  0.9423
19952TIP3    H281272   2.485   2.912   5.109  0.3274 -0.5255 -0.1277
19953LIG      S81273   3.996   3.020  16.668 -0.2150  0.1410 -0.1517
19953LIG     F181274   2.914   3.438  15.885  0.0781 -0.2346 -0.4488
19953LIG     F281275   2.879   3.536  16.141 -0.2487  0.2828  0.1611
19953LIG     N181276   3.917   3.124  16.375  0.0687  0.0622 -0.2240
19953LIG     N281277   3.504   3.648  15.972  0.1105  0.0573  0.0670
19953LIG     C181278   3.881   3.210  16.262  0.5560  0.1498  0.1954
19953LIG     C281279   4.043   3.175  16.444 -0.3064 -1.0409 -0.0771
19953LIG     C381280   3.806   3.099  16.477  0.4494 -0.2809  0.9338
19953LIG     C481281   3.852   3.353  16.310  0.5973 -0.7370 -0.5028
19953LIG     C581282   4.091   3.059  16.522 -0.4322  0.0764 -0.3299
19953LIG     C681283   3.845   2.980  16.567 -0.2491 -0.2770 -0.4950
19953LIG     C781284   3.764   3.432  16.218 -0.5275  0.0675 -0.4220
19953LIG     C881285   3.384   3.601  15.901  0.0024 -0.2317  0.2421
19953LIG     C981286   3.630   3.392  16.201  0.5833  0.6548 -0.8952
19953LIG    C1081287   3.802   3.545  16.152 -0.0352 -0.5682  0.0620
19953LIG    C1181288   3.576   3.583  16.068  0.3015  0.9329 -0.1366
19953LIG    C1281289   3.535   3.467  16.131  0.0993  0.0464 -0.0042
19953LIG    C1381290   3.713   3.622  16.074 -0.0088 -0.0920 -0.6149
19953LIG    C1481291   3.244   3.599  15.972 -0.5193  0.5155  0.1556
19953LIG    C1581292   3.397   3.449  15.860 -0.5213  0.0212 -0.5440
19953LIG    C1681293   3.133   3.544  15.898  0.5590  0.2884 -0.6464
19953LIG    C1781294   3.213   3.655  16.094  0.2096  0.6182 -0.1477
19953LIG    C1881295   3.015   3.512  15.958  0.7240  0.5538  0.4089
19953LIG    C1981296   3.092   3.636  16.162  0.0412  0.7164  1.4069
19953LIG    C2081297   2.993   3.568  16.086 -0.0867  0.3789 -0.4226
19953LIG     H181298   3.794   3.171  16.206  1.3624 -0.4612 -0.6460
19953LIG     H281299   3.969   3.216  16.193  1.3491 -2.0205  0.9735
19953LIG     H381300   4.023   3.269  16.500 -1.8675 -1.9762  0.9638
19953LIG     H481301   4.107   3.201  16.357  0.2028 -0.7077  0.4016
19953LIG     H581302   3.716   3.065  16.421  2.2724 -0.3906 -2.0341
19953LIG     H681303   3.772   3.190  16.531 -2.0498 -1.7505  1.9464
19953LIG     H781304   3.932   3.427  16.331 -1.0021  0.9862 -0.3552
19953LIG     H881305   3.800   3.361  16.408 -1.0736  1.2379 -1.5113
19953LIG     H981306   4.091   2.964  16.463 -2.2064 -2.0490  2.9163
19953LIG    H1081307   4.193   3.071  16.565  0.2638  0.3428 -2.0186
19953LIG    H1181308   3.764   2.947  16.635  0.3364 -0.4474  0.1204
19953LIG    H1281309   3.878   2.900  16.497 -0.0485  0.7495 -1.6027
19953LIG    H1381310   3.385   3.671  15.815 -0.5648  0.8724  1.1188
19953LIG    H1481311   3.604   3.292  16.233 -0.6256  1.8409  2.0259
19953LIG    H1581312   3.901   3.587  16.163 -0.6320  0.4915  1.5441
19953LIG    H1681313   3.500   3.749  15.983  1.7725  0.3324 -1.6303
19953LIG    H1781314   3.433   3.432  16.116 -0.2187  0.2843  1.5411
19953LIG    H1881315   3.757   3.708  16.026  2.7033 -1.2240 -0.2514
19953LIG    H1981316   3.504   3.417  15.854 -0.4116  0.4033 -0.6862
19953LIG    H2081317   3.354   3.424  15.760  0.6918 -0.7185 -0.8920
19953LIG    H2181318   3.353   3.384  15.939 -1.0948 -1.4379 -2.0320
19953LIG    H2281319   3.145   3.504  15.798 -2.1051 -1.0380 -0.4730
19953LIG    H2381320   3.287   3.704  16.156 -1.4349  0.0453  2.3436
19953LIG    H2481321   3.075   3.675  16.261  2.6099  1.2391  1.6789
   6.78697   6.78697  17.23950
